G4NPncore-PETIM in water
89885
    1aaa     N1    1   9.145   1.743   7.182  0.2873  0.0833 -0.1625
    1aaa     C1    2   9.146   1.623   7.267 -0.2908 -0.3028 -0.2754
    1aaa     H1    3   9.235   1.605   7.328 -1.4352  0.5322  1.7257
    1aaa     H2    4   9.062   1.628   7.337 -0.4640 -0.1734 -0.4917
    1aaa     C2    5   9.270   1.759   7.095 -0.0785  0.1464 -0.8283
    1aaa     H3    6   9.271   1.679   7.019 -0.0734 -0.0872 -0.5854
    1aaa     H4    7   9.268   1.843   7.025  0.7784 -0.5217 -1.6882
    1aaa     C3    8   9.100   1.864   7.253  0.5564 -0.2083  0.0348
    1aaa     H5    9   9.002   1.849   7.300 -0.1181  2.3895 -0.3842
    1aaa     H6   10   9.167   1.891   7.335 -2.0395  1.0224  1.9151
    1aaa     C4   11   9.080   1.988   7.165 -0.6187  0.3270  0.6043
    1aaa     H7   12   9.173   2.009   7.111  0.0279 -0.5318  1.3585
    1aaa     H8   13   9.010   1.972   7.082 -1.3339  1.2481  1.0164
    1aaa     C5   14   9.126   1.500   7.188  0.0236  1.1200  1.0741
    1aaa     H9   15   9.039   1.512   7.122 -1.4823  1.0877  2.9701
    1aaa    H10   16   9.211   1.487   7.120 -0.8408  2.1588 -0.2679
    1aaa     C6   17   9.403   1.757   7.171 -0.1848 -0.1835 -0.7177
    1aaa    H11   18   9.391   1.837   7.246 -2.6570 -1.0604 -0.0935
    1aaa    H12   19   9.430   1.663   7.220 -0.4480  0.1109  0.0141
    1aaa     C7   20   9.527   1.801   7.086  0.5736  0.3527  0.0342
    1aaa    H13   21   9.524   1.742   6.994  0.1456  2.2338 -1.2061
    1aaa    H14   22   9.523   1.907   7.059  2.6264  0.1053 -1.5271
    1aaa     C8   23   9.038   2.112   7.239 -0.5403  0.3888 -0.0664
    1aaa    H15   24   9.105   2.121   7.325 -1.8993 -0.0405  1.0891
    1aaa    H16   25   9.054   2.196   7.171  0.9874  0.5626  0.4673
    1aaa     C9   26   9.109   1.365   7.268 -0.9618 -0.3135  0.3074
    1aaa    H17   27   9.031   1.392   7.341 -3.3115  1.6823 -2.7068
    1aaa    H18   28   9.063   1.293   7.200 -0.7331 -1.2601  1.1165
    2bbb     N1   29   9.881   1.606   6.806  0.1946 -0.1183 -0.0815
    2bbb     C1   30   9.923   1.463   6.807 -0.1029 -0.3962 -0.4536
    2bbb     H1   31   9.976   1.453   6.903  0.4608  0.7636 -0.6308
    2bbb     H2   32   9.989   1.434   6.725 -0.6564 -0.4526 -0.8769
    2bbb     C2   33   9.838   1.655   6.677  0.3775  0.2393 -0.1570
    2bbb     H3   34   9.830   1.764   6.679 -0.1711  0.1938  0.6561
    2bbb     H4   35   9.742   1.615   6.642  0.7438  1.1127 -2.2665
    2bbb     C3   36   9.794   1.644   6.923  0.0195  0.0860  0.0757
    2bbb     H5   37   9.839   1.599   7.012  2.1690  0.6561 -0.6780
    2bbb     H6   38   9.695   1.596   6.914  0.1819 -0.6950  2.1114
    2bbb     C4   39   9.787   1.793   6.953  0.0391 -0.6500  0.8766
    2bbb     H7   40   9.710   1.827   6.883 -0.0198 -0.9930  0.7747
    2bbb     H8   41   9.880   1.840   6.919 -1.2369  0.8843 -0.6608
    2bbb     C5   42   9.800   1.364   6.800  0.1980  0.2495 -0.5443
    2bbb     H9   43   9.752   1.392   6.705 -0.6042  1.4513  0.1943
    2bbb    H10   44   9.727   1.387   6.879 -0.8680  0.6322 -1.6120
    2bbb     C6   45   9.941   1.627   6.565 -0.1032  0.4962  0.3093
    2bbb    H11   46   9.959   1.520   6.549  0.0185  0.6457 -0.5975
    2bbb    H12   47  10.038   1.677   6.577 -1.5651  3.3864  0.7097
    2bbb     C7   48   9.759   1.838   7.095 -0.3527 -0.1225  0.0509
    2bbb    H13   49   9.740   1.946   7.101  1.9293  0.3445 -0.0116
    2bbb    H14   50   9.841   1.802   7.159  1.4770 -0.3294 -2.2883
    2bbb     C8   51   9.910   1.682   6.423 -0.1470  0.4014 -0.1857
    2bbb    H15   52   9.989   1.645   6.356  0.8645  0.4358  0.9513
    2bbb    H16   53   9.913   1.791   6.431  1.2210  0.3534  0.2869
    2bbb     C9   54   9.835   1.215   6.806 -0.0830  0.4779 -0.2007
    2bbb    H17   55   9.909   1.185   6.731  0.6396 -0.2490  0.7731
    2bbb    H18   56   9.747   1.153   6.785  2.3706 -2.7520 -1.7348
    2bbb     O1   57   9.648   1.773   7.152  0.1074  0.5753  0.5605
    3bbb     N1   58   8.645   2.425   7.456 -0.6092  0.2140  0.4724
    3bbb     C1   59   8.593   2.436   7.315  0.1327  0.3420  0.1003
    3bbb     H1   60   8.489   2.403   7.305  0.0012  0.8284 -0.1966
    3bbb     H2   61   8.654   2.368   7.255 -0.2520  0.0147  0.0735
    3bbb     C2   62   8.599   2.521   7.555  0.0589  0.4175 -0.2383
    3bbb     H3   63   8.567   2.475   7.649  1.8672  0.2134  0.3130
    3bbb     H4   64   8.512   2.572   7.512 -0.6919  0.9339  1.7681
    3bbb     C3   65   8.657   2.284   7.501 -0.0182  0.6211  0.5721
    3bbb     H5   66   8.560   2.243   7.531  0.8172 -2.7702 -0.9158
    3bbb     H6   67   8.728   2.277   7.584 -0.0091 -0.5584  0.4751
    3bbb     C4   68   8.717   2.180   7.403 -0.1921 -0.2290  0.2052
    3bbb     H7   69   8.650   2.138   7.327 -0.1533 -0.3843  0.2563
    3bbb     H8   70   8.734   2.088   7.460 -1.9738 -0.8179 -0.1612
    3bbb     C5   71   8.614   2.580   7.247 -0.1437  0.2211 -0.0694
    3bbb     H9   72   8.597   2.661   7.319  0.3251  1.3338 -1.1628
    3bbb    H10   73   8.545   2.590   7.163  0.0992 -1.7122 -0.5418
    3bbb     C6   74   8.712   2.627   7.585 -0.1739  0.2915  0.3561
    3bbb    H11   75   8.656   2.717   7.612  1.8610  0.9374  2.7588
    3bbb    H12   76   8.765   2.654   7.492 -1.0935  1.2075  0.0801
    3bbb     C7   77   8.855   2.218   7.351 -0.3536 -0.4631  0.4641
    3bbb    H13   78   8.924   2.226   7.435  0.1552 -0.9736  0.1001
    3bbb    H14   79   8.853   2.312   7.294  0.9357 -2.0038 -2.2980
    3bbb     C8   80   8.785   2.595   7.718  0.0981 -0.8244  0.2533
    3bbb    H15   81   8.875   2.657   7.719 -1.1952  1.2570 -1.6255
    3bbb    H16   82   8.827   2.494   7.726 -1.2946 -1.4425  0.1691
    3bbb     C9   83   8.761   2.601   7.192  1.0370  0.0514 -0.1397
    3bbb    H17   84   8.823   2.564   7.274  0.4664  1.7117  1.0723
    3bbb    H18   85   8.780   2.708   7.176 -1.5535  1.1789  3.2549
    3bbb     O1   86   8.902   2.104   7.267 -0.1269  0.0694 -0.0556
    4bbb     N1   87   9.555   1.275   7.597  0.0330 -0.7439  0.2322
    4bbb     C1   88   9.569   1.154   7.687 -0.1828  0.4760 -0.7372
    4bbb     H1   89   9.574   1.059   7.633 -0.3126 -0.9536  1.6314
    4bbb     H2   90   9.478   1.152   7.748  0.3505  1.1165  0.0969
    4bbb     C2   91   9.661   1.277   7.494 -0.1990  0.1232 -0.1190
    4bbb     H3   92   9.670   1.174   7.457 -0.2533  0.6659 -1.7366
    4bbb     H4   93   9.752   1.309   7.545  0.2001  2.3320 -2.0412
    4bbb     C3   94   9.416   1.296   7.557 -0.1746  0.1816  0.1785
    4bbb     H5   95   9.405   1.398   7.518  0.9828  0.3677  0.3224
    4bbb     H6   96   9.346   1.287   7.641 -1.0565  1.1067 -0.4322
    4bbb     C4   97   9.370   1.178   7.464 -0.2128 -0.0517 -0.1528
    4bbb     H7   98   9.370   1.074   7.497 -0.0186  0.3323  1.1330
    4bbb     H8   99   9.437   1.186   7.377  1.9248  1.7348  1.5086
    4bbb     C5  100   9.695   1.163   7.776  0.0843  0.1421  0.4418
    4bbb     H9  101   9.707   1.268   7.807 -1.8440  0.7507 -0.7227
    4bbb    H10  102   9.779   1.127   7.715  1.4476  1.2949  1.5449
    4bbb     C6  103   9.643   1.378   7.382 -0.1605  0.0246 -0.1829
    4bbb    H11  104   9.620   1.475   7.427 -2.5162  0.3059 -1.8235
    4bbb    H12  105   9.553   1.352   7.325 -2.1903  0.0236  2.8178
    4bbb     C7  106   9.228   1.213   7.410 -0.0028  0.1312  0.2185
    4bbb    H13  107   9.160   1.235   7.493 -0.6579 -1.1445  0.0487
    4bbb    H14  108   9.182   1.127   7.359  0.6194 -0.2862  0.3458
    4bbb     C8  109   9.762   1.375   7.288 -0.0088  0.6953 -0.9822
    4bbb    H15  110   9.752   1.452   7.210 -0.8499 -0.1683 -1.7388
    4bbb    H16  111   9.767   1.278   7.238 -0.5175 -0.9277  1.9237
    4bbb     C9  112   9.686   1.070   7.902 -0.5487 -0.0873  0.6647
    4bbb    H17  113   9.590   1.089   7.952 -1.1172 -0.1246 -0.3862
    4bbb    H18  114   9.773   1.103   7.961  1.1019 -2.1387 -0.5135
    4bbb     O1  115   9.239   1.320   7.313 -0.4836 -0.3877 -0.2138
    5bbb     N1  116   9.289   1.714   6.259  0.6229  0.3589  0.9009
    5bbb     C1  117   9.230   1.577   6.288 -0.1533  0.0453 -0.3484
    5bbb     H1  118   9.310   1.504   6.270  0.4489  0.4397  0.6407
    5bbb     H2  119   9.151   1.558   6.214 -0.6548  1.8152 -0.3070
    5bbb     C2  120   9.189   1.824   6.277 -0.2184 -0.5432 -0.8202
    5bbb     H3  121   9.244   1.918   6.271 -0.3731 -0.3688  0.3401
    5bbb     H4  122   9.136   1.829   6.373 -0.9103  1.5377 -1.2605
    5bbb     C3  123   9.413   1.752   6.333  0.2953 -0.4364 -0.0058
    5bbb     H5  124   9.382   1.790   6.431  1.5022  0.4526  0.0618
    5bbb     H6  125   9.456   1.829   6.267 -0.1979 -1.9040 -2.1506
    5bbb     C4  126   9.533   1.651   6.350  0.3682 -0.5582 -0.0448
    5bbb     H7  127   9.547   1.603   6.252 -0.5568 -2.1925  0.5987
    5bbb     H8  128   9.510   1.572   6.422  0.1808 -0.8605 -0.4305
    5bbb     C5  129   9.173   1.563   6.433 -0.1481 -0.0127  0.2617
    5bbb     H9  130   9.067   1.589   6.447 -1.3222 -2.9196 -2.2167
    5bbb    H10  131   9.246   1.622   6.491  0.6898  0.4186 -1.1753
    5bbb     C6  132   9.079   1.829   6.165 -0.9740  0.5988  0.2133
    5bbb    H11  133   9.023   1.734   6.159  0.8051 -0.4816  0.0811
    5bbb    H12  134   9.130   1.830   6.068  2.2713  0.4674  1.7715
    5bbb     C7  135   9.664   1.725   6.395 -0.6657 -0.2317  0.2216
    5bbb    H13  136   9.646   1.753   6.499 -0.9405 -3.3872  1.1424
    5bbb    H14  137   9.689   1.814   6.336 -0.5747  0.4445  1.2550
    5bbb     C8  138   8.988   1.954   6.186  0.4396  0.1013  0.1113
    5bbb    H15  139   9.046   2.045   6.168  0.0931  0.7364  1.9559
    5bbb    H16  140   8.962   1.977   6.290 -0.4220  1.4353 -0.3695
    5bbb     C9  141   9.178   1.407   6.461 -0.1340 -0.6998  0.1156
    5bbb    H17  142   9.279   1.369   6.445  0.2682  0.0594  0.7739
    5bbb    H18  143   9.106   1.347   6.404 -0.3762 -0.1574 -0.1649
    5bbb     O1  144   9.779   1.632   6.380 -0.3132  0.6011  0.3101
    6bbb     N1  145  10.133   1.031   7.255 -0.0054  0.1511 -0.1726
    6bbb     C1  146  10.062   1.066   7.380 -0.0626  0.1753  0.2724
    6bbb     H1  147   9.955   1.044   7.370 -0.1426  0.7504 -0.2036
    6bbb     H2  148  10.074   1.175   7.377 -0.0672  0.1527 -1.4181
    6bbb     C2  149  10.280   1.046   7.267 -0.8546  0.8638 -0.5768
    6bbb     H3  150  10.324   0.999   7.178 -0.8553 -0.1463 -0.0566
    6bbb     H4  151  10.317   0.988   7.352  2.8220  3.0064 -0.4934
    6bbb     C3  152  10.080   1.076   7.126 -0.0324  0.0491 -0.1598
    6bbb     H5  153  10.147   1.053   7.042 -0.2564  0.5573 -0.4843
    6bbb     H6  154  10.063   1.184   7.121  0.9612  0.1701 -1.3548
    6bbb     C4  155   9.942   1.011   7.086 -0.1741  0.4976 -0.1428
    6bbb     H7  156   9.870   1.052   7.157 -0.3865  0.1764 -0.1698
    6bbb     H8  157   9.953   0.902   7.095  2.8122  0.6708 -0.7857
    6bbb     C5  158  10.114   1.013   7.515  0.4660  0.0112 -0.3099
    6bbb     H9  159  10.049   1.057   7.592  1.6622 -0.9949  1.3348
    6bbb    H10  160  10.217   1.043   7.535  0.1236 -0.0090  1.7146
    6bbb     C6  161  10.323   1.194   7.281 -0.0178  0.3797  0.4352
    6bbb    H11  162  10.278   1.238   7.371  1.6354  0.9693  1.0305
    6bbb    H12  163  10.276   1.248   7.198  0.8437 -0.9048 -0.9217
    6bbb     C7  164   9.918   1.038   6.940  0.4222  0.1705 -0.2125
    6bbb    H13  165   9.834   0.975   6.909 -0.3254  0.2024  1.5926
    6bbb    H14  166  10.008   1.027   6.879  1.7490 -0.0426  1.6787
    6bbb     C8  167  10.474   1.211   7.296 -0.0264  0.1394  0.2851
    6bbb    H15  168  10.492   1.309   7.250  0.2564 -0.2722 -0.5101
    6bbb    H16  169  10.532   1.139   7.237  1.4643  2.0893 -0.7848
    6bbb     C9  170  10.110   0.860   7.520 -0.6959  0.3585 -0.1800
    6bbb    H17  171  10.186   0.814   7.456 -0.6040 -0.7563  0.6894
    6bbb    H18  172  10.016   0.827   7.476 -0.6315  1.3536 -1.0870
    6bbb     O1  173   9.878   1.174   6.938  0.0061 -0.2216  0.5322
    7bbb     N1  174   8.652   2.276   8.170  0.1842  1.1900  0.6744
    7bbb     C1  175   8.687   2.163   8.080  0.1619  0.9251  0.3008
    7bbb     H1  176   8.653   2.178   7.977 -1.1647  0.1795  0.5986
    7bbb     H2  177   8.614   2.087   8.113 -0.0136  0.3180 -1.4071
    7bbb     C2  178   8.669   2.239   8.317 -0.7027  0.3882  0.4710
    7bbb     H3  179   8.776   2.250   8.335 -0.4425 -0.5688 -0.4022
    7bbb     H4  180   8.646   2.132   8.328  1.9703 -0.3220 -0.2442
    7bbb     C3  181   8.729   2.395   8.125  0.4228 -0.0389 -0.5596
    7bbb     H5  182   8.836   2.383   8.147  0.6065 -2.2294 -2.3064
    7bbb     H6  183   8.706   2.478   8.194  2.1390  0.7975 -0.9612
    7bbb     C4  184   8.705   2.441   7.979  0.3365 -0.9724  0.1835
    7bbb     H7  185   8.601   2.446   7.945 -0.2499 -1.9449  1.7521
    7bbb     H8  186   8.760   2.368   7.918 -2.1165 -1.9260 -1.0189
    7bbb     C5  187   8.833   2.113   8.090 -0.1342  0.3427  0.3727
    7bbb     H9  188   8.872   2.102   8.192  1.2049  2.5792  0.1676
    7bbb    H10  189   8.893   2.192   8.043 -0.4670  0.1814 -0.3238
    7bbb     C6  190   8.585   2.320   8.415  0.3513  0.1222  0.2976
    7bbb    H11  191   8.482   2.284   8.407  0.3674  0.2166 -0.3999
    7bbb    H12  192   8.584   2.427   8.392 -0.5900  0.3446  1.3011
    7bbb     C7  193   8.761   2.580   7.959 -0.2002  0.4493  0.3199
    7bbb    H13  194   8.868   2.564   7.947 -0.1878 -0.5722  1.5118
    7bbb    H14  195   8.737   2.643   8.046  1.0475  1.4923 -0.0716
    7bbb     C8  196   8.647   2.301   8.558  0.7349 -0.0867 -0.2543
    7bbb    H15  197   8.640   2.192   8.573  2.3333 -0.1528  0.1916
    7bbb    H16  198   8.587   2.344   8.638 -0.1490 -2.3190  0.3481
    7bbb     C9  199   8.852   1.983   8.004 -0.2361 -0.3427  0.3030
    7bbb    H17  200   8.800   1.898   8.050 -0.5627  0.0506  0.6731
    7bbb    H18  201   8.958   1.957   7.992 -0.1811  0.3883 -0.9586
    7bbb     O1  202   8.704   2.631   7.836 -0.0924  0.5150  0.1040
    8bbb     N1  203   9.017   2.276   6.728  0.0690  0.1833 -0.8375
    8bbb     C1  204   9.112   2.154   6.744  0.4753 -0.4973 -0.4873
    8bbb     H1  205   9.055   2.070   6.784 -0.6235 -1.6597 -4.0535
    8bbb     H2  206   9.192   2.180   6.814 -0.2547 -0.8426  0.4982
    8bbb     C2  207   8.915   2.266   6.619  0.1320 -0.1428  0.3140
    8bbb     H3  208   8.953   2.261   6.517  0.8938 -3.3175  0.6294
    8bbb     H4  209   8.856   2.358   6.616 -0.9215 -0.8129 -1.4853
    8bbb     C3  210   8.953   2.314   6.854  0.1854  0.1080 -0.0788
    8bbb     H5  211   9.027   2.316   6.935  0.2760  0.5124 -0.1714
    8bbb     H6  212   8.877   2.241   6.887 -0.1646  0.6335  0.2903
    8bbb     C4  213   8.894   2.463   6.864 -0.1277  0.2972 -0.5690
    8bbb     H7  214   8.790   2.442   6.837 -0.8484  0.1291  2.0281
    8bbb     H8  215   8.935   2.527   6.785 -0.9056  2.1738  0.4918
    8bbb     C5  216   9.173   2.114   6.608 -0.9900  0.6043 -0.1842
    8bbb     H9  217   9.226   2.199   6.563  0.3435  0.8172  1.6856
    8bbb    H10  218   9.092   2.076   6.545 -1.6172 -0.7949  1.3930
    8bbb     C6  219   8.818   2.138   6.629  0.3294 -0.0209  0.2244
    8bbb    H11  220   8.762   2.157   6.722 -0.8112 -0.5410 -0.3286
    8bbb    H12  221   8.875   2.045   6.630 -0.8908 -0.7973  0.2956
    8bbb     C7  222   8.905   2.531   7.010  0.0283  0.3392  0.2969
    8bbb    H13  223   8.935   2.636   7.002  2.7182 -0.2551  1.6134
    8bbb    H14  224   8.987   2.489   7.070  2.2022  3.3361 -0.3097
    8bbb     C8  225   8.713   2.125   6.519 -0.3684  0.8673  0.0899
    8bbb    H15  226   8.753   2.139   6.418  0.4829 -0.9810  0.1282
    8bbb    H16  227   8.638   2.202   6.539 -1.1536  0.5448 -1.5054
    8bbb     C9  228   9.282   2.007   6.629  0.5554  0.1904  0.9953
    8bbb    H17  229   9.364   2.049   6.689  0.1903  1.4885  0.6191
    8bbb    H18  230   9.312   1.954   6.538 -0.1522  2.0102 -0.3503
    8bbb     O1  231   8.776   2.526   7.069  0.1821 -0.4733 -0.4046
    9bbb     N1  232  10.007   1.430   7.689  0.2502 -0.4957 -0.4842
    9bbb     C1  233  10.007   1.311   7.777 -0.1200 -0.6477  0.8857
    9bbb     H1  234   9.958   1.231   7.721 -1.5343  1.3429 -0.9100
    9bbb     H2  235   9.947   1.334   7.866  0.3416 -0.7465  1.2266
    9bbb     C2  236  10.020   1.558   7.756  0.7592 -0.6120 -0.4983
    9bbb     H3  237   9.987   1.644   7.697 -0.4235 -1.2351 -0.7774
    9bbb     H4  238  10.125   1.577   7.781  0.7653 -0.1208 -0.8830
    9bbb     C3  239  10.084   1.411   7.565  0.0946  0.1660  0.0497
    9bbb     H5  240  10.051   1.317   7.520 -0.4137  0.9907 -1.3396
    9bbb     H6  241  10.191   1.411   7.590  0.4352 -0.6814 -1.3223
    9bbb     C4  242  10.057   1.519   7.457 -0.1393 -0.2326 -0.7682
    9bbb     H7  243  10.123   1.493   7.373 -0.8595 -1.0954 -1.0810
    9bbb     H8  244  10.083   1.622   7.486 -1.4775 -0.6796  2.4807
    9bbb     C5  245  10.150   1.264   7.827 -0.3454 -0.6241  0.3813
    9bbb     H9  246  10.209   1.347   7.867 -0.0331  0.2146 -1.7009
    9bbb    H10  247  10.214   1.235   7.743  1.5984  0.4543  1.4201
    9bbb     C6  248   9.929   1.576   7.882  0.3969 -0.3369 -0.0545
    9bbb    H11  249   9.974   1.507   7.955 -0.1876 -0.6294  0.0297
    9bbb    H12  250   9.833   1.538   7.845  2.4212 -3.6333 -2.5968
    9bbb     C7  251   9.913   1.521   7.409  0.1305  0.5491  0.0663
    9bbb    H13  252   9.905   1.593   7.328 -2.0349  0.8375  0.4708
    9bbb    H14  253   9.836   1.533   7.486 -1.3840 -4.7398 -0.1918
    9bbb     C8  254   9.915   1.720   7.937  0.3870 -0.6527 -0.1039
    9bbb    H15  255   9.872   1.781   7.856  2.5072 -2.3370 -2.6803
    9bbb    H16  256  10.011   1.769   7.957  1.6272 -3.2918  0.7782
    9bbb     C9  257  10.142   1.135   7.912 -0.0255 -0.4488  0.1142
    9bbb    H17  258  10.247   1.104   7.924  0.3928  0.3944 -1.1049
    9bbb    H18  259  10.099   1.053   7.853 -0.3978  0.3163 -0.7111
    9bbb     O1  260   9.888   1.393   7.357  0.2836 -0.6146  0.3060
   10bbb     N1  261   9.432   0.662   7.877 -0.3585  0.0956 -0.8705
   10bbb     C1  262   9.313   0.695   7.796 -0.2753 -0.1587  0.0660
   10bbb     H1  263   9.226   0.683   7.862  0.4534 -1.6906  0.8096
   10bbb     H2  264   9.315   0.616   7.721  2.7920 -0.4614  0.3449
   10bbb     C2  265   9.416   0.528   7.951 -0.5859  0.6120  0.1032
   10bbb     H3  266   9.505   0.498   8.007  0.0886  1.4477 -0.5011
   10bbb     H4  267   9.401   0.448   7.878 -1.6473 -0.7110  1.7215
   10bbb     C3  268   9.567   0.681   7.815 -0.0443  0.2367 -0.5393
   10bbb     H5  269   9.570   0.765   7.744  0.0311  1.1719  0.5530
   10bbb     H6  270   9.592   0.588   7.762  1.6651  0.3821 -0.0369
   10bbb     C4  271   9.676   0.699   7.923 -0.7992 -0.0377  0.2152
   10bbb     H7  272   9.772   0.681   7.874 -0.1588  0.7847  1.1449
   10bbb     H8  273   9.667   0.621   8.000 -0.8638 -0.5671 -0.3206
   10bbb     C5  274   9.311   0.834   7.726  0.0680 -0.3524 -0.4194
   10bbb     H9  275   9.389   0.839   7.648 -0.4783  2.3943 -0.9044
   10bbb    H10  276   9.340   0.908   7.802  0.3664  0.8373 -1.6581
   10bbb     C6  277   9.309   0.515   8.061 -0.1480 -0.0425 -0.2161
   10bbb    H11  278   9.296   0.407   8.078  1.9467 -0.3900 -0.5743
   10bbb    H12  279   9.210   0.542   8.021  0.3353  2.4527  0.1471
   10bbb     C7  280   9.673   0.842   7.985 -0.3504 -0.3475  0.2623
   10bbb    H13  281   9.736   0.871   8.070  0.8555  2.5247 -1.4690
   10bbb    H14  282   9.569   0.864   8.014  0.3942  2.7426  0.8812
   10bbb     C8  283   9.349   0.585   8.201 -0.1586  0.9703  0.1982
   10bbb    H15  284   9.437   0.534   8.240  0.4817  0.4605 -1.7841
   10bbb    H16  285   9.271   0.561   8.275  1.4376 -0.5195  1.4594
   10bbb     C9  286   9.173   0.881   7.663  0.2898  0.7330 -0.4627
   10bbb    H17  287   9.145   0.791   7.607  1.1246  1.4467 -2.1217
   10bbb    H18  288   9.171   0.968   7.596  0.2401  0.7946 -0.3804
   10bbb     O1  289   9.703   0.931   7.874  0.7719 -0.1802 -0.4193
   11bbb     N1  290   8.446   1.719   5.966 -0.2540  0.1284 -0.2398
   11bbb     C1  291   8.485   1.587   5.922  0.3876 -0.2245  0.1539
   11bbb     H1  292   8.484   1.515   6.005 -1.2907 -1.4972 -0.8947
   11bbb     H2  293   8.589   1.592   5.887  0.1845 -0.8295 -0.5707
   11bbb     C2  294   8.310   1.723   6.019 -0.1221  0.1848 -0.3201
   11bbb     H3  295   8.246   1.702   5.933 -0.0414  0.3567 -0.4229
   11bbb     H4  296   8.283   1.824   6.055 -0.7759  0.0533 -0.4325
   11bbb     C3  297   8.543   1.760   6.071  0.4111  0.4965  0.2692
   11bbb     H5  298   8.553   1.681   6.147 -0.6135  1.0436  0.9895
   11bbb     H6  299   8.495   1.849   6.112 -1.4728 -0.2895 -0.1134
   11bbb     C4  300   8.684   1.806   6.025  0.2890  0.6764  0.7730
   11bbb     H7  301   8.664   1.875   5.943 -2.1070 -1.1517 -0.2916
   11bbb     H8  302   8.736   1.717   5.988 -0.8686  0.1865  0.2999
   11bbb     C5  303   8.387   1.525   5.815  0.0923  0.0537  0.0246
   11bbb     H9  304   8.379   1.589   5.727  0.6065  0.4839  0.2898
   11bbb    H10  305   8.290   1.516   5.867  0.2764  0.6524  0.4834
   11bbb     C6  306   8.274   1.624   6.137  0.4995 -1.2695  0.2565
   11bbb    H11  307   8.319   1.656   6.231 -1.7483 -1.3296  1.4373
   11bbb    H12  308   8.315   1.526   6.112 -0.5342 -1.1647 -2.1220
   11bbb     C7  309   8.763   1.866   6.143  0.0974  0.2158  0.0224
   11bbb    H13  310   8.797   1.782   6.205 -1.5849  0.5451  1.4466
   11bbb    H14  311   8.700   1.931   6.205 -0.2003  3.1035 -3.0046
   11bbb     C8  312   8.116   1.625   6.176 -0.2349  0.0476  0.6423
   11bbb    H15  313   8.084   1.535   6.230 -2.5705 -0.2856 -1.1609
   11bbb    H16  314   8.055   1.605   6.087 -0.5910 -1.2564  1.1464
   11bbb     C9  315   8.409   1.372   5.770  0.1027 -0.0462 -0.3961
   11bbb    H17  316   8.337   1.342   5.693 -0.3023  1.6553 -0.7339
   11bbb    H18  317   8.387   1.316   5.862 -1.6701 -1.4667 -1.6189
   11bbb     O1  318   8.877   1.940   6.094 -0.2673  0.1181  0.2718
   12bbb     N1  319   8.907   1.062   6.731  0.4761 -0.6987  0.5621
   12bbb     C1  320   8.765   1.109   6.721 -0.3039  0.2316 -0.0834
   12bbb     H1  321   8.757   1.198   6.785  3.5314 -0.0484  0.9945
   12bbb     H2  322   8.697   1.042   6.774  0.4871 -0.6482 -0.1615
   12bbb     C2  323   8.930   0.918   6.723  0.7593  0.5961  0.4961
   12bbb     H3  324   8.838   0.861   6.742  0.4341  0.8794 -0.1595
   12bbb     H4  325   9.006   0.898   6.798  0.2965  1.0790  1.1125
   12bbb     C3  326   8.997   1.139   6.828  0.2420  0.1344 -0.1920
   12bbb     H5  327   9.094   1.087   6.829 -0.7489 -2.0304 -2.6640
   12bbb     H6  328   8.947   1.138   6.926 -1.3248 -0.7996 -0.9478
   12bbb     C4  329   9.037   1.280   6.784  0.3172 -0.2742  0.4656
   12bbb     H7  330   9.097   1.306   6.872 -1.4613  2.1204  1.0759
   12bbb     H8  331   8.957   1.355   6.786 -0.8853 -1.4732 -0.5445
   12bbb     C5  332   8.707   1.118   6.575  0.2514  0.1329  0.1188
   12bbb     H9  333   8.732   1.036   6.506 -0.8511  1.5833 -2.1494
   12bbb    H10  334   8.758   1.203   6.529  2.0881 -1.1419 -0.3128
   12bbb     C6  335   8.999   0.899   6.586 -0.2481 -0.4218 -0.1132
   12bbb    H11  336   9.089   0.958   6.564  1.5855 -3.6969 -2.3518
   12bbb    H12  337   8.927   0.927   6.509 -1.2961 -3.5035 -0.4059
   12bbb     C7  338   9.110   1.270   6.649 -0.0718  0.2172 -0.2975
   12bbb    H13  339   9.049   1.223   6.571 -0.8706 -1.3120  1.1876
   12bbb    H14  340   9.187   1.194   6.663 -2.2794 -2.2356 -0.6090
   12bbb     C8  341   9.033   0.756   6.541  0.4274 -0.3493  0.4633
   12bbb    H15  342   9.061   0.752   6.435  0.2171  1.9373  0.2788
   12bbb    H16  343   8.947   0.688   6.548 -0.8228  0.9069 -1.7103
   12bbb     C9  344   8.555   1.149   6.570  0.6261 -0.2315 -0.4398
   12bbb    H17  345   8.537   1.175   6.465  2.7331  1.0041 -0.5492
   12bbb    H18  346   8.535   1.225   6.646  1.0934  0.4677 -1.0051
   12bbb     O1  347   9.150   1.400   6.606  0.4768 -0.4613  0.5382
   13bbb     N1  348  10.702   1.502   7.798  0.2001 -0.3670 -1.0668
   13bbb     C1  349  10.721   1.406   7.913 -0.3026  0.3228  0.0624
   13bbb     H1  350  10.817   1.355   7.901  0.0540  0.8399  0.7072
   13bbb     H2  351  10.648   1.324   7.905  2.9198 -2.5922 -3.9671
   13bbb     C2  352  10.585   1.588   7.810  0.7720 -0.2545  0.1634
   13bbb     H3  353  10.561   1.623   7.911  1.0566  0.9465 -0.1745
   13bbb     H4  354  10.496   1.536   7.772  0.0103  1.8821 -1.1423
   13bbb     C3  355  10.721   1.444   7.663 -0.4116 -0.1982  0.4624
   13bbb     H5  356  10.827   1.423   7.647 -0.2359 -0.2141  1.5721
   13bbb     H6  357  10.715   1.521   7.586  0.8346  0.6156  1.1413
   13bbb     C4  358  10.630   1.318   7.626  0.6046 -0.0326 -0.0285
   13bbb     H7  359  10.531   1.330   7.673  0.6144 -2.5972  0.8226
   13bbb     H8  360  10.676   1.232   7.676 -0.6674 -1.7393 -1.6543
   13bbb     C5  361  10.707   1.463   8.059 -0.3867 -0.4233  0.7429
   13bbb     H9  362  10.737   1.382   8.127  1.5267  0.2065  0.7364
   13bbb    H10  363  10.603   1.482   8.086 -0.3873  3.6282 -1.2565
   13bbb     C6  364  10.597   1.720   7.731 -0.3903 -1.2428 -0.3405
   13bbb    H11  365  10.598   1.689   7.626 -1.5186  0.9821 -1.0930
   13bbb    H12  366  10.694   1.770   7.739 -0.6461 -0.6536 -0.7902
   13bbb     C7  367  10.629   1.278   7.474 -0.5131  0.2379  0.5252
   13bbb    H13  368  10.713   1.211   7.452 -0.1708  0.9821 -0.4563
   13bbb    H14  369  10.628   1.371   7.417  0.3599 -0.5407 -0.8043
   13bbb     C8  370  10.483   1.828   7.749 -1.0890 -0.2259  0.0810
   13bbb    H15  371  10.517   1.906   7.680  1.7062 -0.6705  0.8278
   13bbb    H16  372  10.483   1.854   7.856  0.8535 -0.1492  0.0907
   13bbb     C9  373  10.786   1.591   8.093  0.2077  0.3697 -0.4508
   13bbb    H17  374  10.776   1.661   8.009  1.4130 -0.0283 -0.9362
   13bbb    H18  375  10.889   1.554   8.102 -0.0153 -0.0087  0.7142
   13bbb     O1  376  10.505   1.213   7.436 -0.1610  0.0125  0.1032
   14bbb     N1  377  10.203   0.642   8.049 -0.8080  0.5703  0.2612
   14bbb     C1  378  10.337   0.642   8.118  0.2997  0.2344  0.3894
   14bbb     H1  379  10.423   0.610   8.057 -1.1291 -2.4799 -0.3505
   14bbb     H2  380  10.349   0.580   8.207  1.1537  0.7983  0.6790
   14bbb     C2  381  10.095   0.685   8.132  0.5835 -0.5345 -0.2460
   14bbb     H3  382   9.999   0.692   8.078 -0.6608  1.3427  2.0289
   14bbb     H4  383  10.125   0.781   8.174  1.6853 -1.8636  2.2854
   14bbb     C3  384  10.213   0.707   7.915  0.0110 -0.4292  0.2047
   14bbb     H5  385  10.312   0.688   7.871  0.0370  2.7059 -1.3680
   14bbb     H6  386  10.213   0.816   7.915  0.8256 -0.3602 -2.0801
   14bbb     C4  387  10.105   0.655   7.816 -0.0217  0.0412  0.5321
   14bbb     H7  388  10.014   0.702   7.856 -0.1740  1.7989 -1.6798
   14bbb     H8  389  10.092   0.546   7.827 -0.6992  0.1612  0.9856
   14bbb     C5  390  10.371   0.779   8.175 -0.2687 -0.5302  0.0537
   14bbb     H9  391  10.306   0.809   8.258 -1.1392  0.7336 -1.0336
   14bbb    H10  392  10.349   0.864   8.109  1.5713  0.4822  0.6642
   14bbb     C6  393  10.058   0.580   8.252 -0.7136 -0.0906  0.5367
   14bbb    H11  394  10.151   0.561   8.306 -0.5298 -1.3321 -0.1705
   14bbb    H12  395  10.037   0.485   8.200 -0.6496  1.0600 -1.7416
   14bbb     C7  396  10.115   0.681   7.668 -0.1852  0.2787 -0.7898
   14bbb    H13  397  10.036   0.636   7.607  0.5914  2.7059 -3.8666
   14bbb    H14  398  10.211   0.642   7.630  0.7582  0.6236  1.1560
   14bbb     C8  399   9.949   0.608   8.348  0.6109 -0.9676  0.0125
   14bbb    H15  400   9.982   0.687   8.417 -2.1510  0.0555  0.3054
   14bbb    H16  401   9.927   0.515   8.401 -1.2287 -0.3939  0.3369
   14bbb     C9  402  10.514   0.796   8.231 -0.9329  0.3606 -0.2611
   14bbb    H17  403  10.583   0.728   8.180  0.7576  2.1634 -0.4709
   14bbb    H18  404  10.518   0.751   8.332 -1.2552 -0.7498 -0.7309
   14bbb     O1  405  10.113   0.818   7.657  0.2122 -0.3291  0.2297
   15bbb     N1  406   9.185   2.247   8.515  0.6463 -0.3717 -0.0427
   15bbb     C1  407   9.223   2.188   8.389  0.4815 -0.1837 -0.2704
   15bbb     H1  408   9.161   2.100   8.374 -0.4512  0.2799  0.7210
   15bbb     H2  409   9.325   2.147   8.389  1.0461  1.1381 -0.6227
   15bbb     C2  410   9.269   2.209   8.633 -0.3806 -0.5527 -0.0274
   15bbb     H3  411   9.252   2.103   8.657  0.1451 -0.6581 -0.0981
   15bbb     H4  412   9.239   2.275   8.715 -1.9335  0.8464 -1.6374
   15bbb     C3  413   9.040   2.238   8.542 -0.2453 -0.9086 -0.5971
   15bbb     H5  414   9.014   2.142   8.589 -1.8819 -0.9313 -1.5034
   15bbb     H6  415   8.983   2.245   8.449 -2.3515  2.3686  0.7745
   15bbb     C4  416   8.999   2.356   8.634  0.2778 -0.2638  0.0094
   15bbb     H7  417   9.006   2.458   8.593  0.3230  0.0137  0.6934
   15bbb     H8  418   9.057   2.364   8.726 -0.2243  1.7186  0.2016
   15bbb     C5  419   9.198   2.280   8.269  0.0828 -0.3667  0.3916
   15bbb     H9  420   9.268   2.365   8.273 -0.3098 -0.0482  0.5756
   15bbb    H10  421   9.098   2.323   8.283  0.8692  1.3295  1.1854
   15bbb     C6  422   9.425   2.219   8.609  0.3420  0.8957  0.0420
   15bbb    H11  423   9.462   2.283   8.690 -1.0569  0.6138  0.9323
   15bbb    H12  424   9.441   2.261   8.508 -0.2984 -1.8803 -1.3019
   15bbb     C7  425   8.852   2.328   8.672  0.2676  0.0043  0.4102
   15bbb    H13  426   8.810   2.403   8.741 -2.1584  1.7371 -2.6554
   15bbb    H14  427   8.836   2.226   8.708 -0.6361 -0.1196 -0.3051
   15bbb     C8  428   9.498   2.089   8.620 -0.4461 -0.6375  0.1602
   15bbb    H15  429   9.462   2.020   8.543 -0.9641  0.8095 -0.9207
   15bbb    H16  430   9.468   2.047   8.717 -1.0680  1.0681  0.7459
   15bbb     C9  431   9.216   2.205   8.136  0.2289  0.1635 -0.6129
   15bbb    H17  432   9.164   2.110   8.155  0.7533  0.0294  0.1503
   15bbb    H18  433   9.320   2.178   8.116 -0.0876 -0.6483 -1.2835
   15bbb     O1  434   8.779   2.346   8.551 -0.0901 -0.1059  0.0386
   16bbb     N1  435   8.577   1.803   7.482  0.0821  0.3742  0.2765
   16bbb     C1  436   8.471   1.907   7.458  0.1731 -0.1402  0.1675
   16bbb     H1  437   8.440   1.910   7.353  1.2335 -2.3418 -0.2779
   16bbb     H2  438   8.520   2.003   7.476 -1.4991  1.1179 -1.5688
   16bbb     C2  439   8.663   1.800   7.363 -0.2667  0.6061  0.4934
   16bbb     H3  440   8.728   1.886   7.342 -1.1642  0.8720 -1.4273
   16bbb     H4  441   8.598   1.802   7.274  0.8403 -0.4966 -0.3679
   16bbb     C3  442   8.635   1.795   7.622 -0.0160  0.4115  0.0539
   16bbb     H5  443   8.714   1.718   7.624 -0.6053 -0.1895  1.0521
   16bbb     H6  444   8.559   1.763   7.694 -0.1631  0.8160  0.0791
   16bbb     C4  445   8.710   1.919   7.670  0.1509  0.4167 -0.6007
   16bbb     H7  446   8.635   1.998   7.677 -1.1921 -0.9793  1.7128
   16bbb     H8  447   8.796   1.945   7.607  1.0741 -1.7964 -0.3711
   16bbb     C5  448   8.342   1.884   7.541  0.3676  0.4517  0.7952
   16bbb     H9  449   8.363   1.804   7.613 -1.4443 -0.8040  0.0037
   16bbb    H10  450   8.274   1.834   7.471  1.5643 -0.7025  0.4186
   16bbb     C6  451   8.749   1.673   7.351  0.1227  0.2031  0.5360
   16bbb    H11  452   8.814   1.670   7.439 -1.9942  3.3110  2.4210
   16bbb    H12  453   8.820   1.677   7.267  2.8596 -0.8664  2.6643
   16bbb     C7  454   8.765   1.874   7.806  0.3715  0.6644  0.4056
   16bbb    H13  455   8.858   1.818   7.791 -1.5768 -2.4849 -0.7674
   16bbb    H14  456   8.687   1.821   7.862  0.1478 -0.7206 -1.1343
   16bbb     C8  457   8.652   1.551   7.331 -0.0804  0.9210 -0.3057
   16bbb    H15  458   8.585   1.572   7.247  0.7011  0.2585 -1.1131
   16bbb    H16  459   8.593   1.543   7.423  1.8255 -2.3395  0.8038
   16bbb     C9  460   8.272   2.004   7.605 -0.3836 -0.0541  0.0039
   16bbb    H17  461   8.197   1.979   7.681 -1.2356  1.2117 -0.3850
   16bbb    H18  462   8.212   2.052   7.526  0.7680  0.0916 -0.8113
   16bbb     O1  463   8.797   2.005   7.874  0.0710 -0.6440 -0.5104
   17bbb     N1  464   8.460   1.618   6.551 -0.3632  0.3161  0.1636
   17bbb     C1  465   8.316   1.584   6.548  0.0257  0.1130  0.0434
   17bbb     H1  466   8.264   1.631   6.464  2.2078  0.5222 -1.1299
   17bbb     H2  467   8.266   1.632   6.633 -1.5090  0.4776 -1.0218
   17bbb     C2  468   8.544   1.542   6.459 -0.4122 -0.7314 -0.1935
   17bbb     H3  469   8.508   1.558   6.357 -0.5288  1.7001  0.1842
   17bbb     H4  470   8.543   1.433   6.472  0.7941 -0.8263 -0.7984
   17bbb     C3  471   8.487   1.764   6.559  0.7400  0.5620  0.0422
   17bbb     H5  472   8.581   1.773   6.614  1.7576 -0.7803 -1.4099
   17bbb     H6  473   8.412   1.800   6.631  2.0536 -0.5370  2.0623
   17bbb     C4  474   8.491   1.846   6.423 -0.1730 -0.0067 -0.3354
   17bbb     H7  475   8.390   1.852   6.382  0.0008  0.4728 -0.7024
   17bbb     H8  476   8.563   1.795   6.358 -0.4363 -1.1213  0.2228
   17bbb     C5  477   8.287   1.429   6.545 -0.4082 -0.4258  0.1459
   17bbb     H9  478   8.341   1.368   6.618 -2.1979 -1.2058  0.8910
   17bbb    H10  479   8.313   1.393   6.445  1.4553  0.4398  0.2829
   17bbb     C6  480   8.694   1.580   6.457  0.2638  0.5616 -0.0591
   17bbb    H11  481   8.711   1.559   6.564 -1.5890 -1.2595 -0.0434
   17bbb    H12  482   8.717   1.684   6.431 -0.4631  0.6754 -0.2834
   17bbb     C7  483   8.526   1.994   6.460 -0.4732  0.0189  0.9757
   17bbb    H13  484   8.446   2.038   6.521 -2.4216  0.6858 -1.8393
   17bbb    H14  485   8.540   2.049   6.366  2.2678  0.2279  1.4362
   17bbb     C8  486   8.781   1.476   6.366 -0.7996 -0.8761  0.3377
   17bbb    H15  487   8.744   1.375   6.388  0.2851 -1.4827 -0.5379
   17bbb    H16  488   8.886   1.488   6.395  0.2293  0.1814 -3.3596
   17bbb     C9  489   8.133   1.391   6.575  0.3504 -0.1110  0.0626
   17bbb    H17  490   8.065   1.446   6.509 -1.3965  0.4631  2.2129
   17bbb    H18  491   8.111   1.428   6.676 -0.4197  0.6976 -0.3842
   17bbb     O1  492   8.652   1.993   6.523 -0.0641 -0.2945  0.0421
   18bbb     N1  493   8.824   1.671   6.874 -0.2228  0.7187  0.4167
   18bbb     C1  494   8.781   1.774   6.960  0.3247 -0.2912  0.4267
   18bbb     H1  495   8.869   1.825   7.000  1.6662 -1.6921 -0.6202
   18bbb     H2  496   8.722   1.736   7.045  0.1134  1.3376  1.0342
   18bbb     C2  497   8.709   1.587   6.829 -0.3258 -0.0712  0.0284
   18bbb     H3  498   8.755   1.511   6.764  2.6091 -0.2029  2.0473
   18bbb     H4  499   8.644   1.650   6.767  0.3111  0.4781 -0.0942
   18bbb     C3  500   8.918   1.699   6.760 -0.3181  0.5411 -0.0569
   18bbb     H5  501   8.869   1.751   6.677 -1.2352  1.7388  1.2049
   18bbb     H6  502   8.957   1.602   6.727  0.0527  0.7579 -0.2728
   18bbb     C4  503   9.056   1.757   6.802 -0.1605 -0.1693 -0.2511
   18bbb     H7  504   9.105   1.672   6.851 -0.6954 -0.4295 -0.1543
   18bbb     H8  505   9.038   1.832   6.879  1.6795  1.0838 -0.9635
   18bbb     C5  506   8.704   1.898   6.898 -0.2319  0.3126  0.4181
   18bbb     H9  507   8.606   1.869   6.859 -1.3170  0.3949  2.9132
   18bbb    H10  508   8.766   1.930   6.813  2.0205  0.3607  1.9769
   18bbb     C6  509   8.635   1.501   6.938  0.1892  0.1575 -0.3363
   18bbb    H11  510   8.593   1.565   7.017 -0.2565 -2.4032  1.6560
   18bbb    H12  511   8.713   1.445   6.990  0.3946  1.1302  0.4363
   18bbb     C7  512   9.138   1.812   6.685  0.1134 -0.1523 -0.3103
   18bbb    H13  513   9.074   1.864   6.613  0.9434  1.8494  0.3540
   18bbb    H14  514   9.190   1.724   6.644 -1.8132 -1.2775 -0.4452
   18bbb     C8  515   8.524   1.414   6.881  0.6003  0.0348  0.1647
   18bbb    H15  516   8.579   1.354   6.807  0.7625  1.5402 -0.9838
   18bbb    H16  517   8.452   1.482   6.834 -0.4610 -0.5805  0.8577
   18bbb     C9  518   8.691   2.024   6.986 -0.0053 -0.1924 -0.4735
   18bbb    H17  519   8.791   2.068   6.991  0.4538 -1.2437  0.0039
   18bbb    H18  520   8.659   2.006   7.090 -1.5750  3.0523 -0.2936
   18bbb     O1  521   9.234   1.915   6.727  1.2398 -0.0083 -0.0371
   19bbb     N1  522   9.535   1.731   8.365  0.0185  0.0475  0.2821
   19bbb     C1  523   9.456   1.853   8.339 -0.3207  0.3758 -0.5121
   19bbb     H1  524   9.507   1.947   8.362  0.2873  0.0040 -0.2975
   19bbb     H2  525   9.367   1.852   8.403 -0.6297  0.9532 -0.9304
   19bbb     C2  526   9.557   1.699   8.513 -0.3460  0.1472 -0.2642
   19bbb     H3  527   9.497   1.762   8.580 -0.1131 -0.3703  0.4431
   19bbb     H4  528   9.664   1.714   8.532  0.3590 -4.0858  0.0194
   19bbb     C3  529   9.642   1.686   8.278  0.1518 -0.1788 -0.4180
   19bbb     H5  530   9.604   1.660   8.178 -0.7901  1.9957 -0.6873
   19bbb     H6  531   9.680   1.592   8.319 -0.3995  0.8398  2.6691
   19bbb     C4  532   9.764   1.777   8.274  0.1217  0.2708  0.4484
   19bbb     H7  533   9.801   1.797   8.375 -0.8228  0.2077  0.8148
   19bbb     H8  534   9.731   1.873   8.231  0.4961  0.3692  0.3705
   19bbb     C5  535   9.421   1.875   8.193  0.1920 -0.3045  0.5315
   19bbb     H9  536   9.517   1.876   8.139  1.0134 -2.8084  1.7858
   19bbb    H10  537   9.367   1.970   8.190 -0.9484 -0.9459 -0.1250
   19bbb     C6  538   9.521   1.553   8.546  0.3985 -0.4455 -0.3062
   19bbb    H11  539   9.582   1.483   8.488  0.9721 -2.6514  2.7428
   19bbb    H12  540   9.423   1.533   8.499 -0.1100  0.5824  0.2813
   19bbb     C7  541   9.878   1.720   8.185 -0.3758 -0.2165  0.1799
   19bbb    H13  542   9.903   1.620   8.223  1.8461  0.2575  0.0972
   19bbb    H14  543   9.969   1.781   8.187  0.5853 -1.6141  1.2284
   19bbb     C8  544   9.522   1.513   8.690 -0.1101  0.3622 -1.0990
   19bbb    H15  545   9.513   1.404   8.700  0.0177  0.5358  1.4711
   19bbb    H16  546   9.433   1.559   8.734  0.4202 -0.5356  1.0384
   19bbb     C9  547   9.324   1.773   8.130 -0.8525  0.1154  0.4620
   19bbb    H17  548   9.332   1.678   8.184  0.0319  1.1813  2.3120
   19bbb    H18  549   9.337   1.744   8.025  1.6854 -0.9179  0.9948
   19bbb     O1  550   9.823   1.733   8.051 -0.3145  0.3473  0.1772
   20bbb     N1  551   9.823   1.161   8.386 -0.1455  0.7970 -0.1138
   20bbb     C1  552   9.906   1.260   8.455  0.0622 -1.1788 -0.7544
   20bbb     H1  553  10.013   1.237   8.449  0.5170  0.4911  0.3068
   20bbb     H2  554   9.875   1.247   8.559  0.8175  0.9262 -0.2233
   20bbb     C2  555   9.681   1.181   8.398  0.3211 -0.4166  0.1866
   20bbb     H3  556   9.631   1.111   8.329 -0.9472  0.7577 -0.1155
   20bbb     H4  557   9.661   1.287   8.378  3.3760  0.2407  0.0931
   20bbb     C3  558   9.870   1.138   8.248  0.1143 -0.1192  0.3264
   20bbb     H5  559   9.907   1.237   8.219 -0.2170  0.7554  2.6470
   20bbb     H6  560   9.792   1.090   8.187  0.6859 -2.0352  1.0186
   20bbb     C4  561   9.996   1.048   8.237 -0.9612  0.0929  0.2239
   20bbb     H7  562   9.970   0.948   8.274  1.3205 -1.6227 -2.3434
   20bbb     H8  563  10.077   1.094   8.295 -1.0537 -1.2902  1.5007
   20bbb     C5  564   9.884   1.411   8.416 -0.5883 -1.1588  0.8591
   20bbb     H9  565   9.786   1.427   8.369  0.2773  0.3591 -0.5111
   20bbb    H10  566   9.954   1.425   8.332 -1.7142  1.5234  0.2715
   20bbb     C6  567   9.636   1.144   8.545 -0.6131 -0.4469  0.6813
   20bbb    H11  568   9.660   1.213   8.627 -1.4698 -2.3654  2.6377
   20bbb    H12  569   9.691   1.059   8.588 -1.8147 -0.5995  1.9825
   20bbb     C7  570  10.050   1.024   8.095 -0.4057  0.0386  0.2382
   20bbb    H13  571   9.981   0.962   8.037 -0.4352 -1.8747  2.1770
   20bbb    H14  572  10.144   0.969   8.098 -0.1124  0.5084 -0.2388
   20bbb     C8  573   9.479   1.118   8.546 -0.1965  0.3429 -0.8092
   20bbb    H15  574   9.458   1.016   8.512 -1.9528  0.1805  0.6294
   20bbb    H16  575   9.428   1.189   8.479 -0.6120 -1.6211 -2.6666
   20bbb     C9  576   9.908   1.520   8.527 -0.2562 -0.6712 -0.7611
   20bbb    H17  577   9.836   1.510   8.610  0.6843  0.6892  0.2576
   20bbb    H18  578   9.889   1.621   8.488 -0.8064 -0.6820 -0.5348
   20bbb     O1  579  10.068   1.158   8.031  0.0103 -0.5252  0.0166
   21bbb     N1  580   9.230   1.202   8.120  0.3680 -0.2195  0.3837
   21bbb     C1  581   9.374   1.250   8.116 -0.1654  0.0657 -0.2148
   21bbb     H1  582   9.422   1.185   8.041 -2.2156 -0.8133 -0.8471
   21bbb     H2  583   9.429   1.217   8.205 -1.8702 -0.7150  0.5958
   21bbb     C2  584   9.144   1.292   8.195  0.1736  0.6553 -0.2943
   21bbb     H3  585   9.194   1.390   8.199 -2.1271  1.9341 -0.9556
   21bbb     H4  586   9.147   1.248   8.295  1.6525 -1.1795 -1.0864
   21bbb     C3  587   9.197   1.063   8.134  1.3161  0.1174 -0.0640
   21bbb     H5  588   9.135   1.029   8.050  0.6188  0.0872  0.4464
   21bbb     H6  589   9.136   1.050   8.225 -3.3416  0.1997 -2.8720
   21bbb     C4  590   9.310   0.964   8.155 -0.8549  0.2072  0.2235
   21bbb     H7  591   9.362   1.000   8.245  0.3788  0.5641 -0.6036
   21bbb     H8  592   9.377   0.969   8.068 -0.4489  1.1375  0.5807
   21bbb     C5  593   9.416   1.393   8.076 -0.0878  0.1978 -0.2969
   21bbb     H9  594   9.524   1.375   8.063 -0.0934 -4.0530  3.2376
   21bbb    H10  595   9.392   1.466   8.154 -2.3933 -0.5062 -0.2859
   21bbb     C6  596   8.997   1.308   8.136 -0.6694 -0.4733 -0.0119
   21bbb    H11  597   9.016   1.323   8.029  1.4304 -0.7474  0.2697
   21bbb    H12  598   8.953   1.401   8.174  3.9650  1.8142  0.4070
   21bbb     C7  599   9.267   0.815   8.149 -0.0681  0.4197  0.2841
   21bbb    H13  600   9.257   0.797   8.042  1.1103  1.9143 -0.1154
   21bbb    H14  601   9.180   0.787   8.210  0.6144 -1.8594  0.3266
   21bbb     C8  602   8.889   1.200   8.158  0.4756 -0.0770  0.5892
   21bbb    H15  603   8.844   1.205   8.258 -0.6125 -3.5609  0.4085
   21bbb    H16  604   8.935   1.101   8.147 -0.3960 -0.5766  1.3028
   21bbb     C9  605   9.361   1.437   7.939 -0.1652 -0.4185  0.0898
   21bbb    H17  606   9.251   1.437   7.940 -0.1862  1.0986 -0.0634
   21bbb    H18  607   9.378   1.364   7.859 -1.4917 -2.7652  1.8399
   21bbb     O1  608   9.376   0.732   8.193  0.2268 -0.5487 -0.5084
   22bbb     N1  609   8.873   0.670   8.048  0.6184  0.9826  0.5755
   22bbb     C1  610   8.802   0.746   8.146  0.1106 -0.0587  0.2972
   22bbb     H1  611   8.738   0.681   8.207 -1.1664 -0.6721 -1.6343
   22bbb     H2  612   8.730   0.820   8.111  0.0114  1.5160  3.4715
   22bbb     C2  613   8.930   0.534   8.093  0.3053  0.1287 -0.3873
   22bbb     H3  614   9.024   0.546   8.147  0.3279 -1.7016  0.0322
   22bbb     H4  615   8.962   0.483   8.001  0.2629 -1.5103  0.4636
   22bbb     C3  616   8.954   0.743   7.950  0.8335 -0.0241  0.2466
   22bbb     H5  617   8.990   0.673   7.873  3.3292  0.2797  1.0278
   22bbb     H6  618   9.041   0.782   8.005  0.9213 -0.5516  0.4943
   22bbb     C4  619   8.889   0.873   7.895 -0.9803  0.0207  0.2633
   22bbb     H7  620   8.909   0.959   7.961 -0.5727  0.1116  0.0294
   22bbb     H8  621   8.783   0.862   7.872 -0.3983 -0.3682 -2.6227
   22bbb     C5  622   8.893   0.815   8.246  0.1840 -0.6367 -0.2001
   22bbb     H9  623   8.962   0.886   8.199  0.0778 -0.2079  0.2828
   22bbb    H10  624   8.949   0.732   8.292  2.5649  1.5480  1.1085
   22bbb     C6  625   8.836   0.444   8.177  0.0706  0.3293 -0.1828
   22bbb    H11  626   8.752   0.433   8.107  0.9329 -1.1304 -1.0200
   22bbb    H12  627   8.805   0.487   8.273  0.4802 -0.9412  0.5464
   22bbb     C7  628   8.955   0.903   7.759 -0.0398 -0.8455 -0.6831
   22bbb    H13  629   8.933   1.003   7.718  2.1791  0.2805  0.6621
   22bbb    H14  630   8.936   0.830   7.679  0.9622 -2.4248  0.4723
   22bbb     C8  631   8.893   0.300   8.205 -0.3191  0.1656  0.1932
   22bbb    H15  632   8.933   0.263   8.110  2.2948  2.5375  0.2599
   22bbb    H16  633   8.822   0.232   8.255  0.7228 -0.0301  1.4436
   22bbb     C9  634   8.804   0.884   8.346  0.5698 -0.8137 -0.4006
   22bbb    H17  635   8.744   0.812   8.403  0.9130  0.1720  1.2893
   22bbb    H18  636   8.733   0.948   8.293 -0.9006 -2.5401 -0.5935
   22bbb     O1  637   9.096   0.903   7.781  0.1801 -0.3412  0.1364
   23bbb     N1  638   8.052   1.953   6.628 -0.0658 -0.3404  0.3094
   23bbb     C1  639   8.162   1.939   6.727 -0.4303  0.6516 -0.0363
   23bbb     H1  640   8.178   2.032   6.783 -1.9710  1.5711 -1.0562
   23bbb     H2  641   8.262   1.918   6.686 -0.0437  1.6400  0.3700
   23bbb     C2  642   7.917   1.980   6.686 -0.0888  0.1809 -0.0949
   23bbb     H3  643   7.871   1.886   6.718  0.0918  0.3994  0.8433
   23bbb     H4  644   7.857   2.026   6.607 -2.1750 -0.1947  1.1935
   23bbb     C3  645   8.059   1.861   6.503 -0.2778  0.1304  0.0898
   23bbb     H5  646   8.072   1.757   6.535  1.1602  0.3581  0.3303
   23bbb     H6  647   8.147   1.882   6.442  0.5822 -1.8002  0.5924
   23bbb     C4  648   7.940   1.865   6.404  0.3147  0.1394  0.1092
   23bbb     H7  649   7.931   1.956   6.343  0.7454  0.0725 -0.0630
   23bbb     H8  650   7.843   1.864   6.455 -0.8265 -1.6318 -1.9380
   23bbb     C5  651   8.146   1.824   6.828  0.0080 -0.0776  0.1525
   23bbb     H9  652   8.110   1.737   6.772  2.1512 -0.8364 -0.1416
   23bbb    H10  653   8.060   1.842   6.894  1.4949 -0.4763  2.3133
   23bbb     C6  654   7.904   2.078   6.801  0.5974 -0.2537  0.0772
   23bbb    H11  655   7.932   2.176   6.760  0.9279 -0.2581  0.2887
   23bbb    H12  656   7.960   2.054   6.892 -2.6024 -0.5735  2.1371
   23bbb     C7  657   7.953   1.741   6.304  0.5463  0.2705 -0.1897
   23bbb    H13  658   7.876   1.740   6.226  0.8701  1.2448 -0.5315
   23bbb    H14  659   7.946   1.643   6.353 -2.2617 -0.8508 -2.5413
   23bbb     C8  660   7.755   2.096   6.849 -0.1186 -0.4850 -0.0276
   23bbb    H15  661   7.712   2.000   6.879 -2.0443  0.9114  2.0217
   23bbb    H16  662   7.693   2.136   6.769 -0.4744 -0.8967  0.0367
   23bbb     C9  663   8.260   1.798   6.931  0.6425 -0.0522  0.0541
   23bbb    H17  664   8.288   1.894   6.977  1.0146 -0.0882 -0.0965
   23bbb    H18  665   8.349   1.757   6.881  0.6348  1.6776 -1.4926
   23bbb     O1  666   8.086   1.746   6.242  0.4823 -0.3238 -0.2246
   24bbb     N1  667   8.951   1.411   5.712  0.4577 -0.3298  0.3226
   24bbb     C1  668   9.000   1.545   5.671 -0.3641  0.6880 -0.1246
   24bbb     H1  669   8.946   1.573   5.580 -0.2917  1.3564  0.0351
   24bbb     H2  670   9.102   1.547   5.630  0.2176  2.7527  1.2571
   24bbb     C2  671   9.025   1.351   5.827  0.0298 -0.8265  0.5279
   24bbb     H3  672   8.995   1.382   5.928  1.0051 -0.1076  0.6137
   24bbb     H4  673   9.124   1.395   5.809 -0.2908 -1.1077 -2.4145
   24bbb     C3  674   8.802   1.383   5.724  0.0054  0.1010 -0.3824
   24bbb     H5  675   8.757   1.454   5.794 -0.0170 -0.0179 -0.2757
   24bbb     H6  676   8.786   1.282   5.764  1.0807 -0.6942 -1.8417
   24bbb     C4  677   8.728   1.395   5.587 -0.3449  0.3585 -0.3205
   24bbb     H7  678   8.740   1.299   5.535 -0.0600  0.4494 -0.4209
   24bbb     H8  679   8.777   1.470   5.524  0.3223  1.4353  1.4300
   24bbb     C5  680   8.988   1.660   5.774  0.0690 -0.5258  0.1743
   24bbb     H9  681   9.067   1.628   5.843  0.4000  0.6310  0.3640
   24bbb    H10  682   8.893   1.659   5.829  0.4138  1.6640  0.9284
   24bbb     C6  683   9.027   1.195   5.827 -0.8924 -0.3553 -0.5646
   24bbb    H11  684   9.108   1.150   5.768  0.7951 -1.9780  2.7054
   24bbb    H12  685   8.932   1.162   5.784 -1.0552 -0.5393 -0.0756
   24bbb     C7  686   8.581   1.420   5.607  0.1501 -0.5855 -0.1673
   24bbb    H13  687   8.523   1.402   5.516 -0.3207 -0.8256  0.1739
   24bbb    H14  688   8.570   1.527   5.628 -2.2523 -0.8947  0.3477
   24bbb     C8  689   9.057   1.135   5.971 -0.2890  0.5437  0.0878
   24bbb    H15  690   9.061   1.025   5.965 -1.2012  0.3979  1.7239
   24bbb    H16  691   8.972   1.174   6.027 -0.2185  0.6748  0.1036
   24bbb     C9  692   9.021   1.800   5.718  0.1332 -0.6599 -0.6953
   24bbb    H17  693   8.940   1.829   5.651 -0.2845  1.1497  0.5369
   24bbb    H18  694   9.121   1.805   5.673 -0.1008 -0.9637 -1.2497
   24bbb     O1  695   8.540   1.337   5.722  0.4925 -0.1193 -0.1798
   25bbb     N1  696   9.446   0.811   6.732 -0.1926 -0.3135  0.5242
   25bbb     C1  697   9.479   0.908   6.839  0.0875 -0.3919 -0.2601
   25bbb     H1  698   9.495   1.005   6.789 -0.2449  0.3642  1.0625
   25bbb     H2  699   9.572   0.879   6.890 -1.4174 -0.3433  2.6771
   25bbb     C2  700   9.570   0.783   6.651 -0.4240 -0.2035  0.4988
   25bbb     H3  701   9.557   0.705   6.575 -2.8679  1.2120 -0.6851
   25bbb     H4  702   9.648   0.751   6.721  1.3831  4.2175  0.8209
   25bbb     C3  703   9.379   0.688   6.777  0.1526 -0.3207 -0.2483
   25bbb     H5  704   9.289   0.713   6.836  1.0162 -0.2503  1.0932
   25bbb     H6  705   9.438   0.639   6.855  1.6813  2.1136  0.2489
   25bbb     C4  706   9.340   0.585   6.670  0.2612 -0.1611 -0.1474
   25bbb     H7  707   9.276   0.506   6.713 -3.0734  1.5201 -1.6399
   25bbb     H8  708   9.424   0.525   6.634  1.5616  1.9324 -0.7281
   25bbb     C5  709   9.373   0.943   6.954 -0.0461  0.3482 -0.0885
   25bbb     H9  710   9.363   0.856   7.019 -1.6554 -0.8720 -1.8645
   25bbb    H10  711   9.274   0.945   6.906 -0.6634 -1.5374  1.0250
   25bbb     C6  712   9.619   0.909   6.569 -0.0607 -0.4567  0.0210
   25bbb    H11  713   9.704   0.885   6.505 -1.5541  1.2596 -2.8089
   25bbb    H12  714   9.643   0.995   6.633 -1.1283 -0.6007  0.6358
   25bbb     C7  715   9.241   0.636   6.561  0.1974 -0.5541 -0.0413
   25bbb    H13  716   9.217   0.541   6.512  1.2264 -0.8111 -0.0875
   25bbb    H14  717   9.299   0.699   6.493  2.6680 -1.6438  0.9311
   25bbb     C8  718   9.526   0.964   6.457  0.0811 -0.9568  0.2949
   25bbb    H15  719   9.429   0.992   6.501  0.6866  2.2457 -0.1593
   25bbb    H16  720   9.510   0.887   6.381  0.3038 -0.5039 -0.2143
   25bbb     C9  721   9.399   1.072   7.030 -0.6531 -0.1805 -0.8182
   25bbb    H17  722   9.496   1.067   7.080 -0.1844 -0.6875 -1.7503
   25bbb    H18  723   9.327   1.087   7.112 -0.7883  0.5438 -1.0697
   25bbb     O1  724   9.134   0.707   6.622  0.1625 -0.0802  0.0684
   26bbb     N1  725   8.253   0.728   6.802 -0.0464  0.0750 -0.2319
   26bbb     C1  726   8.230   0.718   6.949  0.0496  0.4120 -0.0406
   26bbb     H1  727   8.127   0.750   6.972  0.1417  1.6024 -1.2228
   26bbb     H2  728   8.285   0.800   6.996 -0.8226  0.6828  0.5422
   26bbb     C2  729   8.166   0.632   6.729 -0.3376  0.4407 -0.4891
   26bbb     H3  730   8.184   0.527   6.753  1.1183  1.0908  1.5236
   26bbb     H4  731   8.195   0.641   6.623 -0.8254 -2.8803 -1.0194
   26bbb     C3  732   8.251   0.877   6.762  0.0207  0.7956  1.1577
   26bbb     H5  733   8.309   0.938   6.834 -0.6039  1.8239  0.8045
   26bbb     H6  734   8.150   0.918   6.768 -1.2875 -2.2643  1.4166
   26bbb     C4  735   8.294   0.894   6.616  0.0057 -0.0576  0.9477
   26bbb     H7  736   8.207   0.873   6.551 -1.5758  3.0861  1.8522
   26bbb     H8  737   8.368   0.821   6.581  0.2402 -0.2823  1.9050
   26bbb     C5  738   8.262   0.580   7.006  0.0306  0.0104 -0.4136
   26bbb     H9  739   8.371   0.571   7.012  0.2076  1.7862 -0.2292
   26bbb    H10  740   8.220   0.503   6.940 -2.0693  0.3292  0.4878
   26bbb     C6  741   8.016   0.658   6.728 -0.7174 -0.2394 -0.5181
   26bbb    H11  742   7.992   0.764   6.745  0.1264  0.0093 -0.8212
   26bbb    H12  743   7.985   0.604   6.819  2.5096 -1.2291  0.1338
   26bbb     C7  744   8.349   1.033   6.590  0.3241  0.0817 -0.4841
   26bbb    H13  745   8.305   1.114   6.650  0.6856  0.3560 -0.5882
   26bbb    H14  746   8.328   1.047   6.483  0.9813 -1.3869 -0.8234
   26bbb     C8  747   7.945   0.604   6.608  0.2060  0.0094  0.0555
   26bbb    H15  748   7.842   0.593   6.644  0.0657  1.0279  0.0022
   26bbb    H16  749   7.977   0.502   6.584  0.0260 -0.1387  0.4357
   26bbb     C9  750   8.205   0.563   7.149  0.3297  0.0721  0.0094
   26bbb    H17  751   8.197   0.456   7.175  0.3345  0.0872  0.0709
   26bbb    H18  752   8.101   0.596   7.152 -0.5737 -2.1230 -2.4120
   26bbb     O1  753   8.487   1.028   6.596 -0.6747  0.2249 -0.3194
   27bbb     N1  754  10.096   2.181   7.750 -0.3076 -0.4344  0.2200
   27bbb     C1  755   9.964   2.253   7.734  0.2482 -0.4860 -0.6828
   27bbb     H1  756   9.886   2.191   7.780  1.7959 -0.4655  2.1713
   27bbb     H2  757   9.943   2.240   7.627  0.0653 -0.8968 -0.6002
   27bbb     C2  758  10.170   2.232   7.872 -0.4793  0.3028 -0.3342
   27bbb     H3  759  10.171   2.342   7.872 -0.3961  0.4188  2.9382
   27bbb     H4  760  10.273   2.194   7.870 -1.0077 -1.1746 -0.9078
   27bbb     C3  761  10.104   2.035   7.715  0.4925 -0.3711 -0.4105
   27bbb     H5  762  10.062   2.026   7.614 -1.6319 -1.9694  0.5533
   27bbb     H6  763  10.042   1.975   7.782 -0.0651 -0.6936 -1.2112
   27bbb     C4  764  10.245   1.967   7.718  1.0768 -0.3002  0.9230
   27bbb     H7  765  10.291   1.985   7.816  0.9717 -0.1267  0.9400
   27bbb     H8  766  10.305   2.012   7.638 -3.5310  4.0972 -0.5659
   27bbb     C5  767   9.943   2.405   7.758  0.0190  0.0659 -0.6553
   27bbb     H9  768  10.034   2.457   7.725 -1.0288  0.7879 -2.5355
   27bbb    H10  769   9.933   2.410   7.867 -3.2539 -0.4733 -0.8143
   27bbb     C6  770  10.103   2.190   8.006  0.4682  0.3743  0.1267
   27bbb    H11  771  10.116   2.081   8.008 -1.9896 -0.0419 -1.9518
   27bbb    H12  772   9.995   2.209   8.009  0.7212  2.0875 -0.4668
   27bbb     C7  773  10.230   1.822   7.695 -0.1140 -0.1220 -0.4190
   27bbb    H13  774  10.186   1.796   7.598  0.0021 -1.5277 -0.1159
   27bbb    H14  775  10.163   1.785   7.774 -0.5200 -0.7758 -1.0530
   27bbb     C8  776  10.177   2.259   8.123 -0.0171 -0.8755  0.1757
   27bbb    H15  777  10.281   2.227   8.136  0.7526  1.7053  0.8791
   27bbb    H16  778  10.125   2.232   8.216 -2.8678 -3.5925 -1.9525
   27bbb     C9  779   9.823   2.488   7.699  0.5127 -0.3604  0.2202
   27bbb    H17  780   9.833   2.486   7.590 -1.1380  0.2494  0.0291
   27bbb    H18  781   9.833   2.594   7.728  1.1746  0.1908 -1.8725
   27bbb     O1  782  10.366   1.762   7.704  0.0858  0.0370 -0.3454
   28bbb     N1  783  10.835   1.625   8.566  0.0845  0.3593 -0.1247
   28bbb     C1  784  10.951   1.712   8.596 -0.5962 -0.7349 -0.0810
   28bbb     H1  785  10.977   1.771   8.508 -3.1744  0.3152 -0.1933
   28bbb     H2  786  11.033   1.643   8.624 -0.8371 -0.4296  1.4491
   28bbb     C2  787  10.780   1.539   8.678  1.2205 -0.7142 -0.2021
   28bbb     H3  788  10.696   1.482   8.638  0.5752  0.6849 -0.9128
   28bbb     H4  789  10.746   1.608   8.756  0.2764 -0.3771 -0.8948
   28bbb     C3  790  10.716   1.700   8.520  0.2428 -0.4165  0.1825
   28bbb     H5  791  10.660   1.751   8.599  2.6169  1.0957  1.0313
   28bbb     H6  792  10.645   1.627   8.481  0.7004 -0.4687 -0.5861
   28bbb     C4  793  10.745   1.802   8.405 -0.5151  0.1069 -0.9232
   28bbb     H7  794  10.795   1.889   8.448 -0.1959  0.0362 -1.1485
   28bbb     H8  795  10.657   1.853   8.362 -0.0506  0.1240 -1.8840
   28bbb     C5  796  10.934   1.812   8.712  0.5128 -0.2227 -0.1987
   28bbb     H9  797  10.920   1.753   8.804  1.3728 -0.0040  0.0839
   28bbb    H10  798  10.845   1.873   8.692  0.5173 -0.9001 -2.6481
   28bbb     C6  799  10.885   1.449   8.747 -0.1937 -0.2291 -0.3459
   28bbb    H11  800  10.938   1.512   8.819  0.8088  1.7252 -2.6355
   28bbb    H12  801  10.960   1.426   8.670  0.4990  1.3030 -0.1588
   28bbb     C7  802  10.815   1.746   8.283 -0.5712  0.0879 -0.1711
   28bbb    H13  803  10.905   1.694   8.320  0.2646 -0.7219 -3.1099
   28bbb    H14  804  10.847   1.824   8.213 -0.0144  0.3137  0.3284
   28bbb     C8  805  10.827   1.316   8.805  0.0491 -0.3997 -0.1839
   28bbb    H15  806  10.902   1.248   8.847 -0.9340 -2.0945 -1.0603
   28bbb    H16  807  10.784   1.259   8.722  0.9244  1.5437 -2.0791
   28bbb     C9  808  11.067   1.902   8.720 -0.0223  0.1872  1.4211
   28bbb    H17  809  11.067   1.960   8.814  0.7219  1.1699  0.8283
   28bbb    H18  810  11.159   1.843   8.712 -0.3253 -0.0891 -0.3730
   28bbb     O1  811  10.742   1.640   8.223  0.4708 -0.4607 -0.3640
   29bbb     N1  812   9.451   0.668   8.602 -0.2915 -0.0888 -0.0876
   29bbb     C1  813   9.474   0.661   8.751  0.2355 -0.6361  0.2239
   29bbb     H1  814   9.573   0.626   8.782  0.9211 -0.4300 -1.5738
   29bbb     H2  815   9.390   0.608   8.798  1.1179 -1.0510  1.3800
   29bbb     C2  816   9.315   0.693   8.554  0.2515 -0.6965 -0.1989
   29bbb     H3  817   9.295   0.671   8.448 -3.7151  0.5933  0.1166
   29bbb     H4  818   9.298   0.802   8.551  0.7120 -0.6337 -0.6485
   29bbb     C3  819   9.554   0.746   8.525  0.0035 -0.0917 -0.0259
   29bbb     H5  820   9.609   0.819   8.586  0.9540 -1.0202  0.2424
   29bbb     H6  821   9.509   0.816   8.453  2.0038 -0.1214 -1.4159
   29bbb     C4  822   9.643   0.668   8.432 -0.9828  0.1169  0.0176
   29bbb     H7  823   9.577   0.610   8.366 -0.2301 -2.4501  1.3739
   29bbb     H8  824   9.702   0.596   8.491  0.6691 -0.2327 -1.9179
   29bbb     C5  825   9.461   0.804   8.800  0.3467 -0.3344  0.2961
   29bbb     H9  826   9.393   0.865   8.739 -0.2912 -1.9961 -0.7053
   29bbb    H10  827   9.561   0.851   8.799  1.1581 -1.9960  0.2528
   29bbb     C6  828   9.203   0.616   8.631  0.1608 -0.0218 -0.0247
   29bbb    H11  829   9.183   0.663   8.728  0.0545  0.0588 -0.0866
   29bbb    H12  830   9.238   0.515   8.657  0.2538  0.4059  1.6702
   29bbb     C7  831   9.740   0.755   8.345  0.1782  0.1252  0.0975
   29bbb    H13  832   9.805   0.819   8.406  0.9017 -0.9005  0.4306
   29bbb    H14  833   9.678   0.819   8.281 -1.0769  1.0134  2.1075
   29bbb     C8  834   9.075   0.621   8.552  0.3328 -0.1213  0.0421
   29bbb    H15  835   9.076   0.537   8.482 -1.1608 -0.1555  0.0207
   29bbb    H16  836   9.060   0.714   8.496  0.6526 -1.6148 -2.6843
   29bbb     C9  837   9.400   0.810   8.945 -0.5233  0.3939  0.0978
   29bbb    H17  838   9.437   0.903   8.988 -1.2136  0.8202 -0.2049
   29bbb    H18  839   9.435   0.724   9.002 -2.5792 -0.2050  0.5477
   29bbb     O1  840   9.832   0.664   8.285 -0.8122  0.7638  0.5030
   30bbb     N1  841  10.415   1.256   8.484  0.0524  0.4127  0.1583
   30bbb     C1  842  10.345   1.262   8.611 -0.5924 -0.0251 -0.4421
   30bbb     H1  843  10.244   1.296   8.588  0.1658  2.4164 -0.4244
   30bbb     H2  844  10.385   1.338   8.680 -0.6309 -1.4980  1.2834
   30bbb     C2  845  10.388   1.366   8.390  0.3552 -0.3035 -0.2064
   30bbb     H3  846  10.474   1.378   8.323 -0.2801  0.8347 -0.8382
   30bbb     H4  847  10.386   1.462   8.443  1.7712 -1.6148  2.4319
   30bbb     C3  848  10.563   1.213   8.486 -0.0700 -0.3073  0.5946
   30bbb     H5  849  10.578   1.142   8.568 -1.0044  0.7683  1.7349
   30bbb     H6  850  10.628   1.300   8.504 -2.7760  2.3958 -1.5952
   30bbb     C4  851  10.605   1.145   8.358 -0.0521  0.1821  0.5196
   30bbb     H7  852  10.708   1.113   8.382  0.1999 -0.5207 -1.3497
   30bbb     H8  853  10.602   1.207   8.267 -1.9130 -2.5862 -1.4621
   30bbb     C5  854  10.330   1.138   8.698 -0.0164  0.0100  0.2667
   30bbb     H9  855  10.276   1.154   8.792 -3.7184 -2.6827 -1.1326
   30bbb    H10  856  10.429   1.096   8.719  0.1449  0.3835  0.2510
   30bbb     C6  857  10.260   1.338   8.305 -0.1157 -0.0851 -0.1461
   30bbb    H11  858  10.169   1.371   8.356 -0.5913 -1.2357 -0.2148
   30bbb    H12  859  10.251   1.229   8.295 -1.8139 -0.0019  0.1426
   30bbb     C7  860  10.517   1.019   8.339 -0.2144 -0.4375 -0.3941
   30bbb    H13  861  10.420   1.053   8.302  0.4403  0.8712 -0.9934
   30bbb    H14  862  10.513   0.969   8.436 -2.7317 -0.8815 -0.6574
   30bbb     C8  863  10.262   1.409   8.164 -0.4412 -0.3500 -0.1274
   30bbb    H15  864  10.159   1.402   8.127 -0.5800 -0.3788  0.2555
   30bbb    H16  865  10.320   1.348   8.094 -0.3334  0.7576 -1.0114
   30bbb     C9  866  10.247   1.035   8.622  0.9131  0.5825 -0.3979
   30bbb    H17  867  10.281   1.032   8.518 -0.8720  1.1178 -1.0190
   30bbb    H18  868  10.144   1.071   8.629  1.2747  1.3782  1.4314
   30bbb     O1  869  10.578   0.927   8.241  0.5333 -0.0871 -0.2934
   31bbb     N1  870  10.109   1.963   8.659 -0.5458  0.0481  0.1806
   31bbb     C1  871  10.201   1.866   8.597  0.1172  0.0102  0.2282
   31bbb     H1  872  10.185   1.764   8.636 -0.0419  0.0260  0.2077
   31bbb     H2  873  10.303   1.897   8.620 -0.1790  0.5413  0.8817
   31bbb     C2  874  10.154   2.007   8.797  0.3824  0.3730 -0.6562
   31bbb     H3  875  10.203   1.926   8.853 -1.1516  0.7008  1.2795
   31bbb     H4  876  10.062   2.031   8.852 -0.8494 -3.6324 -0.6552
   31bbb     C3  877   9.968   1.925   8.655 -0.1335 -1.0110 -0.3660
   31bbb     H5  878   9.948   1.880   8.754  1.7415 -0.1652  0.4566
   31bbb     H6  879   9.949   1.864   8.566  0.4342  1.3615 -2.2074
   31bbb     C4  880   9.873   2.036   8.631 -0.2884 -0.1475  0.4452
   31bbb     H7  881   9.907   2.072   8.533  2.9348  2.2568  2.2409
   31bbb     H8  882   9.892   2.112   8.708 -3.0858  0.7807  0.3425
   31bbb     C5  883  10.208   1.863   8.445  0.6006  0.5722 -0.9095
   31bbb     H9  884  10.108   1.835   8.408  0.3493  1.0353 -0.5946
   31bbb    H10  885  10.277   1.792   8.399 -0.0336 -1.0591  0.5824
   31bbb     C6  886  10.244   2.126   8.780  0.1570 -0.4072  0.6183
   31bbb    H11  887  10.340   2.095   8.736  0.9685  1.2186  1.1234
   31bbb    H12  888  10.281   2.169   8.875  0.2976  3.4125 -0.9614
   31bbb     C7  889   9.725   1.996   8.647 -0.0776 -0.5386 -0.5230
   31bbb    H13  890   9.713   1.974   8.753  4.4912  3.0765  1.1206
   31bbb    H14  891   9.711   1.904   8.590  1.9889 -0.0053 -2.0610
   31bbb     C8  892  10.182   2.242   8.686 -0.1742  0.3879  0.0026
   31bbb    H15  893  10.076   2.257   8.709 -0.3608  0.9820 -1.1608
   31bbb    H16  894  10.192   2.218   8.579  2.4908 -0.1101  0.2872
   31bbb     C9  895  10.243   2.000   8.383  0.7990 -0.5877  0.6194
   31bbb    H17  896  10.194   2.081   8.438  0.6956  0.5658 -1.0755
   31bbb    H18  897  10.209   2.008   8.279  0.9387  0.8458  0.6634
   31bbb     O1  898   9.637   2.108   8.610 -0.6125  0.0850 -0.8327
   32bbb     N1  899   9.131   2.233   7.591  0.0217 -0.5135 -0.1452
   32bbb     C1  900   9.233   2.329   7.550  0.2089  0.2171 -0.2502
   32bbb     H1  901   9.308   2.281   7.487  0.7302  0.4463  0.1831
   32bbb     H2  902   9.281   2.366   7.642 -1.9570  1.7537  0.3693
   32bbb     C2  903   9.195   2.099   7.627  1.0465  0.3853 -0.1199
   32bbb     H3  904   9.245   2.097   7.724 -1.4993 -1.8792  1.2952
   32bbb     H4  905   9.276   2.079   7.556 -0.6200 -1.1644 -1.6714
   32bbb     C3  906   9.024   2.279   7.684  0.0226 -0.1418  0.0060
   32bbb     H5  907   8.949   2.199   7.690  1.8717 -2.1932 -2.2424
   32bbb     H6  908   8.968   2.352   7.625  0.1602  0.0394  0.0975
   32bbb     C4  909   9.068   2.340   7.825  0.7188  0.4729  0.4984
   32bbb     H7  910   8.980   2.367   7.884 -0.3797 -0.3874 -0.6786
   32bbb     H8  911   9.122   2.432   7.801 -2.2637  1.9773 -1.0415
   32bbb     C5  912   9.178   2.454   7.475 -0.6384 -0.1135 -0.3431
   32bbb     H9  913   9.119   2.509   7.549 -1.3467 -0.4101 -0.6728
   32bbb    H10  914   9.109   2.420   7.396 -1.1441 -4.7895  1.8032
   32bbb     C6  915   9.097   1.977   7.632  0.6880 -0.5432  0.0845
   32bbb    H11  916   9.041   1.972   7.538 -0.7574  0.7558  0.8255
   32bbb    H12  917   9.034   1.997   7.719 -0.7820 -1.5934 -0.7101
   32bbb     C7  918   9.155   2.242   7.907 -0.4591 -0.0479 -0.5143
   32bbb    H13  919   9.258   2.237   7.869 -1.0162 -0.3884 -2.0272
   32bbb    H14  920   9.108   2.144   7.921 -2.0025  0.5343 -1.3483
   32bbb     C8  921   9.170   1.847   7.646 -0.1918  0.4526 -0.0450
   32bbb    H15  922   9.204   1.853   7.750 -0.4456  2.5376 -0.0316
   32bbb    H16  923   9.256   1.846   7.577 -0.1616  0.3821 -0.0064
   32bbb     C9  924   9.302   2.534   7.426  0.2879 -0.1605 -0.3610
   32bbb    H17  925   9.353   2.490   7.340 -0.6738  0.5951 -1.3444
   32bbb    H18  926   9.367   2.531   7.514 -0.8280  1.4165  0.5732
   32bbb     O1  927   9.165   2.294   8.036  0.3751  0.4625  0.0308
   33bbb     N1  928   8.821   0.944   7.226  0.3606  0.0399  0.3447
   33bbb     C1  929   8.960   0.955   7.276 -0.2503 -0.6514  0.0412
   33bbb     H1  930   8.960   0.996   7.378 -2.9182 -1.8847  0.6415
   33bbb     H2  931   9.015   1.024   7.211 -1.9815  1.2193  0.4735
   33bbb     C2  932   8.788   0.887   7.094 -0.4287  1.1018  0.3000
   33bbb     H3  933   8.847   0.799   7.063 -0.2289  1.6312 -0.8938
   33bbb     H4  934   8.790   0.962   7.014 -2.2099  1.0541  0.1769
   33bbb     C3  935   8.744   1.058   7.293 -0.1194 -0.5316 -0.2298
   33bbb     H5  936   8.782   1.069   7.395 -0.4233 -1.4761 -0.0038
   33bbb     H6  937   8.642   1.021   7.310 -1.3233  2.2184 -0.8826
   33bbb     C4  938   8.744   1.196   7.220 -0.2416  1.1157  0.0153
   33bbb     H7  939   8.704   1.193   7.118  0.3718 -0.6392 -0.1981
   33bbb     H8  940   8.849   1.228   7.217 -0.0072  0.3097 -0.6675
   33bbb     C5  941   9.043   0.827   7.285  0.8848  0.9577 -0.1265
   33bbb     H9  942   9.132   0.846   7.346  0.9097  2.2080 -0.5236
   33bbb    H10  943   9.074   0.797   7.185 -3.3292 -0.3144 -1.2820
   33bbb     C6  944   8.637   0.835   7.099  0.0681 -0.6703 -0.0322
   33bbb    H11  945   8.599   0.780   7.012  0.3937 -2.4985  0.9449
   33bbb    H12  946   8.582   0.929   7.109 -1.1427 -1.4382  0.6379
   33bbb     C7  947   8.660   1.305   7.301  0.6555  0.3443 -0.1345
   33bbb    H13  948   8.648   1.265   7.403  0.7813  0.0143 -0.2501
   33bbb    H14  949   8.561   1.320   7.256 -0.3109 -1.5731  1.1986
   33bbb     C8  950   8.603   0.732   7.212  0.2971  0.0026 -0.3438
   33bbb    H15  951   8.498   0.749   7.239  0.2003  1.4845 -1.5173
   33bbb    H16  952   8.667   0.740   7.300  0.4055 -1.0864 -0.3017
   33bbb     C9  953   8.976   0.700   7.340  0.4014  0.2203 -0.4875
   33bbb    H17  954   8.900   0.664   7.270 -0.7485 -2.1950  1.8043
   33bbb    H18  955   8.925   0.712   7.437 -0.5049 -0.3029 -0.8952
   33bbb     O1  956   8.734   1.430   7.312  0.3348  0.1682 -0.0437
   34bbb     N1  957   8.168   2.449   7.480 -0.2616  0.4124 -0.1996
   34bbb     C1  958   8.105   2.344   7.387  0.3711 -0.4125 -0.3888
   34bbb     H1  959   8.032   2.390   7.319 -0.1522  2.3269  1.8560
   34bbb     H2  960   8.052   2.267   7.444 -0.1588 -0.5976 -1.1101
   34bbb     C2  961   8.217   2.570   7.417 -0.7175 -0.2066 -0.3455
   34bbb     H3  962   8.306   2.544   7.360 -0.7003  0.7721 -0.7866
   34bbb     H4  963   8.243   2.634   7.502  0.6433 -4.0881  2.4446
   34bbb     C3  964   8.271   2.400   7.579  0.1290 -0.0173 -0.0548
   34bbb     H5  965   8.315   2.487   7.630 -0.3895  2.2957 -3.2529
   34bbb     H6  966   8.353   2.346   7.530  0.1687 -1.6885  1.7297
   34bbb     C4  967   8.226   2.292   7.680  0.7776 -1.0992  0.5308
   34bbb     H7  968   8.148   2.231   7.632  0.8415 -2.3817  1.9555
   34bbb     H8  969   8.180   2.347   7.763 -2.4215  0.5963 -2.1067
   34bbb     C5  970   8.215   2.265   7.309 -0.8680 -0.1929 -0.2186
   34bbb     H9  971   8.277   2.215   7.385 -1.0481  2.0969  1.5401
   34bbb    H10  972   8.285   2.329   7.254  1.5820 -1.8421  0.8057
   34bbb     C6  973   8.116   2.639   7.320 -0.3627  0.0101 -0.2899
   34bbb    H11  974   8.013   2.636   7.359 -0.9189  3.3096 -1.2467
   34bbb    H12  975   8.119   2.570   7.235  0.3512 -2.6362  1.7218
   34bbb     C7  976   8.334   2.206   7.740  0.2415  0.3200  0.4742
   34bbb    H13  977   8.291   2.164   7.832 -0.6191  0.7744  0.2854
   34bbb    H14  978   8.426   2.258   7.770  0.1156 -0.1170  1.6789
   34bbb     C8  979   8.150   2.790   7.300 -1.0027 -0.3910  0.2116
   34bbb    H15  980   8.249   2.790   7.253 -0.9957 -0.8671  0.2219
   34bbb    H16  981   8.154   2.828   7.403 -0.0252 -0.9308  0.3849
   34bbb     C9  982   8.153   2.169   7.209 -0.6847  0.3686  0.1132
   34bbb    H17  983   8.236   2.126   7.152  0.3066  1.5245  0.6335
   34bbb    H18  984   8.097   2.226   7.133 -1.6723 -1.3041 -0.4770
   34bbb     O1  985   8.372   2.099   7.649 -0.3861  0.3343 -0.3932
   35bbb     N1  986   8.589   1.100   6.147  0.1221 -0.2097  0.4860
   35bbb     C1  987   8.458   1.111   6.087  0.1626 -0.0316  0.0731
   35bbb     H1  988   8.414   1.012   6.068 -0.3320 -0.1566  1.7186
   35bbb     H2  989   8.456   1.175   5.998  0.0107  0.9926  0.7973
   35bbb     C2  990   8.671   0.992   6.082 -0.0045 -0.2148  0.1629
   35bbb     H3  991   8.731   1.020   5.994  0.5800  0.5333  0.7885
   35bbb     H4  992   8.604   0.912   6.048 -0.1662  0.4673 -1.2246
   35bbb     C3  993   8.658   1.222   6.191 -0.1726  0.0322 -0.8259
   35bbb     H5  994   8.750   1.192   6.243  0.2095  1.4270 -0.6766
   35bbb     H6  995   8.595   1.277   6.262  1.3245 -0.1068  0.6561
   35bbb     C4  996   8.715   1.307   6.078  0.1210 -0.1588  0.1783
   35bbb     H7  997   8.632   1.364   6.037  0.3513  0.6320  0.7950
   35bbb     H8  998   8.754   1.246   5.995 -0.8879  0.2424 -0.6052
   35bbb     C5  999   8.369   1.180   6.199  0.3261 -0.1580 -0.2915
   35bbb     H9 1000   8.401   1.284   6.213  0.0742 -0.2043  0.6933
   35bbb    H10 1001   8.387   1.125   6.292 -1.2895  1.8753  1.3184
   35bbb     C6 1002   8.772   0.924   6.180  0.4950  0.8526  0.6412
   35bbb    H11 1003   8.836   1.003   6.221  0.7015  2.0429 -1.7717
   35bbb    H12 1004   8.838   0.864   6.116 -1.2549 -2.1972  1.4947
   35bbb     C7 1005   8.818   1.415   6.122 -0.2030  0.1465  0.4779
   35bbb    H13 1006   8.833   1.474   6.030 -0.4161 -0.6230 -0.0668
   35bbb    H14 1007   8.910   1.362   6.151  1.3983  1.1291 -2.3399
   35bbb     C8 1008   8.702   0.845   6.290  0.3855  0.1341 -0.3313
   35bbb    H15 1009   8.652   0.923   6.349  0.2166  0.0446 -0.3557
   35bbb    H16 1010   8.780   0.792   6.346 -1.5907 -0.8758  1.6815
   35bbb     C9 1011   8.216   1.180   6.178 -0.4155 -0.6087 -0.4094
   35bbb    H17 1012   8.172   1.204   6.276 -0.3741 -0.4961 -0.4186
   35bbb    H18 1013   8.182   1.081   6.147 -1.7493 -0.4990  0.5803
   35bbb     O1 1014   8.759   1.500   6.226 -0.0475 -0.4666  0.1460
   36bbb     N1 1015   7.739   1.240   6.322 -0.0109 -0.1328 -0.9129
   36bbb     C1 1016   7.606   1.185   6.381 -0.1243  0.4075  0.1895
   36bbb     H1 1017   7.524   1.193   6.308 -0.3204 -2.7989 -0.0710
   36bbb     H2 1018   7.577   1.248   6.467  1.0595  0.9673  0.2013
   36bbb     C2 1019   7.731   1.375   6.269  0.6674 -0.0712  0.0160
   36bbb     H3 1020   7.828   1.408   6.230 -1.2772  2.3704 -3.1960
   36bbb     H4 1021   7.703   1.450   6.345  0.6438 -1.1017  1.0509
   36bbb     C3 1022   7.866   1.199   6.391  1.2128 -0.0856  1.0676
   36bbb     H5 1023   7.951   1.237   6.333 -0.6603 -0.4814 -2.2036
   36bbb     H6 1024   7.865   1.091   6.371 -1.0106  0.2898 -1.4890
   36bbb     C4 1025   7.880   1.238   6.543 -0.0459 -0.0480  0.3554
   36bbb     H7 1026   7.792   1.208   6.601 -0.3273  0.4507  0.1879
   36bbb     H8 1027   7.864   1.346   6.544 -1.3698 -0.1926 -1.0927
   36bbb     C5 1028   7.610   1.041   6.424 -0.0287  0.6431  0.2641
   36bbb     H9 1029   7.679   1.014   6.504 -0.3530 -0.3336  0.2296
   36bbb    H10 1030   7.632   0.983   6.334  0.0082  1.2916 -0.1537
   36bbb     C6 1031   7.642   1.378   6.132 -0.1414 -0.2677 -0.4437
   36bbb    H11 1032   7.537   1.383   6.163  0.4698  0.0271  1.7049
   36bbb    H12 1033   7.648   1.277   6.088  1.8712 -0.6034  0.4909
   36bbb     C7 1034   8.011   1.183   6.610  0.4785  0.6774  0.1435
   36bbb    H13 1035   8.024   1.076   6.588 -1.0677  0.7770 -1.4951
   36bbb    H14 1036   7.996   1.208   6.715 -0.3406 -1.1712  0.5245
   36bbb     C8 1037   7.680   1.484   6.022  0.0702 -0.2225  0.4624
   36bbb    H15 1038   7.689   1.587   6.059  0.7985 -0.0080 -0.2551
   36bbb    H16 1039   7.590   1.495   5.960 -1.0454  0.8294  2.2120
   36bbb     C9 1040   7.468   0.994   6.482  0.5192 -0.1571  0.3231
   36bbb    H17 1041   7.394   1.015   6.404 -1.5038  0.7933  2.3660
   36bbb    H18 1042   7.465   0.887   6.506 -3.1218 -0.6048 -1.3933
   36bbb     O1 1043   8.120   1.253   6.553 -0.2539 -0.4412 -0.6538
   37bbb     N1 1044   8.021   1.299   7.056  0.2721  0.1074  0.7603
   37bbb     C1 1045   7.939   1.174   7.021 -0.1889  0.2436  0.5370
   37bbb     H1 1046   7.936   1.149   6.915 -0.3435 -0.0598  0.6127
   37bbb     H2 1047   7.837   1.199   7.051 -0.7952  2.0285 -2.5927
   37bbb     C2 1048   7.977   1.419   6.979 -0.4340  0.3789  0.3742
   37bbb     H3 1049   7.994   1.408   6.872  0.8692  1.0704  0.4832
   37bbb     H4 1050   8.044   1.503   7.004  1.9482 -0.7512 -1.7912
   37bbb     C3 1051   8.169   1.289   7.069 -0.0397 -0.2941 -0.3247
   37bbb     H5 1052   8.199   1.219   7.147 -0.1258 -0.3166 -0.3122
   37bbb     H6 1053   8.209   1.387   7.097 -4.5664  1.5456  0.4997
   37bbb     C4 1054   8.248   1.254   6.942  0.7698  0.8775  1.1517
   37bbb     H7 1055   8.232   1.338   6.873  2.0709 -1.3150 -2.0894
   37bbb     H8 1056   8.213   1.161   6.895  0.2962  1.6743 -0.1267
   37bbb     C5 1057   7.989   1.053   7.100 -0.6594  0.1460 -0.3435
   37bbb     H9 1058   7.987   1.084   7.205  0.3461  1.4713 -0.6863
   37bbb    H10 1059   8.094   1.034   7.075 -0.4971  1.2343 -0.5049
   37bbb     C6 1060   7.836   1.464   7.012 -0.6236  0.6748 -0.0721
   37bbb    H11 1061   7.837   1.503   7.115 -1.9794  2.1004 -0.5646
   37bbb    H12 1062   7.762   1.383   7.010 -0.9772  0.8931  1.7698
   37bbb     C7 1063   8.401   1.219   6.967  0.0322 -1.0889 -0.3863
   37bbb    H13 1064   8.443   1.173   6.877 -2.4068  0.0671 -2.2593
   37bbb    H14 1065   8.411   1.155   7.055 -0.2457 -0.7013 -0.0674
   37bbb     C8 1066   7.789   1.573   6.916 -0.7661  0.4658  0.2544
   37bbb    H15 1067   7.876   1.621   6.870 -0.2469 -2.1027 -1.6814
   37bbb    H16 1068   7.741   1.654   6.974 -0.0634  0.5122  0.7897
   37bbb     C9 1069   7.901   0.926   7.088  0.6402  0.1397  0.0572
   37bbb    H17 1070   7.809   0.931   7.149  0.4997  1.6689 -0.2365
   37bbb    H18 1071   7.948   0.838   7.135 -0.4490 -0.6832 -0.3516
   37bbb     O1 1072   8.472   1.338   6.993 -0.5863 -0.2586  0.5101
   38bbb     N1 1073   8.407   2.418   6.721 -0.1069 -0.2784  0.3315
   38bbb     C1 1074   8.337   2.307   6.647 -0.2688  0.2640 -1.1604
   38bbb     H1 1075   8.310   2.221   6.709  0.0057  0.8698 -0.1887
   38bbb     H2 1076   8.412   2.279   6.572 -1.4335 -0.5744 -2.0680
   38bbb     C2 1077   8.453   2.537   6.636 -0.6435 -0.3352  0.3369
   38bbb     H3 1078   8.488   2.620   6.698  0.5413 -0.6849  0.1552
   38bbb     H4 1079   8.369   2.591   6.591 -0.6029  0.9993  1.7791
   38bbb     C3 1080   8.504   2.381   6.825 -0.0840 -0.5468 -0.3878
   38bbb     H5 1081   8.543   2.472   6.874  0.1394 -0.7095 -0.2629
   38bbb     H6 1082   8.589   2.331   6.777  0.4558 -1.7462  1.6938
   38bbb     C4 1083   8.459   2.290   6.937  0.3712  0.5329 -0.0581
   38bbb     H7 1084   8.392   2.215   6.893 -0.1394  0.8808  0.1291
   38bbb     H8 1085   8.402   2.349   7.010 -0.6930  0.7201 -1.0171
   38bbb     C5 1086   8.198   2.349   6.581  0.1836 -0.1232 -1.0999
   38bbb     H9 1087   8.215   2.446   6.533  1.1130 -0.4234 -1.3947
   38bbb    H10 1088   8.133   2.365   6.668 -0.0989  1.3985 -1.5521
   38bbb     C6 1089   8.554   2.506   6.521 -0.0979  0.7498 -0.2739
   38bbb    H11 1090   8.631   2.436   6.555 -0.8305 -0.0781 -0.2754
   38bbb    H12 1091   8.602   2.604   6.513  1.4663  0.3009  2.3335
   38bbb     C7 1092   8.570   2.221   7.007  0.0024 -1.0267  0.5090
   38bbb    H13 1093   8.549   2.182   7.107  3.4263 -0.8678  1.4157
   38bbb    H14 1094   8.657   2.284   7.031 -1.3888  0.3023  2.3499
   38bbb     C8 1095   8.493   2.461   6.389 -0.3381 -0.0627  0.2225
   38bbb    H15 1096   8.428   2.538   6.346 -1.3358 -0.9304  0.1290
   38bbb    H16 1097   8.447   2.361   6.397 -0.2910 -0.2468 -1.4290
   38bbb     C9 1098   8.152   2.238   6.479 -1.2098  0.4972  0.0481
   38bbb    H17 1099   8.043   2.228   6.472 -1.4236  1.9745  0.8638
   38bbb    H18 1100   8.183   2.147   6.532  1.3146  1.6459  0.7066
   38bbb     O1 1101   8.601   2.111   6.921 -0.6023 -0.0108  0.0234
   39bbb     N1 1102   9.844   1.810   9.075 -0.5731  0.0068  0.2908
   39bbb     C1 1103   9.854   1.958   9.080  0.7434 -0.2091 -0.5980
   39bbb     H1 1104   9.889   1.997   8.984  2.0395 -0.5937 -0.3001
   39bbb     H2 1105   9.913   2.001   9.161 -1.8473  2.6577 -0.0266
   39bbb     C2 1106   9.979   1.749   9.056  0.4460 -0.1642 -0.1277
   39bbb     H3 1107  10.007   1.762   8.950  0.2282  0.2080 -0.1421
   39bbb     H4 1108   9.968   1.644   9.084 -0.2618 -0.5483 -1.7096
   39bbb     C3 1109   9.752   1.742   8.976 -0.0629 -0.3500 -0.2714
   39bbb     H5 1110   9.770   1.777   8.873 -0.8715 -1.5528 -0.8550
   39bbb     H6 1111   9.652   1.780   8.998  0.2335  0.1281  0.2541
   39bbb     C4 1112   9.742   1.592   8.987  0.2454  0.4095  0.4277
   39bbb     H7 1113   9.729   1.565   9.093 -1.2701 -0.2820  0.0831
   39bbb     H8 1114   9.836   1.550   8.950 -0.1057  0.7647 -0.9130
   39bbb     C5 1115   9.716   2.027   9.110 -0.0025  0.1474  0.5699
   39bbb     H9 1116   9.666   1.981   9.196 -0.4427 -2.8443 -1.1529
   39bbb    H10 1117   9.648   2.007   9.026  2.1590 -0.4160 -1.1572
   39bbb     C6 1118  10.087   1.813   9.151 -0.4243 -0.0069 -0.1642
   39bbb    H11 1119  10.048   1.829   9.253 -1.8467  0.5358 -0.7694
   39bbb    H12 1120  10.121   1.911   9.116 -0.0353  1.2587  3.3739
   39bbb     C7 1121   9.627   1.527   8.903  0.2888 -0.5610  0.0751
   39bbb    H13 1122   9.529   1.566   8.934 -1.3737 -2.8249 -1.9114
   39bbb    H14 1123   9.628   1.418   8.914 -0.4369 -0.8489 -2.1939
   39bbb     C8 1124  10.204   1.716   9.166  0.0537  0.5100 -0.1205
   39bbb    H15 1125  10.175   1.616   9.199 -1.0997  1.1100  0.7927
   39bbb    H16 1126  10.277   1.753   9.239  2.8193 -1.5979 -1.6387
   39bbb     C9 1127   9.731   2.182   9.131  0.5857 -0.5586  0.2122
   39bbb    H17 1128   9.793   2.197   9.220  0.1600  0.3029  0.3821
   39bbb    H18 1129   9.636   2.235   9.146  0.8911 -0.3468  1.5318
   39bbb     O1 1130   9.642   1.561   8.761  0.1879 -0.0818  0.4500
   40bbb     N1 1131   8.914   1.786   8.494  0.6015 -0.3465  0.0168
   40bbb     C1 1132   8.806   1.882   8.526  1.1464 -0.1665 -0.1258
   40bbb     H1 1133   8.747   1.903   8.436 -0.1798 -1.0137  0.5199
   40bbb     H2 1134   8.841   1.980   8.562 -1.9917  0.7952  0.5933
   40bbb     C2 1135   9.010   1.749   8.606 -0.3459 -0.7767 -0.0808
   40bbb     H3 1136   9.088   1.676   8.578 -0.1668 -0.9112  0.7460
   40bbb     H4 1137   8.955   1.696   8.684 -0.4069 -0.3715  0.1516
   40bbb     C3 1138   8.981   1.825   8.363  0.4519  0.7874  0.4327
   40bbb     H5 1139   9.047   1.909   8.388 -1.7638  3.0943 -0.9691
   40bbb     H6 1140   8.915   1.860   8.283  0.8975 -1.3893 -0.9920
   40bbb     C4 1141   9.048   1.702   8.305 -0.4709  0.2024  0.9535
   40bbb     H7 1142   8.980   1.616   8.305 -0.0535 -0.1594 -0.4461
   40bbb     H8 1143   9.136   1.688   8.370  0.1761 -0.2529  0.0002
   40bbb     C5 1144   8.708   1.835   8.635 -0.0752  0.7204  0.0656
   40bbb     H9 1145   8.768   1.823   8.726 -1.2739 -3.1283  0.5433
   40bbb    H10 1146   8.656   1.739   8.625 -1.6051  1.6718 -1.5929
   40bbb     C6 1147   9.079   1.874   8.675 -0.3187 -0.3451 -0.5060
   40bbb    H11 1148   8.996   1.931   8.718 -0.4950 -1.9056  1.3437
   40bbb    H12 1149   9.136   1.934   8.603  0.9261  3.1054  2.9975
   40bbb     C7 1150   9.087   1.724   8.155 -0.7206 -0.3762 -0.4304
   40bbb    H13 1151   9.003   1.759   8.092  0.7281  1.4088 -1.4710
   40bbb    H14 1152   9.124   1.625   8.128  1.2563  0.0912  0.4501
   40bbb     C8 1153   9.173   1.820   8.780  0.7883  0.1175 -0.4297
   40bbb    H15 1154   9.266   1.806   8.723  0.7575  0.2882 -0.5246
   40bbb    H16 1155   9.145   1.718   8.807  0.3139 -0.6325 -3.3707
   40bbb     C9 1156   8.591   1.932   8.663  0.0921  0.5245 -0.2546
   40bbb    H17 1157   8.635   2.023   8.704  0.8991  0.0406 -0.0115
   40bbb    H18 1158   8.518   1.891   8.733 -0.5143 -0.1342 -1.2494
   40bbb     O1 1159   9.191   1.821   8.157  1.0772 -0.1255  0.4938
   41bbb     N1 1160   9.217   1.352   9.003  0.5593 -0.1975  0.1756
   41bbb     C1 1161   9.212   1.503   9.024 -0.1454 -0.0512 -0.7139
   41bbb     H1 1162   9.149   1.527   8.937 -0.3173  0.1876 -0.5262
   41bbb     H2 1163   9.313   1.544   9.013  0.2219 -0.7254  0.0098
   41bbb     C2 1164   9.300   1.272   9.104 -0.4807  0.5802  0.1642
   41bbb     H3 1165   9.274   1.166   9.094  0.3069  0.4655 -0.7732
   41bbb     H4 1166   9.259   1.287   9.205 -0.9557 -1.4807  0.3215
   41bbb     C3 1167   9.258   1.317   8.860 -0.0464 -0.5504 -0.2516
   41bbb     H5 1168   9.362   1.351   8.850 -0.0659 -0.5223 -0.3685
   41bbb     H6 1169   9.204   1.382   8.789 -1.2386  1.1091  2.0432
   41bbb     C4 1170   9.241   1.169   8.830  0.0351  0.5655  0.3402
   41bbb     H7 1171   9.132   1.158   8.836  0.1852 -0.2704  2.1933
   41bbb     H8 1172   9.276   1.095   8.903 -1.7748 -2.4701 -1.6387
   41bbb     C5 1173   9.159   1.555   9.158 -0.0874  0.9272  0.5342
   41bbb     H9 1174   9.061   1.508   9.172  0.5916 -0.3935  0.9579
   41bbb    H10 1175   9.141   1.661   9.136 -0.3166  0.8239  0.2157
   41bbb     C6 1176   9.455   1.294   9.095 -0.3232  0.1736 -0.7586
   41bbb    H11 1177   9.473   1.402   9.087 -1.0816  0.1967 -2.4801
   41bbb    H12 1178   9.496   1.258   9.000  1.2837  0.4849 -0.2090
   41bbb     C7 1179   9.284   1.131   8.689  0.5149 -0.1671  0.3830
   41bbb    H13 1180   9.250   1.214   8.627  0.4686  0.9095  1.7897
   41bbb    H14 1181   9.236   1.033   8.673 -3.3269  1.5768  0.0576
   41bbb     C8 1182   9.524   1.221   9.214 -0.5377  0.3207  0.8431
   41bbb    H15 1183   9.497   1.258   9.314  1.9024  2.3956  0.8388
   41bbb    H16 1184   9.631   1.246   9.208 -0.5128  0.0308 -0.0179
   41bbb     C9 1185   9.258   1.550   9.278  0.9572 -0.5246  0.8887
   41bbb    H17 1186   9.277   1.445   9.301 -0.7359 -1.0597  0.0547
   41bbb    H18 1187   9.207   1.596   9.364 -0.0365 -0.6199  0.3678
   41bbb     O1 1188   9.430   1.136   8.684  0.6992 -0.3154 -0.0689
   42bbb     N1 1189  10.030   1.289   9.006  0.1702  0.8972 -0.5620
   42bbb     C1 1190  10.046   1.311   9.154 -0.0591 -0.1900 -0.3160
   42bbb     H1 1191  10.072   1.417   9.166  1.1060 -0.3639 -1.0835
   42bbb     H2 1192  10.128   1.252   9.195  0.2698  1.6073  1.8426
   42bbb     C2 1193  10.065   1.151   8.971  0.3982  1.0296 -0.1528
   42bbb     H3 1194  10.173   1.131   8.977  0.6644  2.5920  0.9441
   42bbb     H4 1195  10.047   1.137   8.864 -1.2210 -1.1474  0.3470
   42bbb     C3 1196  10.092   1.388   8.921  0.4365  0.2860  0.2314
   42bbb     H5 1197  10.199   1.366   8.908  0.9361  2.8517 -0.6693
   42bbb     H6 1198  10.093   1.488   8.965  1.5325  0.0899  0.6783
   42bbb     C4 1199  10.025   1.398   8.780 -0.0648 -0.0929 -0.1091
   42bbb     H7 1200   9.916   1.401   8.795 -0.1885  0.5516 -1.0463
   42bbb     H8 1201  10.044   1.302   8.730 -1.3283 -0.3289 -0.1714
   42bbb     C5 1202   9.923   1.289   9.246 -0.2604  0.2017 -0.1330
   42bbb     H9 1203   9.891   1.184   9.240  0.1691  0.1320 -1.5874
   42bbb    H10 1204   9.845   1.361   9.219 -1.7349  0.1502  3.4064
   42bbb     C6 1205   9.987   1.036   9.043  0.6155 -1.1509  0.3428
   42bbb    H11 1206   9.885   1.075   9.059  1.5630  1.0533  1.4153
   42bbb    H12 1207  10.025   1.021   9.145 -1.0016  2.0917  1.5717
   42bbb     C7 1208  10.083   1.517   8.704  0.7795  0.2554  0.2068
   42bbb    H13 1209  10.192   1.509   8.712  0.6285 -0.4041  2.2176
   42bbb    H14 1210  10.061   1.615   8.747 -1.5707 -0.2543  0.2887
   42bbb     C8 1211   9.995   0.908   8.959  0.1988  0.0288  0.7720
   42bbb    H15 1212  10.094   0.860   8.958  0.4303  0.5042  0.4222
   42bbb    H16 1213   9.960   0.928   8.857  1.5433  0.0684  0.3045
   42bbb     C9 1214   9.950   1.305   9.398  0.3885 -0.2716 -0.7571
   42bbb    H17 1215  10.007   1.226   9.447  0.8067  1.4264  1.6571
   42bbb    H18 1216   9.851   1.312   9.445  1.3128  0.5470  1.1706
   42bbb     O1 1217  10.047   1.505   8.567 -0.0561 -0.3794  0.0786
   43bbb     N1 1218   8.389   1.064   8.010  0.0160 -0.3331 -0.0809
   43bbb     C1 1219   8.306   1.188   7.990  0.2452  0.4920  0.1692
   43bbb     H1 1220   8.234   1.181   7.907 -0.0873  1.0389  0.4071
   43bbb     H2 1221   8.379   1.266   7.968 -1.1557  2.2653  1.5620
   43bbb     C2 1222   8.307   0.942   8.052  0.3487 -0.4696 -0.3421
   43bbb     H3 1223   8.262   0.891   7.967  2.6570 -1.7035 -0.9168
   43bbb     H4 1224   8.235   0.962   8.132 -0.2922 -4.4581  0.3001
   43bbb     C3 1225   8.494   1.050   7.907 -0.2838 -0.0074  0.5809
   43bbb     H5 1226   8.449   1.090   7.815  0.0931 -0.2737  0.2751
   43bbb     H6 1227   8.537   0.950   7.899  0.1994  0.1716  0.8440
   43bbb     C4 1228   8.620   1.144   7.929  0.3031  0.3892 -0.1057
   43bbb     H7 1229   8.589   1.249   7.917 -0.4446  0.1005 -0.7563
   43bbb     H8 1230   8.691   1.132   7.847 -1.7366 -1.9222 -1.6362
   43bbb     C5 1231   8.222   1.230   8.107 -0.0056  0.1968 -0.2454
   43bbb     H9 1232   8.145   1.156   8.129 -2.3610  3.1798  2.5875
   43bbb    H10 1233   8.173   1.325   8.082  1.5153  0.3839 -3.0351
   43bbb     C6 1234   8.388   0.826   8.116  0.5408 -0.1458 -0.1987
   43bbb    H11 1235   8.450   0.773   8.043  1.6988  1.0701 -0.1178
   43bbb    H12 1236   8.311   0.751   8.141 -0.3741  0.1938 -1.9074
   43bbb     C7 1237   8.690   1.130   8.063  0.5491  0.6591  0.1106
   43bbb    H13 1238   8.729   1.029   8.077  0.1926  0.3604 -1.0176
   43bbb    H14 1239   8.629   1.147   8.153 -0.7599  0.0425 -0.6206
   43bbb     C8 1240   8.478   0.883   8.236 -0.0273  0.0177  0.9930
   43bbb    H15 1241   8.495   0.991   8.228 -1.5649  0.3263  1.5719
   43bbb    H16 1242   8.574   0.830   8.243 -0.0675 -0.6525 -2.1505
   43bbb     C9 1243   8.312   1.242   8.235 -0.3809  0.0478  0.4340
   43bbb    H17 1244   8.404   1.297   8.212  0.5152 -0.8140  1.8089
   43bbb    H18 1245   8.341   1.139   8.256 -1.8856 -0.2321  1.3144
   43bbb     O1 1246   8.791   1.226   8.063 -0.1781  0.8486  0.4152
   44bbb     N1 1247   9.526   1.924   7.657  0.8082  0.6248 -0.5808
   44bbb     C1 1248   9.599   2.026   7.736  0.0069 -0.0175 -0.4712
   44bbb     H1 1249   9.601   2.114   7.671 -0.6428 -1.1145 -2.0550
   44bbb     H2 1250   9.699   1.991   7.766 -0.2313 -0.7985 -0.5471
   44bbb     C2 1251   9.610   1.887   7.543  0.0173 -0.6429  0.3974
   44bbb     H3 1252   9.562   1.803   7.490  0.4621  0.0450 -1.1641
   44bbb     H4 1253   9.711   1.855   7.571  0.1209 -2.5720 -1.8212
   44bbb     C3 1254   9.470   1.808   7.733 -0.4190  0.5435  0.3710
   44bbb     H5 1255   9.414   1.736   7.672  1.0238 -0.8927  0.6902
   44bbb     H6 1256   9.405   1.836   7.817 -0.8742 -0.0476  0.2232
   44bbb     C4 1257   9.582   1.720   7.795 -0.4379 -0.2055 -0.1447
   44bbb     H7 1258   9.628   1.772   7.880  0.7709 -0.6302 -0.5117
   44bbb     H8 1259   9.666   1.700   7.727 -0.4167  0.6183 -0.3674
   44bbb     C5 1260   9.537   2.067   7.873  0.0774 -0.6903  0.4395
   44bbb     H9 1261   9.519   1.977   7.933 -1.9678 -1.1240 -0.7349
   44bbb    H10 1262   9.441   2.119   7.870 -1.7060 -3.7213  0.9909
   44bbb     C6 1263   9.635   1.994   7.436 -0.3226 -0.0691  0.8657
   44bbb    H11 1264   9.664   1.952   7.338  0.4924 -0.8957  1.4454
   44bbb    H12 1265   9.704   2.071   7.472 -0.8870  0.4227  0.9079
   44bbb     C7 1266   9.528   1.572   7.809  0.1625  0.0750  0.2848
   44bbb    H13 1267   9.611   1.510   7.847  0.4876  0.4202  0.1429
   44bbb    H14 1268   9.498   1.539   7.709 -0.6900 -1.6866  1.0601
   44bbb     C8 1269   9.500   2.067   7.395 -0.4164  0.1772 -1.0338
   44bbb    H15 1270   9.461   2.130   7.475  0.8935 -1.2356  0.8162
   44bbb    H16 1271   9.421   1.996   7.367  1.4986 -1.4357 -2.6851
   44bbb     C9 1272   9.645   2.147   7.956  0.5021 -1.0115  0.1128
   44bbb    H17 1273   9.735   2.086   7.969  0.9586 -0.6033 -1.0028
   44bbb    H18 1274   9.670   2.239   7.902 -1.9804 -0.0133  0.5121
   44bbb     O1 1275   9.408   1.566   7.891 -0.6015 -0.5295 -0.3430
   45bbb     N1 1276   9.438   0.187   8.491  0.0956 -0.2173 -0.2212
   45bbb     C1 1277   9.529   0.285   8.422 -0.1071 -0.5222 -0.3817
   45bbb     H1 1278   9.620   0.305   8.481  0.5460 -0.3399 -1.4299
   45bbb     H2 1279   9.481   0.383   8.411  1.9794  0.4857 -0.9717
   45bbb     C2 1280   9.394   0.230   8.625  0.3641  0.3991 -0.5500
   45bbb     H3 1281   9.330   0.154   8.671  0.4753  1.2030  1.0118
   45bbb     H4 1282   9.326   0.315   8.618  0.7228  0.7437  0.0521
   45bbb     C3 1283   9.324   0.138   8.411 -0.6934  0.8429 -0.8900
   45bbb     H5 1284   9.274   0.064   8.474  0.1119 -2.3427 -3.7097
   45bbb     H6 1285   9.355   0.066   8.334 -0.4600 -0.5233  0.4459
   45bbb     C4 1286   9.219   0.246   8.369 -0.3069 -0.3565 -0.4983
   45bbb     H7 1287   9.267   0.336   8.327 -2.9722  1.5545  0.3086
   45bbb     H8 1288   9.164   0.285   8.455  0.0679  1.8088 -1.1879
   45bbb     C5 1289   9.579   0.234   8.282 -0.4000 -0.3084 -0.1580
   45bbb     H9 1290   9.495   0.225   8.213  0.9748 -0.6073 -1.8794
   45bbb    H10 1291   9.617   0.133   8.301 -0.0608  0.1597  1.9340
   45bbb     C6 1292   9.503   0.271   8.727  0.2746 -0.0438  0.3227
   45bbb    H11 1293   9.544   0.370   8.703  0.2605 -0.3042 -0.8868
   45bbb    H12 1294   9.588   0.203   8.710 -1.4570 -2.3676  0.4406
   45bbb     C7 1295   9.102   0.195   8.285 -0.2168  0.5139  0.3439
   45bbb    H13 1296   9.056   0.103   8.322  0.9518 -0.5605 -0.7928
   45bbb    H14 1297   9.145   0.170   8.187  2.6480  1.8751  1.1331
   45bbb     C8 1298   9.457   0.253   8.870  0.3285  0.0352  0.2304
   45bbb    H15 1299   9.539   0.284   8.936 -0.8801  2.3712  0.7357
   45bbb    H16 1300   9.445   0.149   8.903  0.6662  0.4621  1.7732
   45bbb     C9 1301   9.691   0.326   8.224 -0.2695  0.3302  0.5763
   45bbb    H17 1302   9.782   0.329   8.285  0.7434 -3.0102 -0.5038
   45bbb    H18 1303   9.648   0.426   8.217 -2.0391 -0.3341  1.3212
   45bbb     O1 1304   9.013   0.309   8.286  0.0002  0.1011  0.2539
   46bbb     N1 1305   8.833   1.321   8.614 -0.2316 -0.3378 -0.0453
   46bbb     C1 1306   8.822   1.427   8.513  0.5769  0.4339  0.3821
   46bbb     H1 1307   8.902   1.438   8.439  0.0685 -0.3936 -0.3042
   46bbb     H2 1308   8.827   1.529   8.555 -0.9950  1.3751 -1.5448
   46bbb     C2 1309   8.841   1.383   8.751 -0.1065  0.4957  0.0827
   46bbb     H3 1310   8.929   1.446   8.766 -0.3293  0.0312  5.0903
   46bbb     H4 1311   8.854   1.299   8.820  0.8403 -0.7641 -1.5421
   46bbb     C3 1312   8.943   1.227   8.587 -0.2426  0.0202  0.3209
   46bbb     H5 1313   9.037   1.256   8.636  1.7994 -2.3107 -1.9535
   46bbb     H6 1314   8.961   1.230   8.479 -1.0786  0.6930  0.1858
   46bbb     C4 1315   8.916   1.084   8.638 -0.0711 -0.2854 -0.5903
   46bbb     H7 1316   8.905   1.083   8.747  0.7135 -0.3217 -0.5043
   46bbb     H8 1317   9.010   1.029   8.628  1.0387  1.4062 -0.0136
   46bbb     C5 1318   8.680   1.418   8.449  0.4709 -0.1775 -0.1781
   46bbb     H9 1319   8.600   1.389   8.518 -0.1651  2.5081  0.3122
   46bbb    H10 1320   8.679   1.335   8.377 -1.3367 -1.4979  1.3019
   46bbb     C6 1321   8.717   1.468   8.787 -0.2945  0.7971  0.6049
   46bbb    H11 1322   8.627   1.405   8.794 -0.1108  0.6702  2.3961
   46bbb    H12 1323   8.688   1.544   8.714 -0.5315  0.3426  0.2205
   46bbb     C7 1324   8.811   1.003   8.553 -0.0341  0.1321 -0.1415
   46bbb    H13 1325   8.738   1.079   8.522  1.0551  1.9090  1.4462
   46bbb    H14 1326   8.764   0.927   8.618 -2.1514  1.5597  0.1042
   46bbb     C8 1327   8.725   1.532   8.927  0.8644  1.0915 -0.4296
   46bbb    H15 1328   8.769   1.466   9.003 -0.8310  0.1661 -0.2100
   46bbb    H16 1329   8.622   1.552   8.958  0.2797 -1.0428 -0.8104
   46bbb     C9 1330   8.642   1.549   8.381 -0.0716  1.2338 -0.0984
   46bbb    H17 1331   8.674   1.639   8.435 -2.4198  3.3325 -1.9101
   46bbb    H18 1332   8.533   1.548   8.374 -0.1381  3.4247 -0.2051
   46bbb     O1 1333   8.889   0.957   8.439  0.4204 -0.2802  0.3478
   47ccc     C1 1334   7.714   2.257   7.241  0.5645  0.3309 -0.3997
   47ccc     H1 1335   7.804   2.204   7.206  0.2227  0.8762 -2.2331
   47ccc     H2 1336   7.743   2.343   7.302  0.1001  0.6384 -0.6058
   47ccc     C2 1337   7.652   2.330   7.120  0.1846  0.0997 -0.2021
   47ccc     H3 1338   7.560   2.374   7.161  1.1293  0.9147  1.1073
   47ccc     H4 1339   7.725   2.408   7.093  1.7742 -1.3077 -0.1369
   47ccc     C3 1340   7.634   2.239   6.996  0.0371  0.1705  0.8053
   47ccc     H5 1341   7.606   2.289   6.903 -1.0321 -2.2338 -0.2440
   47ccc     H6 1342   7.554   2.168   7.017 -0.4789  1.0632  1.9605
   47ccc     N1 1343   7.625   2.180   7.333 -0.8510  0.2605  0.4886
   47ccc     H7 1344   7.692   2.144   7.401  1.4099 -0.4287 -1.9533
   47ccc     H8 1345   7.572   2.253   7.381 -2.7005  1.3560 -2.8873
   47ccc     O1 1346   7.760   2.184   6.956 -0.0369 -0.0400  0.4201
   48ccc     C1 1347   8.292   1.535   7.343  0.1204  0.3338  0.1788
   48ccc     H1 1348   8.348   1.465   7.280  0.2834  1.5862 -1.1184
   48ccc     H2 1349   8.367   1.590   7.401  1.0484 -0.2196 -0.4743
   48ccc     C2 1350   8.198   1.629   7.260 -0.3449 -0.9266 -0.7503
   48ccc     H3 1351   8.117   1.574   7.210 -1.0062  0.4617 -1.2405
   48ccc     H4 1352   8.150   1.707   7.320  0.1333 -1.6466  0.6298
   48ccc     C3 1353   8.282   1.688   7.144 -0.5748 -0.1428  0.8977
   48ccc     H5 1354   8.358   1.618   7.107 -0.3558  1.0320 -0.9930
   48ccc     H6 1355   8.336   1.781   7.161  0.5407 -0.5099 -0.4299
   48ccc     N1 1356   8.230   1.469   7.452 -0.2334 -0.0679 -0.5563
   48ccc     H7 1357   8.177   1.545   7.495  0.9643  1.0870 -1.0671
   48ccc     H8 1358   8.158   1.408   7.411  0.1106 -2.0976  1.6554
   48ccc     O1 1359   8.204   1.716   7.030  0.3291 -0.1408  0.0760
   49ccc     C1 1360   9.458   1.136   6.096 -0.3208  0.7685 -0.5676
   49ccc     H1 1361   9.422   1.139   5.992 -3.1383  1.9612  0.3288
   49ccc     H2 1362   9.548   1.198   6.093  0.2252 -0.0133 -0.6509
   49ccc     C2 1363   9.356   1.210   6.179 -0.6334 -0.9505  0.1187
   49ccc     H3 1364   9.387   1.211   6.284  1.8166  1.0965 -0.5231
   49ccc     H4 1365   9.353   1.314   6.145  0.6716 -0.7793  0.4889
   49ccc     C3 1366   9.214   1.158   6.157  0.3507  0.2915 -0.2519
   49ccc     H5 1367   9.146   1.218   6.219 -0.6892 -1.3620  0.3019
   49ccc     H6 1368   9.201   1.050   6.175  2.2776  0.2078  0.9201
   49ccc     N1 1369   9.494   1.008   6.140  0.6173 -0.0440  0.1702
   49ccc     H7 1370   9.591   0.999   6.110  0.6688  1.3014 -0.1702
   49ccc     H8 1371   9.509   1.024   6.239  0.8092 -1.6356  0.4228
   49ccc     O1 1372   9.183   1.186   6.021  0.4332 -0.3901  0.1624
   50ccc     C1 1373   9.278   2.156   5.759  0.8717 -1.2148  0.3213
   50ccc     H1 1374   9.383   2.159   5.789  0.6058  1.9901  1.3453
   50ccc     H2 1375   9.280   2.175   5.651  0.2000  0.5315  0.5842
   50ccc     C2 1376   9.222   2.024   5.818 -0.0933 -0.2424  0.2238
   50ccc     H3 1377   9.272   1.950   5.754 -0.4488  0.5542 -1.0084
   50ccc     H4 1378   9.258   2.014   5.921 -1.2979  0.2405  0.7186
   50ccc     C3 1379   9.066   2.016   5.817  0.1165 -0.8280  0.2232
   50ccc     H5 1380   9.033   2.052   5.719 -2.1119  2.1337  1.9013
   50ccc     H6 1381   9.031   2.087   5.893 -0.3760  1.3068 -1.9073
   50ccc     N1 1382   9.221   2.274   5.826 -0.2506  0.0423  0.6019
   50ccc     H7 1383   9.265   2.345   5.768  1.6106 -1.1758  0.4344
   50ccc     H8 1384   9.120   2.283   5.811 -0.3539 -0.6973  0.8220
   50ccc     O1 1385   9.027   1.881   5.836 -0.3317 -0.2782  0.0360
   51ccc     C1 1386   9.843   1.221   6.382 -0.1337 -0.4081  0.4829
   51ccc     H1 1387   9.885   1.189   6.478  0.2406  0.5243  0.6360
   51ccc     H2 1388   9.841   1.138   6.310  1.0053 -0.3112  0.3137
   51ccc     C2 1389   9.705   1.286   6.404  0.4631  0.2148  0.2989
   51ccc     H3 1390   9.718   1.373   6.469 -0.7259  0.1268  0.6853
   51ccc     H4 1391   9.664   1.313   6.306 -1.0084  0.7515  1.0365
   51ccc     C3 1392   9.593   1.201   6.475 -0.2534  0.2544  0.0992
   51ccc     H5 1393   9.495   1.247   6.456 -1.8559 -2.8474  0.2503
   51ccc     H6 1394   9.605   1.183   6.582 -2.0267 -1.8527  0.0132
   51ccc     N1 1395   9.916   1.333   6.330  0.2051 -0.0675 -0.2093
   51ccc     H7 1396   9.908   1.412   6.394 -0.7282  0.3722 -0.8535
   51ccc     H8 1397  10.012   1.297   6.334 -0.1877 -1.3106 -1.3390
   51ccc     O1 1398   9.594   1.077   6.407 -0.2656 -0.3846  0.2409
   52ccc     C1 1399   9.446   1.428   6.765 -0.4550 -1.2179  0.6774
   52ccc     H1 1400   9.552   1.455   6.772 -0.9892  1.2712  0.1140
   52ccc     H2 1401   9.425   1.338   6.706  0.4813 -1.0802  0.1093
   52ccc     C2 1402   9.400   1.424   6.908  0.4210 -0.0566 -1.2165
   52ccc     H3 1403   9.439   1.512   6.960 -1.1338 -0.3567  0.5979
   52ccc     H4 1404   9.290   1.422   6.904  0.4018 -2.9517 -1.2714
   52ccc     C3 1405   9.456   1.305   6.989 -0.4240  0.1216  0.0611
   52ccc     H5 1406   9.410   1.318   7.088 -2.3117  0.0917 -0.7537
   52ccc     H6 1407   9.565   1.303   6.992 -0.3693  0.7119 -1.0685
   52ccc     N1 1408   9.382   1.537   6.691  0.2899 -0.0708  0.2486
   52ccc     H7 1409   9.428   1.530   6.601  1.5976 -0.7539  0.9507
   52ccc     H8 1410   9.292   1.493   6.672  0.2202 -0.3308  1.1571
   52ccc     O1 1411   9.405   1.183   6.941  0.0509  0.3473  0.2012
   53ccc     C1 1412   7.765   0.750   6.178  0.2647 -0.2520 -0.2240
   53ccc     H1 1413   7.744   0.651   6.136  2.0282 -2.2182  3.1339
   53ccc     H2 1414   7.677   0.788   6.232  0.9588 -0.7065  1.2555
   53ccc     C2 1415   7.882   0.760   6.277 -0.0045  0.3179 -0.1674
   53ccc     H3 1416   7.977   0.719   6.239  1.1597  0.5374  2.3323
   53ccc     H4 1417   7.901   0.864   6.306  0.3044  0.8305 -2.0884
   53ccc     C3 1418   7.843   0.681   6.407 -0.0150 -0.0122 -0.4428
   53ccc     H5 1419   7.834   0.573   6.388  3.3702 -0.6267  0.8579
   53ccc     H6 1420   7.749   0.722   6.447  1.2772  1.8126  0.8715
   53ccc     N1 1421   7.791   0.851   6.075  0.2988  0.2626  0.4212
   53ccc     H7 1422   7.793   0.941   6.122 -0.0538 -0.2072  1.3658
   53ccc     H8 1423   7.887   0.831   6.048  0.2800 -0.4550  0.8681
   53ccc     O1 1424   7.949   0.695   6.498  0.0137  0.3235 -0.1358
   54ccc     C1 1425   8.299   0.674   7.627 -0.3953  0.2249 -0.3555
   54ccc     H1 1426   8.196   0.693   7.661 -0.0001  0.4741  0.7517
   54ccc     H2 1427   8.320   0.568   7.645 -1.6812 -0.3730 -2.0402
   54ccc     C2 1428   8.324   0.702   7.485 -0.3157  0.2662  0.1426
   54ccc     H3 1429   8.316   0.810   7.466  0.1961  0.0941 -1.1343
   54ccc     H4 1430   8.429   0.682   7.460 -0.4050 -2.2444  1.4515
   54ccc     C3 1431   8.235   0.612   7.383 -0.2069 -0.5024  0.3986
   54ccc     H5 1432   8.130   0.643   7.389 -0.1369 -0.1078 -0.3073
   54ccc     H6 1433   8.249   0.506   7.411  1.5471 -0.2271  0.6533
   54ccc     N1 1434   8.375   0.764   7.720 -0.4612  1.3522  0.5573
   54ccc     H7 1435   8.339   0.752   7.814  0.4345  1.1141  0.8770
   54ccc     H8 1436   8.464   0.717   7.734 -1.2252 -0.2043  0.3345
   54ccc     O1 1437   8.280   0.637   7.247 -0.9443 -0.1569 -0.1749
   55ccc     C1 1438  10.154   2.671   8.032 -0.1725 -0.2247  0.0506
   55ccc     H1 1439  10.226   2.637   7.957 -3.0132 -0.2200 -2.9216
   55ccc     H2 1440  10.052   2.641   8.005  0.1818 -2.2150  0.7395
   55ccc     C2 1441  10.192   2.621   8.178  0.1631 -0.2218  0.2906
   55ccc     H3 1442  10.299   2.610   8.199  0.2894  0.7043  0.1589
   55ccc     H4 1443  10.154   2.692   8.252 -1.8127 -1.8074  0.8869
   55ccc     C3 1444  10.129   2.487   8.204 -0.2308 -0.5009  0.1025
   55ccc     H5 1445  10.020   2.497   8.211 -0.1934  3.6332 -1.9985
   55ccc     H6 1446  10.182   2.460   8.296  1.2692 -0.6079 -0.7604
   55ccc     N1 1447  10.158   2.821   8.033 -0.3832  1.3822 -0.1929
   55ccc     H7 1448  10.122   2.853   7.944  0.2938 -0.2202 -1.0844
   55ccc     H8 1449  10.083   2.844   8.098 -0.8842  0.1249 -0.2893
   55ccc     O1 1450  10.179   2.400   8.105  0.0021 -0.0792  0.5261
   56ccc     C1 1451   9.495   2.535   7.961 -0.8355 -0.0610 -0.3935
   56ccc     H1 1452   9.421   2.514   8.039 -2.5887  0.4891 -1.8138
   56ccc     H2 1453   9.590   2.502   8.004 -0.9840  1.3721  1.1008
   56ccc     C2 1454   9.473   2.477   7.817  0.3572 -0.0564  0.0764
   56ccc     H3 1455   9.472   2.368   7.826 -0.8140  0.1211  2.8083
   56ccc     H4 1456   9.373   2.507   7.780  0.4267 -2.2512 -2.1900
   56ccc     C3 1457   9.582   2.515   7.712  0.4951  0.3195  0.4079
   56ccc     H5 1458   9.592   2.624   7.716 -1.4645  0.5609 -0.0689
   56ccc     H6 1459   9.533   2.481   7.620  2.1177 -0.2257 -0.2852
   56ccc     N1 1460   9.512   2.683   7.963  0.1788 -0.4564  0.2220
   56ccc     H7 1461   9.547   2.687   8.059 -1.0608 -1.0012  0.7162
   56ccc     H8 1462   9.592   2.709   7.905  2.2279  0.9481  3.4004
   56ccc     O1 1463   9.699   2.436   7.746  0.2414 -0.3408  0.6383
   57ccc     C1 1464  10.579   1.324   9.148  0.0974  0.5768  0.7971
   57ccc     H1 1465  10.635   1.412   9.113  0.8319 -0.3700 -0.4987
   57ccc     H2 1466  10.496   1.371   9.202  0.4975  0.3917  1.5832
   57ccc     C2 1467  10.539   1.239   9.025  0.0749  0.3773  0.1607
   57ccc     H3 1468  10.480   1.150   9.050  1.7059 -0.6586  0.4372
   57ccc     H4 1469  10.482   1.296   8.950  1.2392  1.9510  0.4194
   57ccc     C3 1470  10.668   1.206   8.948 -0.8469  0.1180  0.4024
   57ccc     H5 1471  10.644   1.138   8.866  0.8292 -1.9984  1.5680
   57ccc     H6 1472  10.746   1.155   9.005 -1.1596 -1.2542 -0.3634
   57ccc     N1 1473  10.668   1.253   9.237  0.1367 -0.4549 -0.2884
   57ccc     H7 1474  10.716   1.187   9.176  0.8770  0.5390 -0.8028
   57ccc     H8 1475  10.741   1.316   9.270 -0.8879  0.1825  0.8557
   57ccc     O1 1476  10.714   1.336   8.891 -0.0445 -0.1585  0.0949
   58ccc     C1 1477  11.284   2.284   8.475 -0.6811 -0.0585  0.2906
   58ccc     H1 1478  11.378   2.236   8.447 -1.2866 -2.0425  1.4701
   58ccc     H2 1479  11.259   2.355   8.395 -1.0529 -1.0413 -0.4831
   58ccc     C2 1480  11.180   2.168   8.489 -0.0895  0.2134 -0.8483
   58ccc     H3 1481  11.086   2.218   8.515  0.3668 -0.3648  2.3845
   58ccc     H4 1482  11.171   2.115   8.394 -1.0689 -0.9289 -0.1443
   58ccc     C3 1483  11.193   2.071   8.613  0.4684 -0.1232  0.0642
   58ccc     H5 1484  11.204   2.127   8.706 -1.2094  1.3282 -0.5543
   58ccc     H6 1485  11.277   2.002   8.593  1.1825  0.5085  0.8090
   58ccc     N1 1486  11.294   2.360   8.602  0.0548  0.5537 -0.8488
   58ccc     H7 1487  11.202   2.397   8.627  0.1300 -0.8900  1.9075
   58ccc     H8 1488  11.302   2.293   8.678 -0.4079 -1.6242 -2.5896
   58ccc     O1 1489  11.069   2.002   8.618 -0.6909 -0.3415 -0.4253
   59ccc     C1 1490   8.595   0.574   8.635  0.2172  0.1398  0.4524
   59ccc     H1 1491   8.530   0.589   8.722  0.3371  0.9114  0.4223
   59ccc     H2 1492   8.591   0.669   8.579  0.9210 -0.3765 -0.4980
   59ccc     C2 1493   8.739   0.550   8.690 -0.2240  0.5387 -0.7817
   59ccc     H3 1494   8.752   0.620   8.774  0.5684  0.2087 -0.6280
   59ccc     H4 1495   8.760   0.453   8.735  2.7694  1.7821  0.7721
   59ccc     C3 1496   8.838   0.584   8.575  0.2810 -0.3804 -0.7660
   59ccc     H5 1497   8.799   0.679   8.536 -1.7369 -0.7574  0.2032
   59ccc     H6 1498   8.844   0.507   8.498  1.9260  2.1283 -3.3629
   59ccc     N1 1499   8.554   0.464   8.547  0.2552  0.2673 -0.3332
   59ccc     H7 1500   8.547   0.382   8.607  0.8765 -0.0954 -0.7469
   59ccc     H8 1501   8.461   0.485   8.512 -0.1331  0.9727  1.0379
   59ccc     O1 1502   8.965   0.602   8.642 -0.8549  0.1295  0.5585
   60ccc     C1 1503   8.969   0.920   9.154  0.5529  0.2340  0.1835
   60ccc     H1 1504   8.866   0.941   9.125  1.0165  2.1081 -0.2455
   60ccc     H2 1505   8.967   0.829   9.216  2.1485  0.1416  0.1444
   60ccc     C2 1506   9.056   0.886   9.025  0.3229  0.1879 -0.3726
   60ccc     H3 1507   9.011   0.809   8.962 -0.2047  1.3782 -1.4981
   60ccc     H4 1508   9.058   0.977   8.964 -0.4826 -1.9730 -3.9054
   60ccc     C3 1509   9.202   0.847   9.061  0.2032  0.1987  0.0553
   60ccc     H5 1510   9.212   0.764   9.132  2.2917 -1.1086 -1.6590
   60ccc     H6 1511   9.249   0.936   9.104 -1.3714  1.1536 -0.1081
   60ccc     N1 1512   9.009   1.041   9.224 -0.0086  0.0998 -0.1906
   60ccc     H7 1513   8.934   1.053   9.292  0.5454 -0.7887  0.6044
   60ccc     H8 1514   9.083   1.013   9.288 -3.0610  0.1286  3.7881
   60ccc     O1 1515   9.258   0.810   8.936  0.6882 -0.2076 -0.3889
   61ccc     C1 1516  10.436   1.812   8.145 -0.0135 -0.1679  0.0622
   61ccc     H1 1517  10.445   1.774   8.248  0.8310  0.0533  0.0767
   61ccc     H2 1518  10.501   1.748   8.084 -0.1738  0.3202 -0.6345
   61ccc     C2 1519  10.290   1.777   8.089  0.1931 -0.0284  0.6941
   61ccc     H3 1520  10.212   1.807   8.160  1.0242  1.2164  1.1054
   61ccc     H4 1521  10.278   1.823   7.990 -1.2518 -1.6211  0.0816
   61ccc     C3 1522  10.273   1.625   8.059 -0.6495 -0.0965 -0.0501
   61ccc     H5 1523  10.349   1.606   7.982 -1.6425 -0.0515 -1.0665
   61ccc     H6 1524  10.172   1.603   8.023 -0.5550 -2.0990  0.7811
   61ccc     N1 1525  10.460   1.951   8.123 -0.2390 -0.1844  0.0539
   61ccc     H7 1526  10.439   1.996   8.212 -0.8315  0.7607 -0.5415
   61ccc     H8 1527  10.560   1.957   8.138 -0.3135  0.5571  0.2746
   61ccc     O1 1528  10.315   1.549   8.173  0.1225  0.4800 -0.2243
   62ccc     C1 1529  10.312   0.608   8.621  0.5587 -0.1657 -0.2350
   62ccc     H1 1530  10.324   0.621   8.513  0.3366  0.4442 -0.1897
   62ccc     H2 1531  10.385   0.663   8.683  0.6539  0.1436 -0.6188
   62ccc     C2 1532  10.166   0.666   8.652 -0.4901  0.3801  0.2640
   62ccc     H3 1533  10.093   0.607   8.594 -0.7336  1.5523 -0.6676
   62ccc     H4 1534  10.136   0.644   8.755 -0.7159 -0.9714 -0.0706
   62ccc     C3 1535  10.148   0.814   8.619  0.0991 -0.6253 -0.7906
   62ccc     H5 1536  10.050   0.850   8.652 -0.6460 -1.9575 -1.4677
   62ccc     H6 1537  10.154   0.829   8.511 -1.4282 -1.1990 -0.9772
   62ccc     N1 1538  10.303   0.462   8.651 -0.0258  0.2281 -0.1104
   62ccc     H7 1539  10.395   0.420   8.637 -1.1895 -2.5587 -0.0428
   62ccc     H8 1540  10.298   0.459   8.753 -0.6980 -2.5134 -0.1666
   62ccc     O1 1541  10.248   0.904   8.678  0.2566 -0.4572  0.2432
   63ccc     C1 1542  10.078   2.608   8.721  0.8917 -0.3454  0.9066
   63ccc     H1 1543  10.047   2.543   8.804  1.3897 -1.6867  0.0673
   63ccc     H2 1544  10.165   2.665   8.755 -0.7823  3.1449 -0.1999
   63ccc     C2 1545  10.113   2.524   8.593  0.1396 -0.7297 -0.1328
   63ccc     H3 1546  10.034   2.451   8.571 -0.1412 -0.7024  0.7424
   63ccc     H4 1547  10.108   2.596   8.511 -0.6327  0.9314  1.3314
   63ccc     C3 1548  10.254   2.466   8.594 -0.7636  0.3959 -0.5077
   63ccc     H5 1549  10.333   2.538   8.618 -0.7271  0.2400 -0.1450
   63ccc     H6 1550  10.276   2.415   8.500  2.0679  1.3588 -0.4626
   63ccc     N1 1551   9.976   2.709   8.697 -0.1399  0.5680 -0.7319
   63ccc     H7 1552   9.974   2.757   8.787  1.1990 -2.6409  1.1441
   63ccc     H8 1553  10.031   2.767   8.633  1.1786  0.4245  0.2460
   63ccc     O1 1554  10.260   2.359   8.703  0.1340  0.2339  0.7397
   64ccc     C1 1555  10.609   2.124   8.585  0.3482  0.3144 -0.0870
   64ccc     H1 1556  10.574   2.208   8.647 -0.1026  1.4958 -1.8842
   64ccc     H2 1557  10.560   2.034   8.624 -2.7661  1.7646 -0.3459
   64ccc     C2 1558  10.577   2.136   8.436  0.3990 -0.6628 -0.1421
   64ccc     H3 1559  10.613   2.230   8.394 -1.6319 -0.3269 -1.2731
   64ccc     H4 1560  10.625   2.054   8.381  1.4046  1.5340 -2.7321
   64ccc     C3 1561  10.426   2.138   8.396  0.2395 -0.3403 -0.1444
   64ccc     H5 1562  10.406   2.173   8.294 -2.3964 -1.3543 -0.0622
   64ccc     H6 1563  10.367   2.202   8.463 -0.2685 -2.0055  1.0974
   64ccc     N1 1564  10.750   2.126   8.599 -0.5208  0.1079 -0.1414
   64ccc     H7 1565  10.807   2.049   8.563  1.5133 -0.7774  4.3045
   64ccc     H8 1566  10.776   2.200   8.534  0.7470 -0.8736 -0.8053
   64ccc     O1 1567  10.379   2.007   8.395 -0.0960  0.2049 -0.1105
   65ccc     C1 1568   8.954   1.511   7.772 -0.4879  0.1911  0.3588
   65ccc     H1 1569   9.017   1.513   7.863 -2.1272 -0.9935  1.5732
   65ccc     H2 1570   8.891   1.600   7.766 -0.2789  0.2659 -0.8998
   65ccc     C2 1571   9.041   1.503   7.655 -0.1881 -0.3895  0.1568
   65ccc     H3 1572   9.102   1.412   7.660  3.1678  1.6764  0.0945
   65ccc     H4 1573   8.992   1.506   7.557 -1.8129 -4.3156  0.6394
   65ccc     C3 1574   9.153   1.611   7.656  1.1660 -0.1563 -0.3492
   65ccc     H5 1575   9.228   1.598   7.577 -0.1360  1.3371 -1.9081
   65ccc     H6 1576   9.209   1.602   7.750  1.3903 -0.3162 -0.4957
   65ccc     N1 1577   8.874   1.384   7.778  0.2376  0.4259 -0.0064
   65ccc     H7 1578   8.951   1.319   7.787  0.5762  0.9552  1.0981
   65ccc     H8 1579   8.846   1.389   7.876  0.0612 -0.7333  0.0174
   65ccc     O1 1580   9.086   1.737   7.627  0.1258  0.1298 -0.2127
   66ccc     C1 1581   9.001   2.837   7.409 -0.2880  0.1717  0.1146
   66ccc     H1 1582   8.932   2.754   7.394  1.1637 -0.9134 -0.8065
   66ccc     H2 1583   9.032   2.831   7.514  0.6789  0.5048 -0.1429
   66ccc     C2 1584   9.108   2.821   7.295  0.5117  1.1623  0.3204
   66ccc     H3 1585   9.065   2.851   7.199 -2.7274 -0.1819  1.2220
   66ccc     H4 1586   9.186   2.895   7.317  0.7109  1.4795 -1.3603
   66ccc     C3 1587   9.185   2.686   7.278  0.6270  0.2101 -0.5464
   66ccc     H5 1588   9.257   2.696   7.197 -0.5774  0.6287 -1.6042
   66ccc     H6 1589   9.107   2.612   7.257  1.0155 -1.1929  2.4860
   66ccc     N1 1590   8.921   2.959   7.382  0.2169  0.3974 -0.1044
   66ccc     H7 1591   8.991   3.033   7.388 -0.6650  1.1452  1.9205
   66ccc     H8 1592   8.898   2.947   7.284  0.9460 -0.8931 -0.1393
   66ccc     O1 1593   9.253   2.665   7.406 -0.1525 -0.1298 -0.2436
   67ccc     C1 1594   8.508   0.313   7.107  0.0259 -0.6345  0.1574
   67ccc     H1 1595   8.490   0.383   7.024 -1.9672  0.2945  1.3024
   67ccc     H2 1596   8.533   0.225   7.046  0.7503 -0.2081 -0.1750
   67ccc     C2 1597   8.631   0.357   7.199  0.3060  0.7024  0.6234
   67ccc     H3 1598   8.657   0.283   7.275 -0.8516 -0.4151 -0.0235
   67ccc     H4 1599   8.722   0.363   7.139 -0.5466  0.3680 -0.7636
   67ccc     C3 1600   8.606   0.497   7.260 -0.1446 -0.5885  0.1896
   67ccc     H5 1601   8.680   0.525   7.336  0.6528 -0.4018 -0.6366
   67ccc     H6 1602   8.510   0.508   7.311  0.3057  1.0704  0.7428
   67ccc     N1 1603   8.385   0.282   7.183  0.2452  0.2179 -0.4169
   67ccc     H7 1604   8.350   0.372   7.216  0.3570  0.3685 -0.7030
   67ccc     H8 1605   8.318   0.251   7.113  0.7908  0.5550 -1.0949
   67ccc     O1 1606   8.614   0.597   7.158  0.7444  0.2299 -0.1324
   68ccc     C1 1607   9.269   0.399   7.477 -0.5188 -0.6255 -0.4571
   68ccc     H1 1608   9.327   0.486   7.444 -0.9217 -0.6120 -1.1627
   68ccc     H2 1609   9.223   0.410   7.576 -0.0731 -0.9471 -0.2150
   68ccc     C2 1610   9.153   0.369   7.377  0.1496 -0.0937  0.2465
   68ccc     H3 1611   9.180   0.352   7.272  1.6014  2.4483  0.1457
   68ccc     H4 1612   9.117   0.270   7.408  0.1263 -0.0276  0.4323
   68ccc     C3 1613   9.033   0.473   7.377 -0.8958  0.1652 -0.4522
   68ccc     H5 1614   8.979   0.472   7.472  0.4201  0.5001  0.3365
   68ccc     H6 1615   8.961   0.446   7.300 -0.1132  0.9131 -1.4718
   68ccc     N1 1616   9.354   0.290   7.477 -0.2780  0.2902 -0.2234
   68ccc     H7 1617   9.293   0.208   7.487  0.5873 -0.2518  0.8603
   68ccc     H8 1618   9.368   0.273   7.378 -1.0829 -0.0650 -0.2885
   68ccc     O1 1619   9.079   0.602   7.347  0.3739  1.0342 -0.5676
   69ccc     C1 1620   7.939   3.211   7.135 -0.1460 -0.0250 -0.3299
   69ccc     H1 1621   7.841   3.253   7.107  0.6473  1.4729 -0.9748
   69ccc     H2 1622   7.964   3.254   7.232  0.9539 -2.2317  0.4190
   69ccc     C2 1623   7.935   3.060   7.147  0.3658 -0.0823  0.2586
   69ccc     H3 1624   7.839   3.029   7.190 -0.9973  1.3726 -1.5414
   69ccc     H4 1625   7.931   3.020   7.045  0.0187 -3.6070  1.5170
   69ccc     C3 1626   8.060   2.993   7.220 -0.2555  0.1610  0.6593
   69ccc     H5 1627   8.064   3.039   7.319  0.7374  2.0379 -0.1938
   69ccc     H6 1628   8.151   3.019   7.164 -0.2587  0.8115  0.9453
   69ccc     N1 1629   8.037   3.241   7.027 -0.0656 -0.0172 -0.0076
   69ccc     H7 1630   7.980   3.221   6.945 -2.5149 -1.1586  1.8222
   69ccc     H8 1631   8.049   3.342   7.021 -0.0165 -0.1308 -2.6884
   69ccc     O1 1632   8.047   2.855   7.225  0.4401 -0.0906 -0.4865
   70ccc     C1 1633   7.783   1.840   7.231  0.0675 -0.1287 -0.5584
   70ccc     H1 1634   7.832   1.770   7.162  0.1073  0.7684 -1.4601
   70ccc     H2 1635   7.710   1.791   7.297  0.7220  0.0443  0.3233
   70ccc     C2 1636   7.899   1.912   7.300 -0.6793  0.0299 -0.5805
   70ccc     H3 1637   7.853   1.995   7.354 -0.0061 -0.2865  0.5086
   70ccc     H4 1638   7.949   1.858   7.382  0.1376  1.4464 -0.0953
   70ccc     C3 1639   8.005   1.970   7.206 -0.3666  0.7477 -0.3404
   70ccc     H5 1640   7.948   2.022   7.128 -0.4575  1.6646  0.3192
   70ccc     H6 1641   8.083   1.900   7.176 -0.0756  1.2114 -0.6794
   70ccc     N1 1642   7.701   1.938   7.152 -0.3531  0.2064 -0.1821
   70ccc     H7 1643   7.663   2.011   7.213  2.0379  1.0333  0.4345
   70ccc     H8 1644   7.763   1.997   7.096 -0.7516  1.4274  0.6233
   70ccc     O1 1645   8.078   2.074   7.282 -0.2825  0.2295  0.0490
   71ccc     C1 1646   8.355   0.595   6.161  0.2764 -0.1986  0.0490
   71ccc     H1 1647   8.395   0.616   6.060  0.3615 -1.0658 -0.1026
   71ccc     H2 1648   8.301   0.504   6.137 -3.0859  1.8998 -1.0284
   71ccc     C2 1649   8.460   0.559   6.266  0.0137  0.9470 -0.6513
   71ccc     H3 1650   8.410   0.504   6.346 -1.6897  1.4256 -1.3403
   71ccc     H4 1651   8.535   0.492   6.221 -0.2932  0.5669 -0.5984
   71ccc     C3 1652   8.531   0.681   6.331  0.0196 -0.4034  0.1920
   71ccc     H5 1653   8.582   0.650   6.423  1.1759 -1.7257 -0.8493
   71ccc     H6 1654   8.459   0.753   6.372 -0.5744  0.6008 -2.4249
   71ccc     N1 1655   8.266   0.703   6.203  0.3966 -0.8188  0.1070
   71ccc     H7 1656   8.330   0.779   6.223 -1.5926  0.1823  3.2464
   71ccc     H8 1657   8.205   0.732   6.127  0.3646  2.8697  1.3726
   71ccc     O1 1658   8.613   0.748   6.234 -0.0870  0.0678 -0.6802
   72ccc     C1 1659   8.104   1.147   5.843 -1.0937  0.0685  1.0875
   72ccc     H1 1660   8.103   1.216   5.758 -2.1249 -0.4188  0.6945
   72ccc     H2 1661   8.208   1.141   5.878 -0.0785  3.7946 -0.8178
   72ccc     C2 1662   8.007   1.178   5.955  0.0344 -0.2249  0.3847
   72ccc     H3 1663   7.902   1.183   5.923 -0.0904 -0.0453  0.8214
   72ccc     H4 1664   7.996   1.092   6.022 -0.2694  0.0614  0.7060
   72ccc     C3 1665   8.047   1.294   6.049 -0.7905  0.1186  0.1082
   72ccc     H5 1666   7.982   1.281   6.136 -0.0642 -0.2483  0.6097
   72ccc     H6 1667   8.021   1.393   6.009  0.8809  1.0902  1.2899
   72ccc     N1 1668   8.079   1.010   5.789  0.2861 -0.5550 -0.2476
   72ccc     H7 1669   7.982   1.007   5.760 -0.4065 -0.6335  1.8814
   72ccc     H8 1670   8.148   1.009   5.714  1.2841  1.5641  0.5562
   72ccc     O1 1671   8.185   1.286   6.085  0.2974  0.2047 -0.4424
   73ccc     C1 1672   7.840   1.352   5.681  0.1315 -0.5392 -0.3035
   73ccc     H1 1673   7.900   1.313   5.597  3.1308 -0.9079  1.8298
   73ccc     H2 1674   7.826   1.273   5.755  0.7365 -0.7344 -0.3886
   73ccc     C2 1675   7.904   1.479   5.737  0.2790 -0.2898  0.0777
   73ccc     H3 1676   8.002   1.442   5.771  0.9975  0.1193 -1.4375
   73ccc     H4 1677   7.923   1.548   5.654 -0.4807  0.4393  0.5021
   73ccc     C3 1678   7.830   1.545   5.841 -0.0990 -0.3692 -1.0780
   73ccc     H5 1679   7.735   1.579   5.798 -0.2490  2.0049  0.8996
   73ccc     H6 1680   7.877   1.637   5.879 -0.5347 -1.3513  2.0663
   73ccc     N1 1681   7.705   1.377   5.627 -0.3033 -0.5598 -0.2346
   73ccc     H7 1682   7.712   1.435   5.544 -0.7767 -0.3057 -0.1019
   73ccc     H8 1683   7.683   1.288   5.583 -0.9365  0.3304 -1.7705
   73ccc     O1 1684   7.801   1.448   5.946 -0.5157  0.2760  0.2016
   74ccc     C1 1685   7.172   1.131   6.837 -0.1649 -0.4693  0.3989
   74ccc     H1 1686   7.159   1.024   6.858  1.1074 -0.8263 -0.5207
   74ccc     H2 1687   7.176   1.195   6.927 -1.9939  2.1353 -1.2212
   74ccc     C2 1688   7.317   1.134   6.771 -0.4907  0.3675  0.1357
   74ccc     H3 1689   7.351   1.235   6.747 -2.1715  0.8809 -0.1756
   74ccc     H4 1690   7.387   1.087   6.841 -0.3048 -0.7442 -0.7620
   74ccc     C3 1691   7.321   1.050   6.640  0.0126  0.1025  0.0790
   74ccc     H5 1692   7.256   1.095   6.564  0.9151  2.9725  0.8766
   74ccc     H6 1693   7.300   0.943   6.648  0.5114  0.1014  1.9898
   74ccc     N1 1694   7.064   1.185   6.754  0.4967  0.1358 -0.0056
   74ccc     H7 1695   6.983   1.188   6.815 -0.1891 -2.0258 -0.7418
   74ccc     H8 1696   7.081   1.284   6.735  0.8215  0.0419 -0.2161
   74ccc     O1 1697   7.444   1.074   6.595 -0.0538 -0.2048  0.3830
   75ccc     C1 1698   7.459   1.488   6.639 -0.1960  0.3466 -0.0929
   75ccc     H1 1699   7.421   1.429   6.555  0.5628 -0.9212  0.4306
   75ccc     H2 1700   7.486   1.414   6.715 -1.8630 -1.2825 -0.9958
   75ccc     C2 1701   7.585   1.568   6.600 -0.1190 -0.3323 -0.2205
   75ccc     H3 1702   7.661   1.509   6.547  2.4526  0.5772  2.2322
   75ccc     H4 1703   7.573   1.659   6.540  1.4018  1.5314  2.1107
   75ccc     C3 1704   7.658   1.626   6.722  0.0586  0.5623 -0.8350
   75ccc     H5 1705   7.592   1.691   6.780  0.3292 -0.7636  1.0676
   75ccc     H6 1706   7.738   1.692   6.685 -1.1305  3.3375  1.2440
   75ccc     N1 1707   7.352   1.563   6.705  0.0575 -0.3282 -0.0270
   75ccc     H7 1708   7.397   1.607   6.785  0.3060  3.7963 -2.1779
   75ccc     H8 1709   7.333   1.644   6.647  1.0075 -0.4206 -0.4849
   75ccc     O1 1710   7.711   1.522   6.810  0.3149  0.3190 -0.2532
   76ccc     C1 1711   7.568   0.762   6.770 -0.1583 -0.0043 -0.5771
   76ccc     H1 1712   7.528   0.795   6.673 -1.0448  2.4186  0.5275
   76ccc     H2 1713   7.596   0.656   6.777  0.2515  0.1127 -0.4112
   76ccc     C2 1714   7.687   0.848   6.810  0.3129 -0.2454 -0.4887
   76ccc     H3 1715   7.768   0.843   6.736 -1.1470 -3.3802 -2.0287
   76ccc     H4 1716   7.658   0.954   6.806  1.5596  0.2150  1.4301
   76ccc     C3 1717   7.746   0.814   6.948 -0.3373 -0.4267  0.0128
   76ccc     H5 1718   7.781   0.711   6.957  0.7614  0.0055  0.9334
   76ccc     H6 1719   7.671   0.840   7.023  2.1116  1.0978  2.0844
   76ccc     N1 1720   7.448   0.765   6.853 -0.1894 -0.3153 -0.1200
   76ccc     H7 1721   7.395   0.842   6.812 -2.4739 -1.3159  0.8010
   76ccc     H8 1722   7.402   0.687   6.808 -1.0559 -0.8646  1.6151
   76ccc     O1 1723   7.863   0.897   6.954 -0.4477 -0.6548  0.5923
   77ccc     C1 1724   8.667   2.234   5.996 -0.3340  0.5256 -0.2237
   77ccc     H1 1725   8.640   2.138   6.042  0.7819  0.1233 -0.3738
   77ccc     H2 1726   8.583   2.269   5.934 -0.5442  0.9866  0.3113
   77ccc     C2 1727   8.700   2.328   6.111 -0.0460  0.0745 -0.1548
   77ccc     H3 1728   8.783   2.290   6.172  0.0086 -1.1357 -0.9470
   77ccc     H4 1729   8.742   2.421   6.072 -0.5705 -0.5646 -2.4192
   77ccc     C3 1730   8.571   2.350   6.194  0.2016 -0.5365 -0.5031
   77ccc     H5 1731   8.558   2.255   6.248  5.6330 -1.7513 -0.7380
   77ccc     H6 1732   8.487   2.376   6.128  0.6702  1.0325 -0.5244
   77ccc     N1 1733   8.791   2.211   5.912  0.0090  0.0777 -0.2731
   77ccc     H7 1734   8.836   2.302   5.914  2.3357 -0.9618 -1.5966
   77ccc     H8 1735   8.851   2.146   5.963  1.2158 -0.1795 -1.9489
   77ccc     O1 1736   8.600   2.452   6.296  0.6178 -0.0200 -0.0674
   78ccc     C1 1737   8.171   2.259   6.019  0.6348  0.5593 -0.4029
   78ccc     H1 1738   8.204   2.242   5.916  0.3572  1.7183 -0.6960
   78ccc     H2 1739   8.063   2.239   6.026  0.6152  0.6083 -0.5779
   78ccc     C2 1740   8.232   2.159   6.128 -0.1695 -0.8167 -0.0248
   78ccc     H3 1741   8.241   2.060   6.083 -1.0117 -0.9397  0.0659
   78ccc     H4 1742   8.337   2.187   6.143 -0.2688  0.0086 -0.8093
   78ccc     C3 1743   8.151   2.155   6.256 -0.4052  0.0384  0.2912
   78ccc     H5 1744   8.173   2.058   6.304 -2.2679  0.2329  1.6397
   78ccc     H6 1745   8.048   2.168   6.223  0.4278  3.0843 -1.4197
   78ccc     N1 1746   8.193   2.392   6.050  0.5469 -0.4197 -0.0086
   78ccc     H7 1747   8.105   2.421   6.007  0.1238 -1.2160  0.3060
   78ccc     H8 1748   8.168   2.392   6.148 -1.3372  1.0482 -0.4325
   78ccc     O1 1749   8.213   2.252   6.347  0.1996  0.0280 -0.2315
   79ccc     C1 1750  10.540   1.760   8.949  0.5357  0.0720  0.8167
   79ccc     H1 1751  10.595   1.778   8.856  1.3416 -0.9794  1.0760
   79ccc     H2 1752  10.477   1.845   8.978 -3.2191 -1.7363 -1.2740
   79ccc     C2 1753  10.454   1.633   8.913 -0.1869  0.3566  0.1725
   79ccc     H3 1754  10.397   1.660   8.824 -0.0401  1.1364  0.3118
   79ccc     H4 1755  10.520   1.550   8.882  0.2589  0.8894 -0.3091
   79ccc     C3 1756  10.364   1.599   9.035  0.0584  0.9041 -0.2957
   79ccc     H5 1757  10.427   1.590   9.124 -1.2953  1.3447  0.7382
   79ccc     H6 1758  10.313   1.503   9.018  2.1312  0.2349 -3.8402
   79ccc     N1 1759  10.648   1.737   9.041  0.2262 -0.0709 -0.5056
   79ccc     H7 1760  10.716   1.694   8.979  2.6734  0.0185  1.9224
   79ccc     H8 1761  10.694   1.826   9.061 -0.4799  0.0266  0.7625
   79ccc     O1 1762  10.273   1.710   9.046  0.2900  0.4799  0.2058
   80ccc     C1 1763   9.679   2.493   8.786  0.5793  0.2621  0.3802
   80ccc     H1 1764   9.583   2.448   8.760  0.9124 -0.2189 -0.0487
   80ccc     H2 1765   9.662   2.566   8.866 -1.4748  0.7257 -0.4141
   80ccc     C2 1766   9.774   2.375   8.821  0.0558  0.2666  0.1204
   80ccc     H3 1767   9.822   2.338   8.730 -0.3201  0.3487 -0.1130
   80ccc     H4 1768   9.869   2.415   8.858  1.2261 -1.9223 -0.3476
   80ccc     C3 1769   9.700   2.273   8.916 -0.4377  0.4028 -0.2948
   80ccc     H5 1770   9.657   2.188   8.862 -0.1346  0.3372 -0.4344
   80ccc     H6 1771   9.613   2.326   8.957 -0.8493 -1.9996  2.2356
   80ccc     N1 1772   9.716   2.572   8.668  0.1209  0.8329  0.2507
   80ccc     H7 1773   9.809   2.608   8.688  0.6317  0.2560 -1.0152
   80ccc     H8 1774   9.732   2.510   8.589 -0.7830  2.2920 -1.1477
   80ccc     O1 1775   9.795   2.238   9.021 -0.1827 -0.0633  0.3443
   81ccc     C1 1776   9.305   2.149   9.010 -0.1744 -0.2517 -0.3375
   81ccc     H1 1777   9.392   2.161   8.943 -1.6325 -0.0817 -2.3033
   81ccc     H2 1778   9.216   2.148   8.945  1.6923  1.3104 -3.1613
   81ccc     C2 1779   9.310   2.009   9.081 -0.2413 -0.2015  0.3932
   81ccc     H3 1780   9.402   1.999   9.139 -0.3604  1.4847  0.9265
   81ccc     H4 1781   9.230   1.990   9.154 -1.0581 -1.7063 -0.8203
   81ccc     C3 1782   9.300   1.897   8.976  0.4242  0.1120  0.2392
   81ccc     H5 1783   9.314   1.801   9.028 -0.4072  0.6235  1.4493
   81ccc     H6 1784   9.382   1.908   8.903  0.3662  1.9915  0.4033
   81ccc     N1 1785   9.314   2.262   9.099  0.4237 -0.0296 -0.3097
   81ccc     H7 1786   9.306   2.348   9.044  0.2152  0.5540  0.6195
   81ccc     H8 1787   9.235   2.248   9.162  0.0368 -3.5341 -1.3559
   81ccc     O1 1788   9.179   1.894   8.904 -0.2027 -0.0283  0.4552
   82ccc     C1 1789   8.300   1.865   8.382  0.0456 -0.5568 -0.0958
   82ccc     H1 1790   8.386   1.799   8.398  0.5015  0.3717  1.5869
   82ccc     H2 1791   8.209   1.829   8.432  0.8289 -0.2693  1.6334
   82ccc     C2 1792   8.327   2.008   8.428  0.0445 -0.5422 -0.1638
   82ccc     H3 1793   8.397   2.059   8.360  0.9982  0.3786  1.4483
   82ccc     H4 1794   8.234   2.067   8.423  0.2418 -0.1656  0.4566
   82ccc     C3 1795   8.392   2.008   8.568 -0.7126 -0.1312  0.0657
   82ccc     H5 1796   8.337   1.940   8.635 -0.6873 -2.0234 -1.7399
   82ccc     H6 1797   8.391   2.110   8.607 -2.2073  0.1291 -0.5768
   82ccc     N1 1798   8.278   1.848   8.239 -0.3713 -0.0810  0.0756
   82ccc     H7 1799   8.372   1.873   8.207 -0.0331  0.9318  1.7316
   82ccc     H8 1800   8.272   1.748   8.222 -2.6532 -0.1193  0.7676
   82ccc     O1 1801   8.528   1.964   8.542  0.2676 -0.3084 -0.0637
   83ccc     C1 1802   9.676   0.768   9.323 -0.3098  0.7909  0.2991
   83ccc     H1 1803   9.684   0.667   9.281  0.2177  0.6842  0.6541
   83ccc     H2 1804   9.775   0.810   9.307 -1.0591  2.2432 -0.7534
   83ccc     C2 1805   9.582   0.860   9.251  0.2916 -0.1632  0.7858
   83ccc     H3 1806   9.616   0.861   9.147  0.3492  1.9280  0.7717
   83ccc     H4 1807   9.475   0.837   9.250  0.0672  0.8398  0.9675
   83ccc     C3 1808   9.592   1.007   9.295  0.2759  0.0999  0.1825
   83ccc     H5 1809   9.696   1.040   9.302 -0.4780  2.9087 -0.5621
   83ccc     H6 1810   9.542   1.031   9.390 -0.2671  0.6751 -0.2407
   83ccc     N1 1811   9.648   0.780   9.469 -0.0097  0.1139 -0.5419
   83ccc     H7 1812   9.547   0.783   9.483  0.0094  2.0807 -0.5161
   83ccc     H8 1813   9.675   0.693   9.516  1.3239  0.9087  0.2360
   83ccc     O1 1814   9.522   1.082   9.191 -0.0366 -0.0140 -0.3785
   84ccc     C1 1815   9.716   1.686   9.404  0.3383  0.4210 -0.2424
   84ccc     H1 1816   9.690   1.671   9.509  1.6284  1.4404  0.2416
   84ccc     H2 1817   9.760   1.594   9.364 -3.9921 -2.5750  1.0453
   84ccc     C2 1818   9.587   1.713   9.320  0.3224  0.3828  0.3064
   84ccc     H3 1819   9.547   1.810   9.349  1.1360  0.3726  1.5127
   84ccc     H4 1820   9.616   1.715   9.214  2.6647  1.4564  0.9115
   84ccc     C3 1821   9.484   1.601   9.340 -0.0743 -0.3737 -0.7758
   84ccc     H5 1822   9.444   1.608   9.442 -0.9243 -0.9950 -1.0546
   84ccc     H6 1823   9.520   1.497   9.346 -2.6579 -1.3084 -0.1147
   84ccc     N1 1824   9.816   1.791   9.409 -0.3115  0.0480 -0.1277
   84ccc     H7 1825   9.875   1.749   9.480 -1.4340  0.9550  1.4210
   84ccc     H8 1826   9.863   1.785   9.319 -1.9464  1.7030 -1.1687
   84ccc     O1 1827   9.384   1.611   9.246 -0.2792 -0.2376 -0.0351
   85ccc     C1 1828   9.776   0.463   8.965 -0.1859  0.2857  0.0011
   85ccc     H1 1829   9.704   0.396   9.014 -0.1155 -2.0631 -2.8126
   85ccc     H2 1830   9.723   0.463   8.869 -0.4670 -0.3502  0.1456
   85ccc     C2 1831   9.794   0.606   9.030  0.5807 -0.0535  0.2833
   85ccc     H3 1832   9.696   0.655   9.023  0.0921 -0.8776  1.1090
   85ccc     H4 1833   9.827   0.598   9.134  0.4242  0.4991  0.3771
   85ccc     C3 1834   9.895   0.698   8.955  0.1098  0.3113  0.0826
   85ccc     H5 1835   9.873   0.703   8.848 -1.1501 -2.1461  0.1571
   85ccc     H6 1836   9.993   0.652   8.974  0.1046 -0.5456 -1.7434
   85ccc     N1 1837   9.899   0.388   8.957 -0.6604  0.3171 -0.3236
   85ccc     H7 1838   9.971   0.436   8.903  2.3071 -0.6903  2.4633
   85ccc     H8 1839   9.929   0.370   9.052 -0.5198 -1.3014 -0.6430
   85ccc     O1 1840   9.894   0.825   9.018 -0.4301 -0.2346  0.2633
   86ccc     C1 1841  10.270   1.585   9.555  0.1570 -0.1493 -0.5249
   86ccc     H1 1842  10.283   1.521   9.467 -0.1512 -1.5270  0.4002
   86ccc     H2 1843  10.321   1.681   9.543 -0.2574  0.2880  1.0238
   86ccc     C2 1844  10.118   1.592   9.578 -0.1965 -0.1430 -0.4133
   86ccc     H3 1845  10.091   1.618   9.681 -1.7722  1.2822 -1.1303
   86ccc     H4 1846  10.075   1.669   9.512 -0.7105 -0.6625 -0.6848
   86ccc     C3 1847  10.035   1.461   9.555 -0.2497 -0.8804 -0.1460
   86ccc     H5 1848   9.939   1.465   9.608 -0.1789 -0.8747 -0.0195
   86ccc     H6 1849  10.097   1.384   9.602  1.3203 -0.1046 -0.8982
   86ccc     N1 1850  10.336   1.513   9.662  0.4144 -0.5827 -0.0395
   86ccc     H7 1851  10.323   1.415   9.638 -1.9999 -0.1304 -0.8545
   86ccc     H8 1852  10.437   1.523   9.656  0.2240  2.1166  0.0279
   86ccc     O1 1853  10.011   1.435   9.415 -0.3874 -0.9727 -0.2006
   87ccc     C1 1854   8.212   0.968   8.584 -1.0762 -0.0580  0.5576
   87ccc     H1 1855   8.227   1.067   8.629 -0.8816 -0.4379  1.3531
   87ccc     H2 1856   8.166   0.974   8.485 -0.1567  1.5957  0.1834
   87ccc     C2 1857   8.339   0.887   8.582  0.3149 -0.0783 -0.0909
   87ccc     H3 1858   8.388   0.902   8.679  0.8268  1.2053 -0.5189
   87ccc     H4 1859   8.324   0.779   8.575  0.9427 -0.0754 -2.0476
   87ccc     C3 1860   8.434   0.926   8.469 -0.4697  0.1090  0.0895
   87ccc     H5 1861   8.536   0.901   8.501 -0.2630 -1.7836 -1.8059
   87ccc     H6 1862   8.434   1.035   8.453  1.2707 -0.1974 -2.5406
   87ccc     N1 1863   8.107   0.902   8.658 -0.3868 -0.4260  0.1013
   87ccc     H7 1864   8.132   0.806   8.634 -0.0288 -0.0722 -0.9906
   87ccc     H8 1865   8.146   0.906   8.752  2.9633 -1.8584 -1.0526
   87ccc     O1 1866   8.397   0.863   8.352  0.1378  0.1054 -0.0453
   88ccc     C1 1867   8.201   1.534   8.548  0.0170 -0.0252  0.2218
   88ccc     H1 1868   8.300   1.562   8.511 -0.8223 -0.4234 -2.5314
   88ccc     H2 1869   8.141   1.583   8.470 -0.6477 -2.3364 -0.8033
   88ccc     C2 1870   8.191   1.383   8.562  0.0110  0.3559 -1.4952
   88ccc     H3 1871   8.216   1.361   8.667 -0.3121  1.0912 -1.2542
   88ccc     H4 1872   8.084   1.362   8.551  0.0420 -1.4089  0.7542
   88ccc     C3 1873   8.285   1.306   8.468 -0.3178  0.1433  0.2231
   88ccc     H5 1874   8.305   1.205   8.504  1.3263  0.3792  0.0436
   88ccc     H6 1875   8.377   1.365   8.468 -0.4833  0.4907  2.2565
   88ccc     N1 1876   8.166   1.611   8.667 -0.1499  0.6316 -0.7490
   88ccc     H7 1877   8.131   1.703   8.639 -3.1534  0.6953  2.5291
   88ccc     H8 1878   8.084   1.570   8.711  1.1332 -0.6847  0.5036
   88ccc     O1 1879   8.226   1.298   8.341  0.5227  1.1426  0.0783
   89ccc     C1 1880   9.572   2.207   7.010  0.2814 -0.6259 -0.0858
   89ccc     H1 1881   9.667   2.194   7.064  1.1340  0.5572 -1.2283
   89ccc     H2 1882   9.521   2.115   6.980 -2.7294  1.1177 -0.7557
   89ccc     C2 1883   9.474   2.288   7.093  0.3363  0.2486  0.9219
   89ccc     H3 1884   9.527   2.377   7.131  1.6458 -1.0146  2.1665
   89ccc     H4 1885   9.390   2.338   7.043 -0.1974 -0.7576  0.7851
   89ccc     C3 1886   9.424   2.205   7.214 -1.0208  0.1561 -0.6771
   89ccc     H5 1887   9.364   2.123   7.172 -3.2012  2.1209 -1.6121
   89ccc     H6 1888   9.360   2.268   7.277 -1.4257  0.4261 -1.3539
   89ccc     N1 1889   9.610   2.270   6.882  0.7052 -0.1206  0.1329
   89ccc     H7 1890   9.670   2.201   6.837 -1.1680 -2.2139  0.6918
   89ccc     H8 1891   9.525   2.271   6.825  0.6653 -1.9624  0.0917
   89ccc     O1 1892   9.536   2.151   7.286 -0.3869 -0.0328 -0.0352
   90ccc     C1 1893   9.843   2.301   8.337 -0.3192  0.1762  0.4380
   90ccc     H1 1894   9.931   2.257   8.387  1.3644  0.7097 -1.8813
   90ccc     H2 1895   9.877   2.384   8.274 -2.0821  1.2729  0.8671
   90ccc     C2 1896   9.754   2.203   8.255  0.3343  0.0463  0.0930
   90ccc     H3 1897   9.816   2.132   8.198  0.0199 -1.0570  1.0695
   90ccc     H4 1898   9.710   2.129   8.323  1.5119 -0.9736 -0.2173
   90ccc     C3 1899   9.658   2.280   8.169 -0.1885 -0.2898 -0.6178
   90ccc     H5 1900   9.713   2.350   8.104  0.7253 -1.8501 -1.5858
   90ccc     H6 1901   9.584   2.333   8.229 -1.0212  0.4791 -2.2499
   90ccc     N1 1902   9.760   2.382   8.430 -0.2887  0.1663 -0.3701
   90ccc     H7 1903   9.672   2.395   8.379 -0.8394 -1.3896  0.1420
   90ccc     H8 1904   9.721   2.318   8.499 -0.3806  0.9244  0.2970
   90ccc     O1 1905   9.587   2.187   8.080 -0.1968  0.0055 -0.5662
   91ccc     C1 1906   9.078   0.418   8.924 -0.4177 -0.6707  0.5811
   91ccc     H1 1907   9.136   0.447   8.836 -1.9917 -0.6860 -0.4966
   91ccc     H2 1908   9.007   0.339   8.899  0.5702 -1.4473  0.2077
   91ccc     C2 1909   9.156   0.373   9.044 -0.0126  0.3304  0.6499
   91ccc     H3 1910   9.208   0.457   9.093  0.9932  0.1692 -0.0998
   91ccc     H4 1911   9.085   0.337   9.119  1.2971  0.2652  1.8974
   91ccc     C3 1912   9.262   0.266   9.011 -0.2409  0.1166  0.1467
   91ccc     H5 1913   9.228   0.162   9.000  1.3329 -0.5182  0.9304
   91ccc     H6 1914   9.336   0.249   9.090 -0.2487 -2.9004 -0.3901
   91ccc     N1 1915   9.000   0.532   8.946  0.2579 -0.1806 -0.0868
   91ccc     H7 1916   9.074   0.601   8.934 -0.2752  0.1870 -1.3055
   91ccc     H8 1917   8.950   0.550   8.860 -0.3599 -0.8820  0.1151
   91ccc     O1 1918   9.329   0.308   8.892  0.2398  0.4752 -0.1629
   92ccc     C1 1919   9.825   0.193   7.821 -0.2291  1.0190  0.4642
   92ccc     H1 1920   9.918   0.154   7.866  2.3611  0.9252 -4.3375
   92ccc     H2 1921   9.745   0.130   7.862  0.0204 -0.0071 -0.5808
   92ccc     C2 1922   9.806   0.340   7.872 -0.3403 -0.3801 -0.5396
   92ccc     H3 1923   9.882   0.407   7.830  0.4011  0.2174  1.5921
   92ccc     H4 1924   9.709   0.382   7.844 -0.0929  1.7970  1.4879
   92ccc     C3 1925   9.824   0.355   8.029  0.2374  0.0557  0.2600
   92ccc     H5 1926   9.810   0.456   8.069  2.2068 -0.0817  1.3936
   92ccc     H6 1927   9.922   0.316   8.056  1.6218  2.5374 -0.8674
   92ccc     N1 1928   9.845   0.171   7.675  0.0689  0.0731  0.2790
   92ccc     H7 1929   9.835   0.070   7.664 -0.2133 -0.0954  1.8323
   92ccc     H8 1930   9.759   0.210   7.636  0.7187  1.3103  0.0250
   92ccc     O1 1931   9.720   0.282   8.088  0.2517 -0.1854 -0.1146
   93ccc     C1 1932   8.871   1.954   9.132  0.1490 -0.0177  0.5315
   93ccc     H1 1933   8.767   1.973   9.161  0.5540 -0.1694  2.1826
   93ccc     H2 1934   8.934   1.929   9.219  1.7388  0.7986 -0.3234
   93ccc     C2 1935   8.882   1.849   9.021 -0.2244  0.8699  0.0301
   93ccc     H3 1936   8.836   1.879   8.925  0.4714  1.3080 -0.1732
   93ccc     H4 1937   8.987   1.820   9.011 -0.3622  0.0459  0.8628
   93ccc     C3 1938   8.804   1.711   9.051  0.1061 -0.7048 -0.5291
   93ccc     H5 1939   8.704   1.747   9.077  1.7547  4.1525  0.2272
   93ccc     H6 1940   8.856   1.658   9.132  3.2044  1.6762 -0.7638
   93ccc     N1 1941   8.914   2.081   9.070  1.0269  0.9162 -0.0259
   93ccc     H7 1942   9.000   2.074   9.017  0.4677  0.9697 -0.9607
   93ccc     H8 1943   8.845   2.091   8.996  0.9326 -0.7006 -0.2067
   93ccc     O1 1944   8.810   1.640   8.932 -0.1701 -0.0819  0.4032
   94ccc     C1 1945   8.490   1.575   8.030  0.8659  0.0237  0.1688
   94ccc     H1 1946   8.565   1.554   7.953  1.1892 -2.0353  0.9745
   94ccc     H2 1947   8.464   1.487   8.091  0.2218  1.8531  2.6905
   94ccc     C2 1948   8.537   1.689   8.118  0.6026 -0.5841  0.2551
   94ccc     H3 1949   8.543   1.781   8.058  1.1055 -0.8964 -0.1787
   94ccc     H4 1950   8.471   1.705   8.204 -0.1870  0.1740 -0.4686
   94ccc     C3 1951   8.678   1.676   8.177 -0.3522 -0.0586 -0.0983
   94ccc     H5 1952   8.688   1.762   8.244 -2.4566  1.1406 -1.2342
   94ccc     H6 1953   8.749   1.690   8.095 -2.3718  1.0415 -1.7388
   94ccc     N1 1954   8.369   1.613   7.957 -1.1502  0.2459  0.0475
   94ccc     H7 1955   8.397   1.705   7.922  0.2240  0.2147  0.9867
   94ccc     H8 1956   8.365   1.553   7.875 -3.0010  1.7333 -1.0265
   94ccc     O1 1957   8.696   1.552   8.241  0.2803  0.2841  0.1198
   95SOL     OW 1958   8.867   3.638   8.095 -0.3704  0.0235  0.4227
   95SOL    HW1 1959   8.879   3.578   8.168 -0.4972  1.9981  2.1388
   95SOL    HW2 1960   8.950   3.686   8.090 -0.8639  0.8489  0.1523
   96SOL     OW 1961   3.402   7.316   2.816  0.5692  0.5345 -0.1754
   96SOL    HW1 1962   3.487   7.345   2.849  1.1688  0.7117 -1.7640
   96SOL    HW2 1963   3.422   7.237   2.766 -0.1808  0.6145 -0.6143
   97SOL     OW 1964   3.719   3.208   2.251  0.3790 -0.2413 -0.1897
   97SOL    HW1 1965   3.654   3.199   2.180  0.5680 -0.5454 -0.3271
   97SOL    HW2 1966   3.729   3.303   2.262  0.7534 -0.1774 -0.9520
   98SOL     OW 1967   4.365   1.224   1.064 -0.4563 -0.5406 -0.2317
   98SOL    HW1 1968   4.420   1.286   1.017 -2.3880  1.7830  0.3800
   98SOL    HW2 1969   4.371   1.250   1.155  0.2655 -2.5924  0.3515
   99SOL     OW 1970   9.295   9.086   7.511  0.1229  0.2760 -0.3753
   99SOL    HW1 1971   9.345   9.162   7.540 -0.2474  0.4653 -0.2282
   99SOL    HW2 1972   9.296   9.027   7.586 -0.1800  0.4374 -0.2391
  100SOL     OW 1973   4.965   7.266   2.609 -0.0357 -0.2802 -0.1799
  100SOL    HW1 1974   4.965   7.209   2.533  0.6499 -0.6006  0.0533
  100SOL    HW2 1975   4.975   7.354   2.572 -1.1239 -0.2918 -0.5392
  101SOL     OW 1976   1.735   2.191   5.051 -0.3413  0.2179 -0.2767
  101SOL    HW1 1977   1.681   2.115   5.075  0.3262 -0.4121 -0.6966
  101SOL    HW2 1978   1.752   2.236   5.134 -0.5213 -0.2573  0.0242
  102SOL     OW 1979   5.580   4.521   9.611 -0.2592 -0.0545 -0.7390
  102SOL    HW1 1980   5.494   4.487   9.636 -0.7314  2.0923  0.8262
  102SOL    HW2 1981   5.573   4.616   9.623  3.0470  0.0306  1.8990
  103SOL     OW 1982   8.991   0.969   5.176 -0.1643 -0.1903  0.5488
  103SOL    HW1 1983   9.033   0.977   5.261 -0.0936  3.3929  0.3268
  103SOL    HW2 1984   8.897   0.968   5.195 -0.1365 -0.3412  0.6812
  104SOL     OW 1985   3.202   3.061   0.435 -0.2137 -0.4364 -0.1206
  104SOL    HW1 1986   3.171   3.051   0.525  1.2824  2.4262  0.8573
  104SOL    HW2 1987   3.134   3.021   0.381 -2.4391  0.0483  2.1571
  105SOL     OW 1988   7.173   1.241   7.193 -0.0503 -0.1597  0.5506
  105SOL    HW1 1989   7.188   1.310   7.129  0.7975  0.7396  1.6685
  105SOL    HW2 1990   7.242   1.177   7.177 -0.6262 -0.5810 -0.2644
  106SOL     OW 1991   9.008   2.277   9.582  0.0140  0.2569 -0.0513
  106SOL    HW1 1992   8.995   2.301   9.674 -2.1279  3.1029 -0.9652
  106SOL    HW2 1993   9.090   2.321   9.557  0.6059 -0.5300  0.4361
  107SOL     OW 1994   5.758   0.149   9.207 -0.4365  1.1400 -0.2610
  107SOL    HW1 1995   5.749   0.214   9.276 -1.5004  0.2050  0.5195
  107SOL    HW2 1996   5.676   0.152   9.159 -2.2836 -2.2269  2.2155
  108SOL     OW 1997   3.260   6.914   5.589  0.2855  0.0236  0.0502
  108SOL    HW1 1998   3.233   6.876   5.506  1.7503  0.6827 -0.7692
  108SOL    HW2 1999   3.190   6.976   5.611 -1.3559 -1.9170  0.6226
  109SOL     OW 2000   0.426   6.750   0.954 -0.9189  0.1097  0.3881
  109SOL    HW1 2001   0.500   6.757   1.014  0.3410  2.7761 -1.2834
  109SOL    HW2 2002   0.463   6.712   0.874 -1.7439 -0.0299  0.0595
  110SOL     OW 2003   4.777   7.631   1.031  0.7440 -0.1964 -0.0442
  110SOL    HW1 2004   4.834   7.566   1.072 -0.2407 -0.3556  1.1442
  110SOL    HW2 2005   4.713   7.579   0.982  1.7645 -0.0104 -1.6405
  111SOL     OW 2006   8.958   4.128   5.252  0.1035 -0.3242  0.6259
  111SOL    HW1 2007   8.925   4.055   5.304  0.3315 -0.6967  0.2520
  111SOL    HW2 2008   8.900   4.132   5.177  1.5195 -1.6967 -0.6167
  112SOL     OW 2009   3.066   8.598   5.603 -0.2776 -0.0748  0.4488
  112SOL    HW1 2010   3.094   8.616   5.514 -1.4517 -0.6073 -0.0491
  112SOL    HW2 2011   3.098   8.672   5.654 -1.6994  1.5344 -0.8724
  113SOL     OW 2012   8.488   8.924   7.720 -0.1653 -0.0306  0.2369
  113SOL    HW1 2013   8.456   8.836   7.698 -1.1486  0.2760  0.3889
  113SOL    HW2 2014   8.556   8.909   7.785 -2.3239 -0.5797  2.5203
  114SOL     OW 2015   5.831   3.037   0.216  0.1662  0.0668 -0.3607
  114SOL    HW1 2016   5.848   2.953   0.259 -1.7483  0.1355  0.6371
  114SOL    HW2 2017   5.740   3.032   0.188 -0.7209  2.5726  1.6583
  115SOL     OW 2018   6.561   4.070   2.886  0.0508  0.2370  0.3065
  115SOL    HW1 2019   6.491   4.122   2.925  0.7495  1.9296 -0.5422
  115SOL    HW2 2020   6.517   4.014   2.822 -0.7487 -0.3370  1.3414
  116SOL     OW 2021   1.840   4.815   3.294 -0.0866 -0.2512  0.1752
  116SOL    HW1 2022   1.810   4.726   3.313 -0.1987 -0.4982 -1.0507
  116SOL    HW2 2023   1.762   4.869   3.307 -0.2614 -0.4670  0.0408
  117SOL     OW 2024   7.303   0.580   7.657 -0.3167 -0.1095  0.0414
  117SOL    HW1 2025   7.383   0.633   7.660 -1.0830  1.0337  2.0303
  117SOL    HW2 2026   7.312   0.529   7.577  1.5567  1.3271 -0.7607
  118SOL     OW 2027   6.343   2.017   2.072 -0.5232 -0.3352  0.6454
  118SOL    HW1 2028   6.318   1.978   1.988 -0.8294  0.2447  0.4617
  118SOL    HW2 2029   6.332   1.946   2.135 -0.1820 -0.8089  0.1818
  119SOL     OW 2030   8.866   7.287   3.342 -0.0256 -0.3081  0.2113
  119SOL    HW1 2031   8.856   7.287   3.437  1.1867 -0.3462  0.3574
  119SOL    HW2 2032   8.823   7.368   3.313  0.2130  0.0656  0.8704
  120SOL     OW 2033   7.852   5.376   3.768 -0.0010 -0.0408  0.5633
  120SOL    HW1 2034   7.802   5.301   3.799 -1.0665 -0.0567 -1.0871
  120SOL    HW2 2035   7.920   5.339   3.711 -0.1248  0.1973  0.2547
  121SOL     OW 2036   3.699   3.169   6.711  0.0355  0.7477  0.5872
  121SOL    HW1 2037   3.706   3.218   6.629 -0.8377  0.7661  0.5124
  121SOL    HW2 2038   3.665   3.233   6.774 -0.8066  0.3280  0.5666
  122SOL     OW 2039   6.033   4.962   1.590  0.3703 -0.1461 -0.1349
  122SOL    HW1 2040   5.947   5.002   1.602  0.1263 -0.6220 -0.3037
  122SOL    HW2 2041   6.070   5.010   1.515  0.1809 -0.0675 -0.1801
  123SOL     OW 2042   3.654   5.660   7.421  0.5027 -0.7063  0.4276
  123SOL    HW1 2043   3.721   5.609   7.467  1.0291  2.1820  3.1958
  123SOL    HW2 2044   3.586   5.675   7.487  0.2496  1.8667 -0.3014
  124SOL     OW 2045   3.774   9.601   6.965 -0.0276  0.0167  0.3282
  124SOL    HW1 2046   3.691   9.616   7.010 -0.2603  1.5740 -0.5414
  124SOL    HW2 2047   3.833   9.570   7.033 -1.1775 -0.5896  1.0715
  125SOL     OW 2048   2.766   7.003   6.937  0.2949 -0.3171 -0.1224
  125SOL    HW1 2049   2.745   6.968   6.851 -1.1162  0.7805 -0.2643
  125SOL    HW2 2050   2.707   6.956   6.997  0.5992 -0.4009  0.1135
  126SOL     OW 2051   1.235   9.564   7.547 -0.8942 -0.0664 -0.3234
  126SOL    HW1 2052   1.161   9.509   7.523 -1.2106 -0.1216  0.7537
  126SOL    HW2 2053   1.294   9.506   7.595 -2.3989  1.0166  3.0963
  127SOL     OW 2054   5.037   5.048   6.338  0.4677  0.5352  0.3220
  127SOL    HW1 2055   5.001   5.067   6.252 -0.5995 -0.3045  0.5631
  127SOL    HW2 2056   5.132   5.046   6.325  0.5033  2.9102 -0.3050
  128SOL     OW 2057   0.756   5.761   3.782 -0.0175 -0.5550 -1.1373
  128SOL    HW1 2058   0.839   5.749   3.829  0.3366  1.1717 -1.2489
  128SOL    HW2 2059   0.766   5.844   3.737 -2.3996  0.5295  0.1198
  129SOL     OW 2060   8.922   8.291   1.245  0.3654  0.4165 -0.7031
  129SOL    HW1 2061   8.952   8.244   1.168  2.2809  0.0502  0.2005
  129SOL    HW2 2062   8.957   8.380   1.234  1.8080  0.0140  0.3123
  130SOL     OW 2063   4.316   8.318   9.355 -0.3775  0.2156 -0.0259
  130SOL    HW1 2064   4.343   8.226   9.353 -0.4577  0.2024 -0.5969
  130SOL    HW2 2065   4.221   8.315   9.350 -0.3461  0.3489 -0.9532
  131SOL     OW 2066   3.450   9.618   1.456  0.2926  0.1115  0.0476
  131SOL    HW1 2067   3.378   9.674   1.426  0.1898 -0.5710 -1.0572
  131SOL    HW2 2068   3.456   9.635   1.550 -1.8478 -0.3667  0.3464
  132SOL     OW 2069   7.062   6.098   7.111 -0.9161 -1.0222 -0.0507
  132SOL    HW1 2070   6.974   6.123   7.083 -0.9545 -0.9221  0.1582
  132SOL    HW2 2071   7.070   6.133   7.199 -0.5429 -0.7467 -0.1942
  133SOL     OW 2072   8.263   1.620   2.904  0.1278  0.2542 -0.3127
  133SOL    HW1 2073   8.219   1.704   2.896  0.7930  0.5575 -0.9806
  133SOL    HW2 2074   8.300   1.620   2.992  2.0010  1.6390 -1.0247
  134SOL     OW 2075   3.007   5.353   7.727 -0.2743 -0.0545 -0.3041
  134SOL    HW1 2076   3.035   5.409   7.655 -1.1409  0.1294 -0.5108
  134SOL    HW2 2077   2.917   5.380   7.745 -0.5777 -1.1128 -0.1521
  135SOL     OW 2078   6.780   0.742   5.197  0.2131  0.5011  0.1226
  135SOL    HW1 2079   6.688   0.715   5.194  0.4433 -0.2382 -1.3041
  135SOL    HW2 2080   6.799   0.752   5.290 -1.0245 -0.3507  0.4994
  136SOL     OW 2081   8.348   2.509   7.939 -0.1975  0.3524 -0.0206
  136SOL    HW1 2082   8.269   2.552   7.908 -1.0112  0.2021  1.7326
  136SOL    HW2 2083   8.417   2.540   7.881 -0.9901  2.9192  0.3134
  137SOL     OW 2084   8.157   6.720   5.343 -0.5647 -0.2568  0.2610
  137SOL    HW1 2085   8.214   6.643   5.342 -1.1709 -0.7171  0.0716
  137SOL    HW2 2086   8.102   6.708   5.421  0.6076  0.9587  1.3213
  138SOL     OW 2087   4.586   7.558   4.049 -0.3462 -0.1566  0.3686
  138SOL    HW1 2088   4.502   7.575   4.006 -0.3299  0.8926  0.7104
  138SOL    HW2 2089   4.567   7.487   4.111 -0.3022 -1.8854 -1.5088
  139SOL     OW 2090   3.112   4.870   4.260  0.2575  0.1195  0.0738
  139SOL    HW1 2091   3.149   4.886   4.173  0.2592 -1.9605 -0.3582
  139SOL    HW2 2092   3.177   4.814   4.303 -1.0025 -1.1486  0.3877
  140SOL     OW 2093   7.194   2.358   0.826  0.8854  0.2079  0.1841
  140SOL    HW1 2094   7.272   2.401   0.789 -0.3746  0.8858 -1.8879
  140SOL    HW2 2095   7.127   2.367   0.758 -1.0023 -0.4436  1.8452
  141SOL     OW 2096   1.166   0.539   2.540  0.6285  0.5567 -0.1287
  141SOL    HW1 2097   1.161   0.581   2.454 -0.1871  0.8966  0.0742
  141SOL    HW2 2098   1.205   0.453   2.522  0.4479  0.6171 -0.8458
  142SOL     OW 2099   5.041   7.054   7.616  0.6849  0.2615 -0.1788
  142SOL    HW1 2100   4.983   7.129   7.631 -0.4585 -0.2550 -1.7755
  142SOL    HW2 2101   5.069   7.028   7.704 -2.1871  0.0271  0.7774
  143SOL     OW 2102   7.824   7.076   4.787 -0.4692  0.5785 -0.3000
  143SOL    HW1 2103   7.903   7.077   4.733  0.2724  0.6775  0.7486
  143SOL    HW2 2104   7.771   7.004   4.751  1.0968 -0.9656  0.3345
  144SOL     OW 2105   8.799   6.311   4.169  0.1664 -0.1877  0.6201
  144SOL    HW1 2106   8.860   6.240   4.190  0.5580 -0.2461 -0.6489
  144SOL    HW2 2107   8.730   6.268   4.118  0.8442  0.4600 -0.9056
  145SOL     OW 2108   6.675   6.676   3.717 -0.1392  0.1758 -0.2503
  145SOL    HW1 2109   6.708   6.614   3.783 -0.6517  0.5685  0.3840
  145SOL    HW2 2110   6.584   6.691   3.742 -0.8948 -1.0431 -2.0941
  146SOL     OW 2111   9.284   5.275   0.682 -0.1148  0.0324 -0.0318
  146SOL    HW1 2112   9.373   5.305   0.665  0.3110 -1.4684 -0.5352
  146SOL    HW2 2113   9.264   5.310   0.770  0.3911  1.6006 -0.4972
  147SOL     OW 2114   8.292   3.061   0.031 -0.4100  0.4525 -0.3567
  147SOL    HW1 2115   8.246   3.102   0.104 -1.2079 -1.3461  0.1860
  147SOL    HW2 2116   8.350   2.997   0.071  0.4709  0.6801 -1.2157
  148SOL     OW 2117   6.468   2.527   8.198 -0.5448  0.1128 -0.0215
  148SOL    HW1 2118   6.398   2.506   8.137 -1.2930 -0.0608  0.8648
  148SOL    HW2 2119   6.486   2.445   8.244  1.9738 -0.4991 -1.8813
  149SOL     OW 2120   4.268   0.449   4.676 -0.2067  0.5942 -0.2215
  149SOL    HW1 2121   4.212   0.506   4.728 -1.0159  0.1625 -0.5975
  149SOL    HW2 2122   4.295   0.504   4.602  1.3643  1.3720  0.8703
  150SOL     OW 2123   5.942   4.563   5.691 -0.1303  0.0786 -0.0194
  150SOL    HW1 2124   5.934   4.645   5.644 -4.3986 -0.0817  0.0259
  150SOL    HW2 2125   5.893   4.577   5.772  0.1052 -2.1201  0.5716
  151SOL     OW 2126   2.037   6.031   6.747 -0.3874  0.0470  0.2999
  151SOL    HW1 2127   2.017   5.988   6.830 -0.3830 -0.6865 -0.0659
  151SOL    HW2 2128   1.969   6.097   6.736 -0.0714  0.5330  1.1466
  152SOL     OW 2129   3.972   9.541   7.169  0.5618  0.0871 -0.0685
  152SOL    HW1 2130   3.988   9.635   7.166  0.4984  0.1055  0.1304
  152SOL    HW2 2131   4.058   9.501   7.154  0.4872  0.1683 -0.7627
  153SOL     OW 2132   4.209   3.889   9.448 -0.1386  0.3661  0.0418
  153SOL    HW1 2133   4.288   3.928   9.410 -0.0092  0.3041  0.2440
  153SOL    HW2 2134   4.196   3.938   9.529 -1.2231  1.4640 -0.7598
  154SOL     OW 2135   3.296   4.031   4.858 -0.3995  0.1312 -0.5071
  154SOL    HW1 2136   3.382   4.037   4.900  0.0472  0.0816 -1.4013
  154SOL    HW2 2137   3.240   4.088   4.912 -0.4315 -1.6816  1.5170
  155SOL     OW 2138   6.558   7.043   1.938 -0.5078  0.1950  0.1218
  155SOL    HW1 2139   6.532   7.108   1.872  0.3524  0.8892  0.4338
  155SOL    HW2 2140   6.646   7.017   1.911 -1.5419 -2.3323 -1.0989
  156SOL     OW 2141   9.163   9.639   3.846 -0.1595  0.3528 -0.4848
  156SOL    HW1 2142   9.148   9.597   3.931 -0.1643 -1.8362 -1.4885
  156SOL    HW2 2143   9.241   9.693   3.859 -0.8264  0.9698  1.1808
  157SOL     OW 2144   0.362   5.557   9.597 -0.7443  0.5072 -0.1035
  157SOL    HW1 2145   0.292   5.527   9.538 -1.4186  2.1965 -0.2147
  157SOL    HW2 2146   0.317   5.615   9.658  0.7195  2.4658 -0.8105
  158SOL     OW 2147   3.049   6.601   4.641 -0.5342 -0.4158 -0.2508
  158SOL    HW1 2148   3.003   6.635   4.718 -0.6838 -0.0168 -0.5143
  158SOL    HW2 2149   2.997   6.631   4.567 -1.2758 -2.1289 -0.4678
  159SOL     OW 2150   1.949   5.826   9.119 -0.6359 -0.6784  0.4677
  159SOL    HW1 2151   1.876   5.827   9.181 -0.2495 -1.7843  0.9866
  159SOL    HW2 2152   2.018   5.876   9.163 -0.8500 -0.2122  0.2770
  160SOL     OW 2153   7.269   5.792   2.440 -0.3433 -0.3591 -0.4836
  160SOL    HW1 2154   7.184   5.750   2.425 -0.9651  1.1549 -1.4145
  160SOL    HW2 2155   7.295   5.763   2.528 -1.9306 -0.6786 -0.0925
  161SOL     OW 2156   9.501   1.701   5.724  0.1892 -0.3231 -0.1604
  161SOL    HW1 2157   9.496   1.659   5.810  1.0885 -1.8482 -0.8029
  161SOL    HW2 2158   9.471   1.633   5.663  4.0205 -1.0416 -1.4960
  162SOL     OW 2159   1.115   1.188   2.880  0.7182 -0.2426  0.0678
  162SOL    HW1 2160   1.083   1.101   2.906 -0.2259 -0.3790 -1.4123
  162SOL    HW2 2161   1.156   1.174   2.795 -1.2777  1.0319 -1.2180
  163SOL     OW 2162   4.343   4.727   3.056 -0.3223  0.7568 -0.3165
  163SOL    HW1 2163   4.302   4.722   2.970 -1.0735  1.6742 -0.0268
  163SOL    HW2 2164   4.422   4.779   3.043  0.8009 -1.0071 -0.8749
  164SOL     OW 2165   4.287   5.509   1.367  0.0078 -0.0079 -0.6124
  164SOL    HW1 2166   4.199   5.544   1.361 -1.8592 -3.6876  1.5026
  164SOL    HW2 2167   4.290   5.465   1.452  3.3428 -1.4126 -1.2828
  165SOL     OW 2168   1.266   2.357   5.041 -0.8055  0.4495  0.4173
  165SOL    HW1 2169   1.326   2.290   5.009 -2.2200 -1.2688  1.2472
  165SOL    HW2 2170   1.280   2.431   4.981  1.7607 -0.0289  0.2875
  166SOL     OW 2171   2.577   2.236   5.335 -0.1203  0.3137 -0.1808
  166SOL    HW1 2172   2.517   2.232   5.409  0.1259 -0.5260 -0.0196
  166SOL    HW2 2173   2.634   2.310   5.354  1.1217 -0.9516  1.4002
  167SOL     OW 2174   6.327   4.471   1.525 -0.0745 -0.2283  0.2171
  167SOL    HW1 2175   6.238   4.472   1.559  0.1062  2.5046  0.8072
  167SOL    HW2 2176   6.380   4.435   1.596 -0.5856 -1.2261  0.1121
  168SOL     OW 2177   7.533   7.282   1.422 -0.1106  0.5522 -0.5909
  168SOL    HW1 2178   7.586   7.307   1.346 -0.4354 -1.0958 -1.4030
  168SOL    HW2 2179   7.466   7.223   1.387 -0.9189  0.5715  0.8223
  169SOL     OW 2180   4.818   1.476   0.006  0.2946 -0.6140 -0.1578
  169SOL    HW1 2181   4.904   1.435   0.007  2.2654  2.9886 -2.5982
  169SOL    HW2 2182   4.770   1.428  -0.062  1.1824 -1.1990 -0.3942
  170SOL     OW 2183   2.603   8.677   4.696  0.3058 -0.2676 -0.1530
  170SOL    HW1 2184   2.674   8.733   4.666  0.2004  1.2054  2.0674
  170SOL    HW2 2185   2.632   8.588   4.679  1.9078  0.3707 -0.8690
  171SOL     OW 2186   0.027   4.512   5.224  0.0717 -0.5312 -0.6660
  171SOL    HW1 2187   0.043   4.505   5.130  0.2509 -0.3410 -0.6494
  171SOL    HW2 2188  -0.068   4.513   5.233  0.0525  0.2232 -0.8981
  172SOL     OW 2189   1.303   5.562   5.132  0.0078 -0.2370 -0.3624
  172SOL    HW1 2190   1.264   5.483   5.171  0.1706 -0.0360  0.2303
  172SOL    HW2 2191   1.397   5.546   5.138  0.0329 -0.6110 -1.5520
  173SOL     OW 2192   8.836   3.645   2.411 -0.2217  0.4948 -0.4207
  173SOL    HW1 2193   8.753   3.597   2.404 -1.2079  1.5995  2.4291
  173SOL    HW2 2194   8.816   3.731   2.372 -0.3521  0.6874  0.0707
  174SOL     OW 2195   6.642   7.419   8.620 -0.4288  0.0320  0.3772
  174SOL    HW1 2196   6.605   7.393   8.704  1.6687 -0.7531  1.1054
  174SOL    HW2 2197   6.701   7.348   8.596 -1.0233  0.2013 -1.8172
  175SOL     OW 2198   6.887   4.428   5.921 -0.0380 -0.0741 -0.1168
  175SOL    HW1 2199   6.926   4.355   5.873 -1.7475 -1.0116 -0.1633
  175SOL    HW2 2200   6.903   4.505   5.867  0.4067 -0.6739 -0.8486
  176SOL     OW 2201   5.002   5.263   2.844 -0.5431  0.0579 -0.6915
  176SOL    HW1 2202   5.017   5.348   2.802  0.7703  0.5518  0.6678
  176SOL    HW2 2203   5.022   5.199   2.776 -0.0295  0.8267 -1.2895
  177SOL     OW 2204   8.460   9.345   2.139 -0.6554 -0.6112  0.0967
  177SOL    HW1 2205   8.554   9.356   2.125 -0.3437 -0.9018  1.7836
  177SOL    HW2 2206   8.423   9.432   2.121  0.1399 -0.0856  0.9167
  178SOL     OW 2207   0.887   1.242   6.912 -0.2313  0.5774 -0.3256
  178SOL    HW1 2208   0.804   1.251   6.867 -2.0654 -3.4094  1.7036
  178SOL    HW2 2209   0.909   1.149   6.904  3.8019  1.3096 -0.2421
  179SOL     OW 2210   7.038   5.258   8.881  0.2735  0.3174 -0.4692
  179SOL    HW1 2211   6.974   5.242   8.812  0.1073 -1.4475  0.0675
  179SOL    HW2 2212   7.123   5.258   8.835  0.0938  0.0845 -0.8067
  180SOL     OW 2213   4.169   3.578   6.203  0.3585  0.3523 -0.1994
  180SOL    HW1 2214   4.103   3.614   6.262 -0.8032 -1.3606 -0.3618
  180SOL    HW2 2215   4.204   3.502   6.251 -0.9379 -1.3480 -1.8089
  181SOL     OW 2216   1.811   3.988   8.487 -0.2064 -0.1474 -0.0134
  181SOL    HW1 2217   1.787   3.936   8.564  3.2050 -0.5325  0.9480
  181SOL    HW2 2218   1.832   3.924   8.420  0.1432  0.0823 -0.1277
  182SOL     OW 2219   5.527   4.409   4.317  0.6890 -0.2510 -0.1379
  182SOL    HW1 2220   5.543   4.501   4.296 -0.3781 -0.2288 -0.9035
  182SOL    HW2 2221   5.551   4.401   4.410  0.4367  0.8851  0.0406
  183SOL     OW 2222   2.714   3.096   3.554 -0.1007  0.4151  0.3781
  183SOL    HW1 2223   2.712   3.010   3.513 -0.0668  1.2255 -1.4357
  183SOL    HW2 2224   2.687   3.081   3.644  0.1047 -1.5088  0.1535
  184SOL     OW 2225   8.617   0.232   5.051  0.1196 -0.1583 -0.2950
  184SOL    HW1 2226   8.692   0.260   5.103 -0.1383  0.0988 -0.0534
  184SOL    HW2 2227   8.636   0.142   5.027  0.8124  0.1108 -0.7931
  185SOL     OW 2228   0.393   5.021   1.911  0.1842  0.1823 -0.6829
  185SOL    HW1 2229   0.394   5.093   1.974 -2.6772  0.3823 -0.7064
  185SOL    HW2 2230   0.446   4.953   1.951  0.7224  1.3203  0.6181
  186SOL     OW 2231   9.487   8.858   5.356  0.3413 -0.1970  0.2244
  186SOL    HW1 2232   9.433   8.779   5.363  1.7375 -1.1595  0.6466
  186SOL    HW2 2233   9.518   8.874   5.445  0.3404  0.6421  0.0802
  187SOL     OW 2234   6.916   5.830   1.072 -0.2301 -1.0245  0.7730
  187SOL    HW1 2235   6.825   5.859   1.076 -0.5314 -2.0211  1.2813
  187SOL    HW2 2236   6.965   5.901   1.115 -0.5964  0.0950 -0.5867
  188SOL     OW 2237   4.446   6.450   5.771  0.7829  0.1144 -0.1254
  188SOL    HW1 2238   4.531   6.483   5.744  0.6130  0.5041 -0.1896
  188SOL    HW2 2239   4.462   6.406   5.854  0.9909  0.4778  0.0282
  189SOL     OW 2240   6.588   8.820   8.502  0.3845  0.0989  0.8097
  189SOL    HW1 2241   6.509   8.873   8.493  0.8834  0.4656 -2.2756
  189SOL    HW2 2242   6.658   8.884   8.517  0.5586  0.0540  0.1887
  190SOL     OW 2243   4.112   5.277   2.121 -0.1663  0.6667 -0.1955
  190SOL    HW1 2244   4.167   5.219   2.174  0.4092  1.2621 -0.1296
  190SOL    HW2 2245   4.124   5.364   2.160  0.4519  1.1648 -1.4313
  191SOL     OW 2246   7.639   4.917   2.396  0.2592 -0.2918  0.1258
  191SOL    HW1 2247   7.572   4.971   2.353 -0.9767 -0.9673  1.1526
  191SOL    HW2 2248   7.607   4.827   2.388  1.9694 -0.8553 -0.9812
  192SOL     OW 2249   8.901   0.929   1.603  0.1124 -0.2293  0.2216
  192SOL    HW1 2250   8.857   0.997   1.553  0.0527  1.3215  2.2792
  192SOL    HW2 2251   8.844   0.915   1.679  0.6923 -1.8086  0.4009
  193SOL     OW 2252   8.911   8.366   6.691  0.1207 -0.1812 -0.0265
  193SOL    HW1 2253   8.966   8.444   6.683  1.6026 -1.2332 -0.3236
  193SOL    HW2 2254   8.913   8.345   6.784 -0.2507  0.0999  0.0484
  194SOL     OW 2255   8.277   8.661   9.074  0.3278  0.1497 -0.1062
  194SOL    HW1 2256   8.364   8.668   9.036 -0.2185  0.6258 -1.3432
  194SOL    HW2 2257   8.248   8.751   9.085 -0.3749 -0.0033 -0.6244
  195SOL     OW 2258   1.538   3.526   4.033  0.2834 -0.0053 -0.2567
  195SOL    HW1 2259   1.547   3.431   4.035 -0.5089 -0.0770  0.2223
  195SOL    HW2 2260   1.465   3.543   3.974  2.2057  0.4754 -2.6321
  196SOL     OW 2261   8.771   4.114   4.325 -0.0891  0.3936  0.2045
  196SOL    HW1 2262   8.778   4.030   4.370 -0.6349 -0.5280 -1.3746
  196SOL    HW2 2263   8.751   4.176   4.395 -0.1134 -0.8460  1.3459
  197SOL     OW 2264   3.899   6.904   4.887 -0.2227 -0.3765  0.5479
  197SOL    HW1 2265   3.828   6.967   4.894  0.4233  0.3750  0.5535
  197SOL    HW2 2266   3.977   6.952   4.917  0.4181 -0.9373 -0.1661
  198SOL     OW 2267   2.109   3.686   6.745 -0.3060  0.8257  0.0044
  198SOL    HW1 2268   2.054   3.613   6.775  0.6540 -0.7020 -1.7382
  198SOL    HW2 2269   2.089   3.694   6.652  1.8070  0.7619 -0.5052
  199SOL     OW 2270   5.997   2.109   8.470  0.5619  0.4814  0.0059
  199SOL    HW1 2271   6.020   2.031   8.521 -0.5905  0.1817  0.0850
  199SOL    HW2 2272   6.058   2.176   8.501 -1.2368  0.8443  3.1804
  200SOL     OW 2273   5.774   0.006   2.771  0.1479  0.2703 -0.1132
  200SOL    HW1 2274   5.704   0.046   2.822 -0.4279 -0.7905 -0.0595
  200SOL    HW2 2275   5.776  -0.085   2.798 -0.1073 -0.3088 -1.9083
  201SOL     OW 2276   4.885   2.958   3.973  0.0753  0.1242 -0.2091
  201SOL    HW1 2277   4.916   3.044   4.003  1.0380  0.0352 -0.9405
  201SOL    HW2 2278   4.956   2.898   3.995 -0.1568 -0.3113 -0.6429
  202SOL     OW 2279   3.865   6.502   4.748  0.1139 -0.3423  0.4687
  202SOL    HW1 2280   3.796   6.564   4.773  0.4061 -0.0213  0.4821
  202SOL    HW2 2281   3.883   6.522   4.657  0.8943  0.2605  0.7418
  203SOL     OW 2282   3.389   6.920   4.964 -0.4732  0.6717  0.1613
  203SOL    HW1 2283   3.308   6.959   4.998 -0.0643  2.2841 -0.5921
  203SOL    HW2 2284   3.388   6.942   4.871  0.0104 -0.8063 -0.2184
  204SOL     OW 2285   8.153   4.321   1.272 -0.0459  0.2046  0.6746
  204SOL    HW1 2286   8.239   4.317   1.312 -0.1289  1.4079  1.0189
  204SOL    HW2 2287   8.122   4.409   1.291 -1.5371 -0.3483  0.9258
  205SOL     OW 2288   8.194   7.927   4.978 -0.3521  0.1504 -0.1977
  205SOL    HW1 2289   8.143   8.008   4.972  1.1103  1.1280  0.2663
  205SOL    HW2 2290   8.233   7.929   5.065 -1.9243 -2.0978  0.6750
  206SOL     OW 2291   0.848   6.265   3.518 -0.7169 -0.3596  0.6951
  206SOL    HW1 2292   0.898   6.259   3.599 -0.6832 -1.8982  0.5914
  206SOL    HW2 2293   0.869   6.184   3.471 -0.2915  0.7334 -1.1197
  207SOL     OW 2294   3.204   0.469   0.121 -0.5812 -0.1102 -0.2925
  207SOL    HW1 2295   3.247   0.531   0.179 -0.1658 -1.8133  1.3403
  207SOL    HW2 2296   3.276   0.423   0.077 -0.6709 -2.0450  1.4440
  208SOL     OW 2297   7.507   1.514   5.329 -0.7219  0.5733 -0.3447
  208SOL    HW1 2298   7.592   1.558   5.336  0.7359 -2.3365  2.5400
  208SOL    HW2 2299   7.513   1.464   5.247  0.9717 -0.5693  0.4054
  209SOL     OW 2300   1.362   0.473   9.220 -0.3052  0.2204  0.1924
  209SOL    HW1 2301   1.318   0.554   9.194 -2.4845 -1.0347 -0.3111
  209SOL    HW2 2302   1.302   0.432   9.281 -0.9064 -2.5499 -2.0276
  210SOL     OW 2303   0.409   1.504   0.678 -0.1254  0.0050 -0.3017
  210SOL    HW1 2304   0.470   1.561   0.726 -1.4510  0.4875  0.8967
  210SOL    HW2 2305   0.322   1.536   0.704 -0.8921 -1.3434 -1.1248
  211SOL     OW 2306   6.226   3.562   3.117  0.3458 -0.1747 -0.3898
  211SOL    HW1 2307   6.246   3.640   3.066  3.0101  0.1564  1.0223
  211SOL    HW2 2308   6.239   3.490   3.056  0.3816  0.3582 -1.0209
  212SOL     OW 2309   8.016   3.166   3.943 -0.2887 -0.0766 -0.4787
  212SOL    HW1 2310   8.073   3.100   3.983  0.9955  1.4579  0.3756
  212SOL    HW2 2311   7.928   3.131   3.954  0.2716 -1.1927  0.8356
  213SOL     OW 2312   5.027   4.123   9.667 -0.2784 -0.1606  0.2337
  213SOL    HW1 2313   5.050   4.072   9.589 -1.4795  1.8056 -1.5403
  213SOL    HW2 2314   5.103   4.179   9.682 -0.2307 -0.2009  0.1450
  214SOL     OW 2315   7.760   4.692   6.490  0.7926 -0.6819 -0.4344
  214SOL    HW1 2316   7.742   4.780   6.521 -1.1146 -0.5713 -1.7265
  214SOL    HW2 2317   7.780   4.642   6.569  0.0214  0.4848  0.5157
  215SOL     OW 2318   1.784   9.571   5.396 -0.6693 -0.3345 -0.5476
  215SOL    HW1 2319   1.850   9.640   5.403 -0.4691 -0.6684  1.4223
  215SOL    HW2 2320   1.701   9.613   5.419 -0.6422 -0.5841  0.0389
  216SOL     OW 2321   4.320   7.499   3.113  0.5223  0.2467  0.2893
  216SOL    HW1 2322   4.247   7.546   3.151  0.7137  0.5447  0.2919
  216SOL    HW2 2323   4.302   7.407   3.132  0.1299  0.3159  0.2503
  217SOL     OW 2324   6.594   1.438   0.795  0.6654  0.0968  0.5202
  217SOL    HW1 2325   6.654   1.513   0.789  1.6470 -0.6880  0.3116
  217SOL    HW2 2326   6.591   1.418   0.888  1.7892 -0.6862  0.4029
  218SOL     OW 2327   8.808   1.662   3.142  1.0049 -0.4782  0.1119
  218SOL    HW1 2328   8.885   1.619   3.178  2.7644 -0.3063 -3.0449
  218SOL    HW2 2329   8.765   1.594   3.089  0.2827  0.0333  0.0191
  219SOL     OW 2330   7.536   9.450   4.974  0.1092 -0.4793 -0.3950
  219SOL    HW1 2331   7.566   9.471   4.885  0.9779  1.3240  0.2724
  219SOL    HW2 2332   7.447   9.483   4.978  0.8318  1.5688  0.0539
  220SOL     OW 2333   2.269   4.467   6.576  0.5267 -0.3730  0.2661
  220SOL    HW1 2334   2.302   4.530   6.640 -0.2442 -0.2808  0.5840
  220SOL    HW2 2335   2.214   4.407   6.627  0.0256 -0.3862 -0.2769
  221SOL     OW 2336   0.571   7.683   7.675 -0.0284 -0.5725  0.5108
  221SOL    HW1 2337   0.621   7.715   7.600  0.9588  1.7600  2.0666
  221SOL    HW2 2338   0.500   7.631   7.636  0.8342 -0.0154 -1.9793
  222SOL     OW 2339   0.737   2.253   7.652 -0.1174  0.3786 -0.0111
  222SOL    HW1 2340   0.803   2.216   7.711  0.4377  1.1606 -0.1100
  222SOL    HW2 2341   0.657   2.256   7.704  0.5449  1.7820  1.0005
  223SOL     OW 2342   9.380   4.714   3.644 -0.3038  0.1435  0.6159
  223SOL    HW1 2343   9.305   4.728   3.585  1.5340  1.3804 -1.6204
  223SOL    HW2 2344   9.408   4.624   3.626 -0.0956  0.3306 -0.0522
  224SOL     OW 2345   2.804   3.511   3.998  0.1138  0.3110 -0.3333
  224SOL    HW1 2346   2.853   3.571   4.054  0.1793 -1.0734  1.1561
  224SOL    HW2 2347   2.860   3.434   3.990 -1.2490 -0.8238  0.4389
  225SOL     OW 2348   7.068   9.470   9.442  0.0409  0.0784  0.5082
  225SOL    HW1 2349   7.048   9.494   9.351  1.6253 -0.6897 -0.0892
  225SOL    HW2 2350   7.031   9.541   9.494 -0.2735  0.9119 -0.7923
  226SOL     OW 2351   1.226   9.087   0.222  0.7174 -0.4782  0.5094
  226SOL    HW1 2352   1.159   9.041   0.172  1.0597 -2.4147  1.7525
  226SOL    HW2 2353   1.178   9.123   0.297  0.5729  0.7111 -0.1225
  227SOL     OW 2354   4.967   1.232   3.466 -0.2790  0.3481  0.5220
  227SOL    HW1 2355   4.875   1.211   3.454 -0.4346 -0.1624  2.2705
  227SOL    HW2 2356   4.983   1.305   3.406 -1.2688 -0.8613 -1.2930
  228SOL     OW 2357   7.726   1.694   8.731 -0.3524 -0.2362  0.3153
  228SOL    HW1 2358   7.788   1.688   8.659 -2.0705 -0.3561 -1.2073
  228SOL    HW2 2359   7.641   1.701   8.690 -1.2638  1.7121  2.3193
  229SOL     OW 2360   2.316   7.079   8.827 -0.2761 -0.1445  0.2787
  229SOL    HW1 2361   2.341   7.076   8.920 -0.7115 -2.1875  0.3858
  229SOL    HW2 2362   2.223   7.102   8.828 -0.3787 -0.5502  0.3897
  230SOL     OW 2363   3.989   0.870   6.103 -0.1571 -0.2590 -0.9563
  230SOL    HW1 2364   3.935   0.794   6.126 -0.8572  0.5652  0.2563
  230SOL    HW2 2365   4.079   0.842   6.120 -0.5951  0.3642  3.4643
  231SOL     OW 2366   2.270   1.118   2.027  0.1464  0.1012 -0.1110
  231SOL    HW1 2367   2.226   1.105   2.110 -1.3985  1.4438 -0.6652
  231SOL    HW2 2368   2.237   1.047   1.971 -1.0325  0.8540 -0.3968
  232SOL     OW 2369   3.735   5.805   9.116 -0.2222 -0.0148 -0.2678
  232SOL    HW1 2370   3.704   5.715   9.129  2.6199 -1.0366  0.0960
  232SOL    HW2 2371   3.698   5.854   9.189  0.2496 -1.4819  0.9978
  233SOL     OW 2372   2.917   0.232   2.543  0.0407 -0.0416 -0.1805
  233SOL    HW1 2373   2.889   0.264   2.457  0.7312  0.3233 -0.2723
  233SOL    HW2 2374   2.898   0.138   2.540  2.0883 -0.4789 -1.5932
  234SOL     OW 2375   7.931   7.726   2.430  0.1191  0.2330  0.3401
  234SOL    HW1 2376   7.897   7.652   2.380 -1.9984  1.8180 -0.7346
  234SOL    HW2 2377   7.857   7.755   2.484  1.1644  1.0392  1.3902
  235SOL     OW 2378   6.691   1.479   1.303  0.2203 -0.5596 -0.0765
  235SOL    HW1 2379   6.635   1.404   1.319  1.1829 -0.9537  1.6951
  235SOL    HW2 2380   6.747   1.452   1.230 -0.4231 -0.9736 -0.4269
  236SOL     OW 2381   4.393   4.304   6.066  0.2398  0.4199 -0.2317
  236SOL    HW1 2382   4.305   4.320   6.099  0.5078 -0.1563  0.8077
  236SOL    HW2 2383   4.385   4.224   6.015  0.2912 -0.0750  0.5088
  237SOL     OW 2384   3.986   6.295   2.468  0.4785  0.4000 -0.1865
  237SOL    HW1 2385   4.060   6.346   2.436  0.6335  0.0030 -0.4777
  237SOL    HW2 2386   3.910   6.334   2.425  0.5308  0.7447  0.0353
  238SOL     OW 2387   7.566   0.333   7.436  0.1194  0.3428  0.1017
  238SOL    HW1 2388   7.496   0.392   7.409 -0.0898 -0.0459 -0.2216
  238SOL    HW2 2389   7.570   0.267   7.366  0.3043 -0.0614  0.4878
  239SOL     OW 2390   3.420   4.450   4.259 -0.1820  0.3262 -0.4020
  239SOL    HW1 2391   3.431   4.413   4.171  2.7863 -0.0696  0.0105
  239SOL    HW2 2392   3.411   4.373   4.316  0.1534  0.4813 -0.1397
  240SOL     OW 2393   4.774   6.078   5.899 -0.7019  0.5113  0.6031
  240SOL    HW1 2394   4.693   6.121   5.927 -0.0115  2.2468  0.0904
  240SOL    HW2 2395   4.841   6.147   5.904  0.4273 -0.4571 -0.4643
  241SOL     OW 2396   0.803   8.310   9.333 -0.1872 -0.0722  0.0144
  241SOL    HW1 2397   0.743   8.268   9.272  0.3919 -0.4603 -0.3017
  241SOL    HW2 2398   0.873   8.245   9.346 -0.1058  0.1586  0.7843
  242SOL     OW 2399   3.410   6.072   5.588 -0.2616  0.0633 -0.0134
  242SOL    HW1 2400   3.358   6.015   5.646  0.3891 -0.8111 -0.2691
  242SOL    HW2 2401   3.476   6.111   5.646  0.2540 -0.6458 -0.1046
  243SOL     OW 2402   0.156   7.024   9.172  0.1685  0.1862 -0.3424
  243SOL    HW1 2403   0.220   6.963   9.135 -0.3307  0.5658 -1.9525
  243SOL    HW2 2404   0.084   6.968   9.201  0.4812 -0.1149 -0.1390
  244SOL     OW 2405   0.872   3.410   8.665  0.2416 -0.0763  0.3926
  244SOL    HW1 2406   0.934   3.347   8.702  0.9697  0.3533 -0.0755
  244SOL    HW2 2407   0.823   3.443   8.740  0.4374 -0.5672  0.7451
  245SOL     OW 2408   4.316   1.373   3.171  0.3848 -0.2799  0.0901
  245SOL    HW1 2409   4.239   1.402   3.122 -0.3934 -0.8724  0.9340
  245SOL    HW2 2410   4.292   1.287   3.205  0.7617  0.2442  1.7662
  246SOL     OW 2411   7.007   2.713   8.396 -0.0786 -0.2910 -0.2562
  246SOL    HW1 2412   6.970   2.716   8.484  0.4168  0.0627 -0.0561
  246SOL    HW2 2413   7.082   2.772   8.400  0.0142 -0.3653 -0.8839
  247SOL     OW 2414   4.973   4.018   4.421  0.1263  0.8675  0.3604
  247SOL    HW1 2415   4.943   3.954   4.486 -0.0001  1.0760  0.5112
  247SOL    HW2 2416   5.025   3.968   4.359 -0.5449  0.4872  0.0894
  248SOL     OW 2417   7.012   5.914   9.492  0.2940 -0.4834 -0.1561
  248SOL    HW1 2418   6.967   5.836   9.525 -0.2998 -0.2733 -0.4435
  248SOL    HW2 2419   6.980   5.923   9.402 -0.4439  0.6662  0.1947
  249SOL     OW 2420   2.172   5.736   3.346 -0.3738  0.1735  0.6353
  249SOL    HW1 2421   2.163   5.646   3.379  0.7342 -0.3567 -0.4287
  249SOL    HW2 2422   2.249   5.770   3.392 -0.3147  0.2895  0.4533
  250SOL     OW 2423   5.727   4.835   4.396 -0.8101 -0.3714 -1.3094
  250SOL    HW1 2424   5.771   4.915   4.424 -1.4310 -0.3481 -0.3374
  250SOL    HW2 2425   5.643   4.837   4.443 -0.1090 -2.4552  0.1361
  251SOL     OW 2426   6.249   3.960   8.248  0.3333 -0.2404  0.1106
  251SOL    HW1 2427   6.221   3.967   8.339  2.4721 -1.7484  0.9823
  251SOL    HW2 2428   6.169   3.941   8.200 -0.9596  1.2777  1.5321
  252SOL     OW 2429   7.033   2.799   2.771 -0.0704  0.2825  0.3483
  252SOL    HW1 2430   7.003   2.813   2.681 -0.5779  0.7279  0.5791
  252SOL    HW2 2431   7.074   2.882   2.796  4.0613 -1.1418 -0.9301
  253SOL     OW 2432   2.281   7.376   8.451 -0.1154 -0.0930  0.3209
  253SOL    HW1 2433   2.228   7.417   8.519 -0.1169 -0.6704  0.6807
  253SOL    HW2 2434   2.220   7.319   8.403 -0.0148 -0.0539  0.1436
  254SOL     OW 2435   2.886   3.010   3.978  0.1473  0.3327 -0.0774
  254SOL    HW1 2436   2.866   2.941   3.914  0.0086  1.7749 -1.6743
  254SOL    HW2 2437   2.921   2.963   4.054 -1.0842 -1.5675 -0.6169
  255SOL     OW 2438   5.426   0.489   1.861  0.2924 -0.2626  0.1598
  255SOL    HW1 2439   5.410   0.424   1.930 -1.2557 -1.3013 -1.0939
  255SOL    HW2 2440   5.388   0.450   1.782 -0.5821  2.1096 -0.6955
  256SOL     OW 2441   6.100   4.252   3.057 -0.0270  0.1023  0.3011
  256SOL    HW1 2442   6.056   4.290   3.132 -0.0019  0.2336  0.2495
  256SOL    HW2 2443   6.042   4.270   2.983 -0.5250 -0.8665  0.4334
  257SOL     OW 2444   9.656   4.062   1.963  0.5249  0.2346  0.2900
  257SOL    HW1 2445   9.597   3.987   1.963  1.3179 -0.4171 -0.9646
  257SOL    HW2 2446   9.712   4.048   2.039  1.1298 -0.8384 -0.3331
  258SOL     OW 2447   9.494   4.733   6.313 -0.1475 -0.0627  0.1536
  258SOL    HW1 2448   9.508   4.654   6.260 -0.9604 -0.4759  0.5300
  258SOL    HW2 2449   9.416   4.712   6.365 -1.2430  1.5168 -0.7671
  259SOL     OW 2450   5.917   2.826   0.383 -0.0449  0.3131 -0.1043
  259SOL    HW1 2451   5.837   2.826   0.435 -0.2060  0.8260 -0.3427
  259SOL    HW2 2452   5.988   2.835   0.447 -0.1867  0.0132  0.0948
  260SOL     OW 2453   6.724   2.177   8.109  0.5424 -0.4162  0.4086
  260SOL    HW1 2454   6.799   2.128   8.144 -0.3443 -0.5526  2.2321
  260SOL    HW2 2455   6.669   2.110   8.069  0.3426 -0.6512  1.0510
  261SOL     OW 2456   7.025   7.500   3.294 -0.6684  0.0883  0.4092
  261SOL    HW1 2457   7.088   7.431   3.315 -0.3698  0.1580 -0.2153
  261SOL    HW2 2458   6.940   7.461   3.313 -0.6298 -1.1331 -1.6308
  262SOL     OW 2459   3.986   5.576   7.743 -0.4923  0.2014 -0.4556
  262SOL    HW1 2460   4.073   5.537   7.749 -1.1661 -1.1910  1.1828
  262SOL    HW2 2461   3.926   5.504   7.762 -1.9074  1.5817  0.5721
  263SOL     OW 2462   8.445   7.430   0.749 -0.1276  0.0630 -0.6855
  263SOL    HW1 2463   8.521   7.480   0.719  0.6263 -0.2621  0.6180
  263SOL    HW2 2464   8.372   7.463   0.696  0.6816  1.2612 -1.0961
  264SOL     OW 2465   4.039   9.456   9.239 -0.3835 -0.6396 -0.6062
  264SOL    HW1 2466   4.078   9.530   9.286  1.9140 -2.1554  0.1056
  264SOL    HW2 2467   4.043   9.480   9.147  3.3375 -0.9827 -0.7005
  265SOL     OW 2468   4.784   2.837   1.497  0.6822 -0.0245 -0.0835
  265SOL    HW1 2469   4.872   2.812   1.524  0.3966 -2.2327 -1.0142
  265SOL    HW2 2470   4.789   2.841   1.401  0.2717  2.0227 -0.0697
  266SOL     OW 2471   1.410   1.757   3.390  0.1659 -0.7354 -0.8595
  266SOL    HW1 2472   1.484   1.711   3.431  0.1354 -2.1030 -2.2563
  266SOL    HW2 2473   1.333   1.705   3.415 -0.6167  1.4553  1.7773
  267SOL     OW 2474   8.933   3.479   9.054  0.0847  0.1688  0.2518
  267SOL    HW1 2475   8.888   3.564   9.056 -0.7930  0.0577 -4.1320
  267SOL    HW2 2476   9.008   3.494   8.996  2.6614 -1.0545  3.0225
  268SOL     OW 2477   2.786   8.862   6.761 -0.1865 -0.0558  0.3637
  268SOL    HW1 2478   2.804   8.956   6.759  2.1322 -0.3736  2.0013
  268SOL    HW2 2479   2.808   8.835   6.850 -0.1786 -2.2509 -0.2398
  269SOL     OW 2480   0.280   4.933   4.830 -0.7822 -0.3085 -0.5748
  269SOL    HW1 2481   0.293   5.011   4.775  0.7771 -0.1952 -0.1017
  269SOL    HW2 2482   0.343   4.869   4.796  0.2018 -0.2467  1.0233
  270SOL     OW 2483   8.630   7.020   6.467  0.8249  0.3683 -0.2975
  270SOL    HW1 2484   8.654   7.112   6.452 -0.3532  0.5000 -1.5454
  270SOL    HW2 2485   8.554   7.006   6.411 -0.5951 -0.6647  1.7630
  271SOL     OW 2486   2.277   2.944   0.375  0.2966  0.1381 -0.0444
  271SOL    HW1 2487   2.220   2.910   0.306  1.9493  0.9931 -1.9285
  271SOL    HW2 2488   2.280   3.039   0.360  1.0000  0.2990  0.9647
  272SOL     OW 2489   9.303   3.792   3.580  0.0892 -0.3243  0.1854
  272SOL    HW1 2490   9.250   3.785   3.500 -1.7643  0.3789  1.3015
  272SOL    HW2 2491   9.299   3.704   3.618 -0.7214 -0.1592  0.5085
  273SOL     OW 2492   5.800   2.335   4.851  0.4592 -0.5072  0.2269
  273SOL    HW1 2493   5.861   2.261   4.840  1.5894  0.4491 -0.1562
  273SOL    HW2 2494   5.714   2.294   4.860  0.9027 -1.8501 -1.1353
  274SOL     OW 2495   5.538   7.764   9.092 -0.1599  0.2341  0.2355
  274SOL    HW1 2496   5.543   7.744   9.185  0.6970  3.2158  0.9398
  274SOL    HW2 2497   5.621   7.735   9.056 -1.0951 -2.3853 -0.0277
  275SOL     OW 2498   1.999   7.417   4.356  0.1684 -0.4859 -0.9152
  275SOL    HW1 2499   1.914   7.447   4.325  1.2189  2.5743 -1.1814
  275SOL    HW2 2500   1.979   7.351   4.421 -2.5308  1.6026  0.5680
  276SOL     OW 2501   2.469   2.795   0.946  0.1556 -0.0062 -0.0446
  276SOL    HW1 2502   2.492   2.789   0.853  2.8411  1.0199  0.4617
  276SOL    HW2 2503   2.496   2.883   0.971 -0.0544 -0.4445  1.8261
  277SOL     OW 2504   6.322   4.631   2.837 -0.5916 -0.3474 -0.0495
  277SOL    HW1 2505   6.394   4.609   2.778  0.2861 -0.0264  0.8690
  277SOL    HW2 2506   6.246   4.587   2.800  0.2215 -1.2655 -0.6743
  278SOL     OW 2507   0.411   1.987   2.423 -0.2689 -0.5588 -0.0994
  278SOL    HW1 2508   0.394   1.943   2.340  2.1426 -0.8981 -0.4913
  278SOL    HW2 2509   0.421   1.916   2.486 -1.3327 -0.3264  0.3657
  279SOL     OW 2510   5.689   1.050   2.304 -0.3324  0.5378 -0.5146
  279SOL    HW1 2511   5.656   1.007   2.224 -1.4395 -0.3728  0.3837
  279SOL    HW2 2512   5.618   1.108   2.330 -0.3920  0.0883  0.3411
  280SOL     OW 2513   5.149   6.940   7.852  0.5655 -0.6784 -0.2777
  280SOL    HW1 2514   5.203   6.967   7.925  0.8881  1.4898 -1.2500
  280SOL    HW2 2515   5.210   6.896   7.792  0.7415 -0.5284 -0.2093
  281SOL     OW 2516   5.759   9.219   1.979 -0.6326  0.2960 -0.1982
  281SOL    HW1 2517   5.780   9.137   1.934  0.5761 -0.0677  0.9807
  281SOL    HW2 2518   5.704   9.267   1.916 -1.0311 -1.2228 -1.0655
  282SOL     OW 2519   0.339   7.374   3.179  0.0510 -0.7343 -1.1337
  282SOL    HW1 2520   0.288   7.450   3.207 -1.4537 -0.8266 -3.3976
  282SOL    HW2 2521   0.295   7.300   3.222  0.3213 -0.5257 -0.4813
  283SOL     OW 2522   2.234   7.227   9.407 -0.2268  0.2916 -0.4718
  283SOL    HW1 2523   2.327   7.206   9.395 -0.3836  1.1433 -4.6720
  283SOL    HW2 2524   2.198   7.151   9.453  2.2560 -0.7688 -0.1199
  284SOL     OW 2525   1.306   6.156   7.857 -0.5891 -0.4244  0.5025
  284SOL    HW1 2526   1.321   6.123   7.945  0.5946  0.7951  0.7885
  284SOL    HW2 2527   1.216   6.187   7.857 -0.1850  0.8061  1.7040
  285SOL     OW 2528   5.550   4.161   6.128 -0.1728  0.3947  0.3459
  285SOL    HW1 2529   5.475   4.151   6.069 -0.0501  0.3250  0.2009
  285SOL    HW2 2530   5.520   4.123   6.210  0.5223 -1.9406 -0.3890
  286SOL     OW 2531   3.829   2.901   4.452 -0.6050 -0.3116 -0.5996
  286SOL    HW1 2532   3.842   2.982   4.501  2.1049 -0.0390 -1.5574
  286SOL    HW2 2533   3.736   2.899   4.431 -1.8283 -0.1193  3.8625
  287SOL     OW 2534   6.055   6.098   7.616 -0.0160  0.3041  0.2164
  287SOL    HW1 2535   5.969   6.128   7.646  0.0586 -1.2166  2.1138
  287SOL    HW2 2536   6.068   6.014   7.659  2.7431  0.8042  0.5408
  288SOL     OW 2537   9.310   5.283   7.053 -0.0568 -0.2560  0.0454
  288SOL    HW1 2538   9.310   5.339   7.131 -2.5151 -0.1537  0.0615
  288SOL    HW2 2539   9.332   5.342   6.981 -0.2343  0.2034  0.3622
  289SOL     OW 2540   5.920   0.284   1.625  0.2746 -0.3840  1.2444
  289SOL    HW1 2541   5.877   0.207   1.589  2.3393 -0.6019 -1.0357
  289SOL    HW2 2542   5.923   0.268   1.719  0.1213 -2.8344  0.9023
  290SOL     OW 2543   6.860   7.546   4.021 -0.3893  0.2679  0.6984
  290SOL    HW1 2544   6.879   7.640   4.018  0.6426  0.1582  2.5381
  290SOL    HW2 2545   6.811   7.534   4.102 -2.1733 -0.5556 -0.4361
  291SOL     OW 2546   1.022   3.201   8.770 -0.2668  0.1959  0.0175
  291SOL    HW1 2547   0.986   3.113   8.758  1.1801 -0.5492  0.9482
  291SOL    HW2 2548   1.064   3.198   8.856 -1.3700  2.2243  0.6893
  292SOL     OW 2549   9.418   4.336   0.070 -0.2139 -0.0127 -0.2844
  292SOL    HW1 2550   9.505   4.340   0.031 -0.2121 -3.0542 -0.8659
  292SOL    HW2 2551   9.434   4.338   0.164  0.6373 -1.6929 -0.3628
  293SOL     OW 2552   3.775   3.720   8.831 -0.0214 -0.3577  0.0259
  293SOL    HW1 2553   3.821   3.639   8.812  1.3163  0.0373  1.3475
  293SOL    HW2 2554   3.755   3.758   8.745  0.9900 -1.1735 -0.5868
  294SOL     OW 2555   6.913   6.290   8.124  0.5052  0.1363  0.0703
  294SOL    HW1 2556   6.980   6.359   8.129  0.3244  0.4859 -1.5777
  294SOL    HW2 2557   6.847   6.326   8.064  0.0327 -1.1701 -0.2128
  295SOL     OW 2558   3.454   5.848   4.542 -0.0237 -0.3833 -0.1531
  295SOL    HW1 2559   3.464   5.922   4.602 -0.8560 -0.9604  0.7233
  295SOL    HW2 2560   3.404   5.783   4.592 -0.2232 -1.1165 -1.2716
  296SOL     OW 2561   1.790   5.907   9.319 -0.5485 -0.7982  0.6689
  296SOL    HW1 2562   1.705   5.925   9.358 -0.8319 -0.7274  0.0347
  296SOL    HW2 2563   1.852   5.958   9.370 -0.9417 -0.5142  0.8620
  297SOL     OW 2564   9.540   9.290   2.337 -0.1219 -0.2488 -0.4709
  297SOL    HW1 2565   9.510   9.313   2.425 -1.7157 -0.7277 -0.8653
  297SOL    HW2 2566   9.506   9.360   2.281  2.4200  1.0585 -0.5177
  298SOL     OW 2567   6.525   9.664   6.780 -0.4449  0.0223 -0.5747
  298SOL    HW1 2568   6.516   9.572   6.754  0.0862 -0.3312  0.4490
  298SOL    HW2 2569   6.552   9.708   6.699  1.0703 -1.0302 -0.6981
  299SOL     OW 2570   1.191   5.176   2.821  0.4070  0.2214 -0.1546
  299SOL    HW1 2571   1.150   5.139   2.899 -0.1781  0.3316 -0.4034
  299SOL    HW2 2572   1.239   5.252   2.853 -2.0915  1.9437 -0.2561
  300SOL     OW 2573   0.650   7.997   2.638  0.5028 -0.7673 -0.6418
  300SOL    HW1 2574   0.701   7.991   2.557 -0.7049 -0.4794 -1.4543
  300SOL    HW2 2575   0.562   8.019   2.608 -0.2309 -1.8203  0.6732
  301SOL     OW 2576   7.089   8.752   5.645  0.1830  0.3746  0.4147
  301SOL    HW1 2577   7.028   8.683   5.670  1.5360 -0.7978  0.6127
  301SOL    HW2 2578   7.077   8.761   5.550 -1.4438  1.3489  0.6743
  302SOL     OW 2579   0.907   9.652   1.065 -0.4067  0.8250  0.3528
  302SOL    HW1 2580   0.882   9.639   1.156 -0.7698  2.0394  0.4378
  302SOL    HW2 2581   0.962   9.730   1.066  0.2458  0.3943 -0.3660
  303SOL     OW 2582   3.426   3.878   3.325 -0.2753 -0.4794  0.8882
  303SOL    HW1 2583   3.458   3.935   3.255 -2.2433  1.1495  1.2120
  303SOL    HW2 2584   3.396   3.799   3.280 -0.8245  0.2363 -0.0379
  304SOL     OW 2585   3.290   6.188   9.388  0.2438 -0.0574 -0.1355
  304SOL    HW1 2586   3.276   6.136   9.467  1.8759 -0.8876 -0.3495
  304SOL    HW2 2587   3.385   6.198   9.382  0.4087 -1.9309 -3.1492
  305SOL     OW 2588   0.389   5.333   5.421 -0.4995 -0.4773  0.2180
  305SOL    HW1 2589   0.297   5.351   5.402  0.1108  0.5365 -2.0580
  305SOL    HW2 2590   0.387   5.276   5.498 -3.0085 -0.4288  0.2589
  306SOL     OW 2591   1.160   3.331   4.675 -0.4291  0.1089 -0.3074
  306SOL    HW1 2592   1.182   3.286   4.594 -0.4727 -0.3507 -0.0673
  306SOL    HW2 2593   1.081   3.382   4.654 -0.6202 -0.2530 -0.4707
  307SOL     OW 2594   0.269   6.975   1.678 -0.1857  0.1652 -0.6732
  307SOL    HW1 2595   0.253   7.064   1.708 -0.7594 -0.0919 -0.1931
  307SOL    HW2 2596   0.182   6.939   1.663  0.0274 -0.4436 -0.4677
  308SOL     OW 2597   2.392   0.266   8.443  0.1274 -0.0061 -0.5776
  308SOL    HW1 2598   2.480   0.252   8.408 -0.4875 -0.1518 -2.1840
  308SOL    HW2 2599   2.335   0.215   8.384 -1.1699  1.3460 -0.5481
  309SOL     OW 2600   8.371   3.690   7.059  0.2488 -0.5584 -0.1657
  309SOL    HW1 2601   8.374   3.677   7.154 -2.7799 -0.8214 -0.0305
  309SOL    HW2 2602   8.406   3.609   7.023  1.3805 -0.4825  0.6677
  310SOL     OW 2603   7.533   7.202   1.899 -0.4105 -0.4092  0.1649
  310SOL    HW1 2604   7.518   7.282   1.949  0.1355 -0.4275  0.3577
  310SOL    HW2 2605   7.561   7.232   1.813 -1.2808 -0.3794 -0.1138
  311SOL     OW 2606   1.157   9.285   3.132 -0.1327 -0.0414 -0.5013
  311SOL    HW1 2607   1.169   9.380   3.128  0.0330  0.0014  0.7115
  311SOL    HW2 2608   1.064   9.273   3.149  0.1612 -0.0004  1.3824
  312SOL     OW 2609   1.837   7.298   7.434  0.0718 -0.2865  0.4016
  312SOL    HW1 2610   1.913   7.352   7.457  0.7550 -1.1488  0.2318
  312SOL    HW2 2611   1.831   7.235   7.506 -1.6741  0.9611  1.4049
  313SOL     OW 2612   5.233   1.978   1.958 -0.0723 -0.5648  0.6412
  313SOL    HW1 2613   5.156   1.949   2.009  0.8468 -1.7263  1.4260
  313SOL    HW2 2614   5.253   1.904   1.901 -2.0669  1.2788 -2.7890
  314SOL     OW 2615   2.450   0.336   0.279 -0.0879  0.6826  0.1526
  314SOL    HW1 2616   2.517   0.317   0.344  0.2159  1.5254  0.0983
  314SOL    HW2 2617   2.369   0.303   0.317  0.4889 -1.3578 -0.2458
  315SOL     OW 2618   9.101   2.761   6.671  0.6287 -0.3455 -0.6237
  315SOL    HW1 2619   9.078   2.844   6.713  0.6694 -1.3395  1.4887
  315SOL    HW2 2620   9.193   2.747   6.696  0.6214 -1.0324 -0.9658
  316SOL     OW 2621   3.806   5.596   8.007 -0.1207  0.6273 -0.0531
  316SOL    HW1 2622   3.745   5.558   8.070  0.4964 -0.1609  0.0823
  316SOL    HW2 2623   3.811   5.532   7.937  1.2341  0.2653  0.3587
  317SOL     OW 2624   1.762   2.400   3.800  0.4096 -0.3444 -0.7694
  317SOL    HW1 2625   1.708   2.477   3.780 -2.1221 -2.0489 -0.9487
  317SOL    HW2 2626   1.751   2.388   3.895  0.9662 -0.3788 -0.7072
  318SOL     OW 2627   1.280   6.875   9.318 -0.5920  0.4619 -0.2487
  318SOL    HW1 2628   1.274   6.792   9.272 -0.2317  1.2740 -1.8544
  318SOL    HW2 2629   1.302   6.939   9.250  1.2113  1.5479  1.2543
  319SOL     OW 2630   3.288   5.152   1.432 -0.5673 -0.1361  0.4949
  319SOL    HW1 2631   3.252   5.069   1.463  1.9858 -1.2639  0.6527
  319SOL    HW2 2632   3.254   5.161   1.343 -0.2693 -1.7664  0.1886
  320SOL     OW 2633   1.996   1.466   8.099  0.0558  0.3514 -0.6798
  320SOL    HW1 2634   1.946   1.523   8.158 -1.4098  0.2310 -1.7573
  320SOL    HW2 2635   2.052   1.414   8.158  0.0421  1.5674  0.4483
  321SOL     OW 2636   0.025   9.485   8.481 -0.1339 -0.3362  0.2921
  321SOL    HW1 2637   0.073   9.410   8.445 -1.2389 -0.7340 -0.4209
  321SOL    HW2 2638   0.091   9.535   8.529  1.4092  0.1525 -2.1495
  322SOL     OW 2639   1.946   7.087   5.378  0.1906 -0.0844  0.7124
  322SOL    HW1 2640   1.877   7.083   5.445 -0.4635 -0.2468  0.0423
  322SOL    HW2 2641   1.931   7.010   5.324  0.1100  0.5436 -0.1865
  323SOL     OW 2642   9.535   0.594   4.820  0.2839  0.2071  0.4189
  323SOL    HW1 2643   9.501   0.504   4.820  0.2034  0.2252 -0.5343
  323SOL    HW2 2644   9.492   0.636   4.894  0.6405 -0.6530  1.1382
  324SOL     OW 2645   1.974   7.784   5.881 -0.0970 -0.4562  0.0652
  324SOL    HW1 2646   1.919   7.715   5.843  0.0232 -0.8018  0.5070
  324SOL    HW2 2647   1.978   7.762   5.974 -1.1985  0.9248  0.4634
  325SOL     OW 2648   5.738   0.183   0.073 -0.3379 -0.2025 -0.1878
  325SOL    HW1 2649   5.690   0.115   0.026 -0.8556  0.1017 -0.1076
  325SOL    HW2 2650   5.767   0.141   0.154 -1.4617 -0.0714  0.2989
  326SOL     OW 2651   2.553   7.463   8.437 -0.6673  0.0013  0.2394
  326SOL    HW1 2652   2.479   7.414   8.472  0.6315 -1.5655  0.9286
  326SOL    HW2 2653   2.627   7.438   8.492  0.8697 -0.3343 -1.8394
  327SOL     OW 2654   7.007   2.582   8.084 -0.4729 -0.0899 -0.2934
  327SOL    HW1 2655   6.939   2.518   8.064  0.6101 -2.5780  3.0539
  327SOL    HW2 2656   7.081   2.556   8.030 -0.2877 -1.2696  0.4907
  328SOL     OW 2657   5.269   2.321   7.073  0.0443 -0.2064 -0.4599
  328SOL    HW1 2658   5.321   2.398   7.096  1.0248 -0.0634 -2.9058
  328SOL    HW2 2659   5.334   2.251   7.060 -0.7758 -1.2850  0.9603
  329SOL     OW 2660   4.803   4.954   7.572 -0.4124  0.1687  0.6029
  329SOL    HW1 2661   4.876   4.962   7.510 -2.0567  2.8301 -1.2002
  329SOL    HW2 2662   4.753   4.879   7.541 -1.7083  1.9761 -2.0376
  330SOL     OW 2663   5.492   5.267   3.834 -0.0639 -0.0987  0.4548
  330SOL    HW1 2664   5.446   5.258   3.751 -3.0923  0.3819  1.9537
  330SOL    HW2 2665   5.540   5.349   3.826 -1.2762  0.5467 -0.4052
  331SOL     OW 2666   2.758   1.435   9.518  0.0066  0.3968 -0.0742
  331SOL    HW1 2667   2.793   1.458   9.433  2.4493 -0.7769  0.5396
  331SOL    HW2 2668   2.767   1.515   9.570 -0.2755  0.7315 -0.5311
  332SOL     OW 2669   7.487   6.293   9.012 -0.2317 -0.3042  0.0184
  332SOL    HW1 2670   7.394   6.317   9.011 -0.0922  0.2424 -0.4120
  332SOL    HW2 2671   7.493   6.218   8.952 -0.3563 -0.1960 -0.1292
  333SOL     OW 2672   2.263   3.203   5.043 -0.4831  0.1623  0.1173
  333SOL    HW1 2673   2.254   3.187   5.137  0.3670  2.8887  0.7381
  333SOL    HW2 2674   2.189   3.259   5.021 -1.2420 -1.2371 -1.1280
  334SOL     OW 2675   8.959   2.771   5.496 -0.0411  0.0960  1.2492
  334SOL    HW1 2676   8.943   2.830   5.423  1.3690 -0.4205  0.4784
  334SOL    HW2 2677   8.987   2.828   5.567 -0.3662  0.5102  1.0482
  335SOL     OW 2678   5.224   3.292   7.138  0.2221 -0.2670 -0.7380
  335SOL    HW1 2679   5.197   3.214   7.089  0.0684 -0.8994  0.3135
  335SOL    HW2 2680   5.279   3.258   7.209  0.1693  0.5885 -0.2723
  336SOL     OW 2681   6.724   8.411   3.436 -0.3132 -0.2596  0.5300
  336SOL    HW1 2682   6.786   8.408   3.363 -0.9955  1.1332 -0.1540
  336SOL    HW2 2683   6.699   8.320   3.451  0.0621 -0.5945 -0.7811
  337SOL     OW 2684   8.834   6.551   2.408 -0.1294 -0.2138 -0.4162
  337SOL    HW1 2685   8.880   6.632   2.388  1.4729 -0.8678  0.4464
  337SOL    HW2 2686   8.766   6.578   2.470  0.6264  0.4378  0.1647
  338SOL     OW 2687   0.922   5.565   3.462 -0.4388 -0.1689 -0.6926
  338SOL    HW1 2688   0.877   5.510   3.526 -1.5199 -1.3131 -2.3569
  338SOL    HW2 2689   0.976   5.623   3.515 -0.0955 -2.0772  1.1962
  339SOL     OW 2690   5.221   2.707   2.754 -0.3497 -0.3462 -0.2251
  339SOL    HW1 2691   5.191   2.687   2.843 -2.3344 -1.2423 -1.0387
  339SOL    HW2 2692   5.203   2.627   2.704 -1.2937  0.8503 -1.8954
  340SOL     OW 2693   1.877   7.995   1.406  0.6535  0.2926 -0.3690
  340SOL    HW1 2694   1.856   7.966   1.495  0.5388 -0.0510 -0.5051
  340SOL    HW2 2695   1.804   8.052   1.381 -0.8939 -1.9197 -1.3341
  341SOL     OW 2696   1.347   1.048   9.610  0.7332  0.2215 -0.5988
  341SOL    HW1 2697   1.422   1.108   9.615  0.9065 -0.0482  0.5342
  341SOL    HW2 2698   1.352   1.010   9.522  2.4030 -0.3624 -0.3060
  342SOL     OW 2699   5.382   3.826   3.905 -0.1902 -0.0937  0.2683
  342SOL    HW1 2700   5.398   3.868   3.821  1.1206  0.1672  0.6218
  342SOL    HW2 2701   5.327   3.750   3.884 -2.4332  1.6309 -0.4030
  343SOL     OW 2702   1.034   4.544   8.537 -0.1391 -0.1732 -0.5341
  343SOL    HW1 2703   1.060   4.454   8.517  0.7666  0.0870 -0.6045
  343SOL    HW2 2704   1.107   4.597   8.504  0.1109  0.4618  0.9846
  344SOL     OW 2705   7.774   4.719   3.162 -0.2062  0.0379  0.0830
  344SOL    HW1 2706   7.763   4.742   3.070 -1.0298 -0.0719  0.1449
  344SOL    HW2 2707   7.863   4.747   3.184 -0.7436  2.0330 -0.1630
  345SOL     OW 2708   9.056   1.560   1.902 -0.4082 -0.2334 -0.3753
  345SOL    HW1 2709   8.968   1.529   1.880 -0.2264 -0.6374 -0.5464
  345SOL    HW2 2710   9.094   1.584   1.817 -0.8463  1.2985 -0.1718
  346SOL     OW 2711   2.283   2.349   4.331 -0.2949 -0.3601  0.1511
  346SOL    HW1 2712   2.373   2.375   4.312  0.5495 -1.0476  2.7614
  346SOL    HW2 2713   2.252   2.415   4.393 -0.5950 -1.6323  1.3854
  347SOL     OW 2714   1.953   3.908   6.869  0.1345  0.5208 -0.4959
  347SOL    HW1 2715   1.948   3.848   6.795  0.1663 -0.5072  0.3078
  347SOL    HW2 2716   1.936   3.994   6.832 -1.4351 -0.1655 -1.4428
  348SOL     OW 2717   2.451   5.773   3.148  0.2081 -0.1757  0.4240
  348SOL    HW1 2718   2.504   5.835   3.098 -0.4328  0.4622  0.5084
  348SOL    HW2 2719   2.429   5.704   3.086 -0.2587  0.4129 -0.0708
  349SOL     OW 2720   6.517   9.587   1.919 -0.6210  0.4633 -0.1880
  349SOL    HW1 2721   6.515   9.679   1.945  0.1620  0.2456  0.7028
  349SOL    HW2 2722   6.533   9.588   1.825 -0.4594  1.2371 -0.1546
  350SOL     OW 2723   2.466   2.438   0.547  0.3668  0.2766  0.0250
  350SOL    HW1 2724   2.515   2.365   0.509 -0.8013 -1.4604  1.6732
  350SOL    HW2 2725   2.405   2.465   0.478  0.1326 -1.0115 -0.2996
  351SOL     OW 2726   7.712   6.419   4.654  0.1308 -0.1804  0.3524
  351SOL    HW1 2727   7.698   6.500   4.703 -1.2428  0.3472 -0.8511
  351SOL    HW2 2728   7.645   6.359   4.689 -1.1994  0.3586 -1.1365
  352SOL     OW 2729   7.163   4.251   8.320 -0.4043 -0.3960  0.6870
  352SOL    HW1 2730   7.136   4.266   8.411 -1.6258 -1.0611  0.4554
  352SOL    HW2 2731   7.122   4.168   8.297  0.3309 -0.4929 -0.3169
  353SOL     OW 2732   3.551   0.635   6.492  0.0548  0.0153 -0.1644
  353SOL    HW1 2733   3.632   0.591   6.518  0.8177  1.0509 -0.7369
  353SOL    HW2 2734   3.577   0.696   6.423 -0.9828  1.3082  0.5339
  354SOL     OW 2735   9.097   5.182   2.423 -0.4247  0.1208  0.3098
  354SOL    HW1 2736   9.052   5.126   2.359  0.3286 -1.1156  0.8179
  354SOL    HW2 2737   9.188   5.181   2.395  0.0391 -0.9855  1.7526
  355SOL     OW 2738   5.423   6.755   5.730 -0.2932  0.3724  0.1350
  355SOL    HW1 2739   5.513   6.765   5.761 -1.2538 -1.9646  4.4378
  355SOL    HW2 2740   5.429   6.690   5.660  1.4435  1.2049 -0.5462
  356SOL     OW 2741   7.080   5.334   6.524  0.0437  0.5352 -0.7155
  356SOL    HW1 2742   7.159   5.387   6.528  0.2269  0.2381  3.0732
  356SOL    HW2 2743   7.088   5.273   6.597 -2.6202 -1.1291 -1.6597
  357SOL     OW 2744   2.587   6.318   5.835 -0.0603  1.1168 -0.5286
  357SOL    HW1 2745   2.572   6.327   5.929 -2.4227  2.3323 -0.9550
  357SOL    HW2 2746   2.520   6.374   5.794 -1.0999 -1.6811 -2.9991
  358SOL     OW 2747   0.990   9.209   4.186  0.0053  0.6826 -0.6408
  358SOL    HW1 2748   1.055   9.269   4.150 -0.1976  2.0711  1.1506
  358SOL    HW2 2749   0.962   9.250   4.268 -2.8909 -0.0042 -1.1492
  359SOL     OW 2750   2.629   7.796   6.970  0.4677 -0.3246 -0.0179
  359SOL    HW1 2751   2.546   7.823   7.009 -0.2641  1.6469 -2.6167
  359SOL    HW2 2752   2.606   7.775   6.879  2.6862 -0.3667 -0.6182
  360SOL     OW 2753   6.232   4.825   5.159  0.5075  0.2664  0.2648
  360SOL    HW1 2754   6.245   4.917   5.135 -0.5559 -0.2345 -2.7694
  360SOL    HW2 2755   6.160   4.796   5.102  0.9649 -2.5002  0.9721
  361SOL     OW 2756   7.505   6.215   4.645 -0.0270  0.6851  0.2222
  361SOL    HW1 2757   7.419   6.174   4.646  0.2786 -0.0159  1.4914
  361SOL    HW2 2758   7.555   6.164   4.581 -0.9236  1.9861 -1.5645
  362SOL     OW 2759   1.579   3.348   2.407  0.7255 -0.1312 -0.2619
  362SOL    HW1 2760   1.568   3.429   2.357  3.5988  0.9011  0.5388
  362SOL    HW2 2761   1.505   3.347   2.467  0.3854  1.7397 -0.5777
  363SOL     OW 2762   5.474   4.683   0.273 -0.4479  0.1449 -0.3705
  363SOL    HW1 2763   5.510   4.746   0.210  1.4826  0.5530  1.0610
  363SOL    HW2 2764   5.485   4.725   0.358  0.7337 -2.0290  0.6120
  364SOL     OW 2765   5.394   2.385   0.659  0.2898 -0.6267 -0.0069
  364SOL    HW1 2766   5.406   2.306   0.713 -0.7701 -1.6559 -1.2215
  364SOL    HW2 2767   5.410   2.356   0.570 -0.1252  0.5397 -0.4824
  365SOL     OW 2768   6.663   1.581   7.784 -0.2782  0.0667  0.1903
  365SOL    HW1 2769   6.618   1.578   7.700 -1.1085 -0.0090  0.6276
  365SOL    HW2 2770   6.746   1.624   7.765 -1.0157  1.2879 -0.4344
  366SOL     OW 2771   8.102   5.510   9.547  0.3758 -0.5014 -0.2249
  366SOL    HW1 2772   8.150   5.427   9.547 -0.4346 -0.9859  0.5721
  366SOL    HW2 2773   8.169   5.577   9.557  1.0439 -1.0457 -0.9192
  367SOL     OW 2774   6.145   8.720   3.676 -0.5066  0.6469  0.7042
  367SOL    HW1 2775   6.157   8.743   3.768 -1.6340 -0.4722  1.1621
  367SOL    HW2 2776   6.227   8.746   3.634 -0.5174  2.4942  1.7375
  368SOL     OW 2777   4.578   6.093   3.674 -0.4148 -0.2274  0.4164
  368SOL    HW1 2778   4.496   6.105   3.625  0.2337  0.4592 -0.5335
  368SOL    HW2 2779   4.612   6.009   3.643 -0.2381 -0.0158  0.0377
  369SOL     OW 2780   6.397   9.626   2.632  0.0579  0.8760  0.0315
  369SOL    HW1 2781   6.308   9.626   2.667  0.5809  1.3981  1.4333
  369SOL    HW2 2782   6.407   9.540   2.592 -1.3269  1.0934 -0.8540
  370SOL     OW 2783   7.709   6.498   0.949 -0.3443  0.0175  0.4204
  370SOL    HW1 2784   7.642   6.543   0.897 -1.6390  0.0846  2.0569
  370SOL    HW2 2785   7.782   6.560   0.952 -0.3302  0.1129 -1.0579
  371SOL     OW 2786   1.238   7.924   0.067  0.2650 -0.2792 -0.0789
  371SOL    HW1 2787   1.295   7.991   0.030  0.5790 -1.0767 -1.0901
  371SOL    HW2 2788   1.155   7.937   0.021  0.0688 -0.0564  0.3336
  372SOL     OW 2789   5.208   9.461   8.398  0.1778  0.4469  0.1573
  372SOL    HW1 2790   5.127   9.492   8.440 -0.2450  1.8024 -1.5780
  372SOL    HW2 2791   5.179   9.420   8.317  1.1394 -0.4755  0.2493
  373SOL     OW 2792   6.963   6.240   5.943 -0.1900 -0.6638  0.3904
  373SOL    HW1 2793   6.926   6.166   5.992  0.4448 -1.2937 -0.0547
  373SOL    HW2 2794   6.902   6.312   5.958 -0.1306 -0.8946  1.9195
  374SOL     OW 2795   9.475   1.816   3.122 -0.1333  0.2310  0.0341
  374SOL    HW1 2796   9.547   1.817   3.185 -0.6866 -1.4817  0.7600
  374SOL    HW2 2797   9.509   1.767   3.047 -0.2705  0.0836  0.0648
  375SOL     OW 2798   4.499   8.180   5.343 -0.0570 -0.0077  0.1714
  375SOL    HW1 2799   4.525   8.089   5.358  1.0527  0.0539 -1.2024
  375SOL    HW2 2800   4.406   8.175   5.321  0.0108 -0.8099  0.0500
  376SOL     OW 2801   9.656   3.677   5.913  0.4035  0.5638 -0.6225
  376SOL    HW1 2802   9.606   3.674   5.832 -0.0766  0.3450 -0.3271
  376SOL    HW2 2803   9.726   3.740   5.897 -0.7438  1.8994 -0.6101
  377SOL     OW 2804   5.247   2.963   5.724 -0.1013 -0.1743  0.1502
  377SOL    HW1 2805   5.338   2.935   5.730 -0.0027 -0.0783 -0.6779
  377SOL    HW2 2806   5.197   2.882   5.717 -0.3244 -0.3519  2.8156
  378SOL     OW 2807   7.227   4.644   7.569  0.1774 -0.0525  0.0315
  378SOL    HW1 2808   7.266   4.716   7.520 -0.3827 -0.4935 -1.1022
  378SOL    HW2 2809   7.150   4.619   7.518 -0.6284 -0.3284  1.3129
  379SOL     OW 2810   7.382   8.122   0.597 -0.3342 -0.7944  0.0033
  379SOL    HW1 2811   7.307   8.181   0.602  0.9885  1.0553 -0.8590
  379SOL    HW2 2812   7.380   8.073   0.680 -0.8563  1.2440  1.2483
  380SOL     OW 2813   0.941   4.585   0.065  0.2270 -0.1703 -0.2191
  380SOL    HW1 2814   1.008   4.649   0.089 -0.9224  1.1310 -0.3584
  380SOL    HW2 2815   0.915   4.546   0.149 -1.3434  1.9122  0.3550
  381SOL     OW 2816   6.514   0.165   7.163 -0.4622  0.0122 -0.0406
  381SOL    HW1 2817   6.422   0.148   7.143 -0.4262 -1.1731  0.7335
  381SOL    HW2 2818   6.538   0.235   7.102 -0.9149 -2.0076 -2.7591
  382SOL     OW 2819   1.251   8.848   8.220 -0.1215  0.3526 -0.7814
  382SOL    HW1 2820   1.328   8.895   8.252 -0.0083 -0.8167  0.7665
  382SOL    HW2 2821   1.185   8.863   8.287  0.0801 -2.0652  0.0485
  383SOL     OW 2822   5.192   8.323   6.592 -0.5910 -0.1365  0.3747
  383SOL    HW1 2823   5.177   8.370   6.674 -1.7796 -1.0789  0.7191
  383SOL    HW2 2824   5.156   8.380   6.524 -0.4729  0.2136  0.6027
  384SOL     OW 2825   3.177   3.846   7.084  0.4846  0.1160  0.1128
  384SOL    HW1 2826   3.250   3.800   7.043  1.0427  0.0632  1.1314
  384SOL    HW2 2827   3.197   3.844   7.177 -0.2070  1.1621  0.3031
  385SOL     OW 2828   8.561   4.499   6.044  0.0898  0.4735 -0.1321
  385SOL    HW1 2829   8.546   4.565   6.111  0.8934  2.2147 -1.5958
  385SOL    HW2 2830   8.618   4.541   5.980  1.4358 -1.9726 -0.6724
  386SOL     OW 2831   7.798   9.419   0.563 -0.3160 -0.8828  0.2966
  386SOL    HW1 2832   7.811   9.329   0.591  0.8683 -1.2748 -1.3146
  386SOL    HW2 2833   7.886   9.457   0.561 -0.4423 -0.5724 -1.6935
  387SOL     OW 2834   6.603   6.129   1.896 -0.3137  0.0880 -0.1688
  387SOL    HW1 2835   6.511   6.118   1.919 -0.2266  0.7439  0.5358
  387SOL    HW2 2836   6.607   6.213   1.850  0.0530  0.5256  0.6202
  388SOL     OW 2837   0.350   0.882   6.567  0.2290 -0.0843 -0.1340
  388SOL    HW1 2838   0.425   0.852   6.619  0.8737 -2.2683 -2.1539
  388SOL    HW2 2839   0.285   0.813   6.577 -0.6595  0.7322 -0.1783
  389SOL     OW 2840   5.429   7.796   7.061  0.6208  0.0272 -0.3412
  389SOL    HW1 2841   5.376   7.749   6.997  1.8225  0.9765 -2.1254
  389SOL    HW2 2842   5.379   7.876   7.078 -0.2875 -0.7688  0.8965
  390SOL     OW 2843   1.356   1.391   0.474  0.5944  0.2020  0.1982
  390SOL    HW1 2844   1.400   1.372   0.557  3.1726  2.0469 -0.6100
  390SOL    HW2 2845   1.342   1.486   0.475  0.9114  0.3082 -1.5157
  391SOL     OW 2846   2.176   3.840   8.528 -0.4809 -0.3850  0.4798
  391SOL    HW1 2847   2.130   3.756   8.537  0.2478 -1.0033 -1.2568
  391SOL    HW2 2848   2.220   3.852   8.613  1.5283 -3.0798 -0.0416
  392SOL     OW 2849   2.756   3.043   6.948 -0.0886 -0.5543 -0.3554
  392SOL    HW1 2850   2.695   2.978   6.913  1.5917 -2.4847  0.1187
  392SOL    HW2 2851   2.841   3.017   6.913  0.4302  2.5888 -1.7546
  393SOL     OW 2852   6.002   7.539   7.687  0.3121  0.2019  0.1276
  393SOL    HW1 2853   5.939   7.505   7.751  1.3498  0.2536  1.2306
  393SOL    HW2 2854   6.028   7.624   7.722  1.1901  0.0634 -0.1509
  394SOL     OW 2855   6.207   1.299   8.644  0.1584  0.5257  0.2058
  394SOL    HW1 2856   6.264   1.222   8.636  0.2917  0.7517 -1.2897
  394SOL    HW2 2857   6.121   1.268   8.614  0.0770  0.8060  0.1446
  395SOL     OW 2858   6.239   0.599   8.408  0.4368 -0.0100 -0.5694
  395SOL    HW1 2859   6.322   0.579   8.451 -0.0860 -2.0330 -0.3885
  395SOL    HW2 2860   6.244   0.553   8.324 -0.3204  0.2206 -0.7448
  396SOL     OW 2861   8.990   2.851   0.482 -0.5652  0.0145  0.1011
  396SOL    HW1 2862   8.998   2.946   0.479  1.9090 -0.0848  1.3640
  396SOL    HW2 2863   8.896   2.835   0.490 -0.9922  2.3568  0.4799
  397SOL     OW 2864   8.081   9.241   3.794 -0.5580 -1.0398 -0.0324
  397SOL    HW1 2865   8.131   9.222   3.874 -2.0891 -0.7681  1.0398
  397SOL    HW2 2866   8.147   9.263   3.729  0.7092 -0.0662  1.5045
  398SOL     OW 2867   0.730   8.808   3.990 -0.0389 -0.2816  0.2361
  398SOL    HW1 2868   0.666   8.879   3.987 -0.0014 -0.2176  0.8297
  398SOL    HW2 2869   0.717   8.760   3.908 -0.3692  0.1411  0.0366
  399SOL     OW 2870   8.293   7.522   1.728 -0.9608 -0.1153  0.1634
  399SOL    HW1 2871   8.222   7.558   1.674 -1.9288 -0.0156  1.4572
  399SOL    HW2 2872   8.309   7.589   1.794 -2.1736 -1.6002  2.0728
  400SOL     OW 2873   7.792   3.986   0.315  0.0572 -0.3357 -0.7435
  400SOL    HW1 2874   7.739   4.049   0.364 -0.2230  0.2610 -1.7848
  400SOL    HW2 2875   7.883   4.009   0.336 -0.0620 -0.1382 -0.4437
  401SOL     OW 2876   8.257   8.896   2.137 -0.5511  0.1490 -0.3539
  401SOL    HW1 2877   8.200   8.826   2.168 -0.2772 -0.0266 -0.2486
  401SOL    HW2 2878   8.249   8.964   2.204 -1.9520  0.8400 -1.1648
  402SOL     OW 2879   1.219   5.364   0.049  0.0323  0.2212 -0.0948
  402SOL    HW1 2880   1.307   5.400   0.043  0.9666 -1.5121  2.0337
  402SOL    HW2 2881   1.195   5.373   0.141 -1.8287  0.1669 -0.5230
  403SOL     OW 2882   4.082   4.720   8.224  0.2991 -0.3647  0.3113
  403SOL    HW1 2883   4.052   4.718   8.315  2.0745 -0.0666  0.9521
  403SOL    HW2 2884   4.092   4.814   8.205 -1.4498 -0.3406 -0.7257
  404SOL     OW 2885   2.968   9.170   0.224  0.2968  0.5967 -0.0092
  404SOL    HW1 2886   3.011   9.095   0.182 -0.2357  1.8618 -3.0506
  404SOL    HW2 2887   2.886   9.182   0.176 -2.2822 -0.0069  3.8318
  405SOL     OW 2888   4.135   7.470   5.528  0.4054 -0.0967  0.3483
  405SOL    HW1 2889   4.060   7.432   5.574  0.9338 -1.7844 -0.1045
  405SOL    HW2 2890   4.121   7.446   5.436  1.0118  0.4159  0.1158
  406SOL     OW 2891   8.507   6.115   4.570  0.1504  0.0414 -0.3430
  406SOL    HW1 2892   8.446   6.100   4.497 -0.2252 -0.4462  0.0624
  406SOL    HW2 2893   8.533   6.027   4.597 -1.2598  0.1076  1.4038
  407SOL     OW 2894   7.298   8.621   8.813 -0.1714 -0.3006 -0.1398
  407SOL    HW1 2895   7.227   8.557   8.814 -0.2111 -0.2670  1.5366
  407SOL    HW2 2896   7.271   8.686   8.747 -0.6123 -1.4462 -1.1233
  408SOL     OW 2897   2.564   6.069   8.135  0.3923 -0.0139  0.7058
  408SOL    HW1 2898   2.593   5.983   8.105 -0.3640 -0.1037  0.2121
  408SOL    HW2 2899   2.601   6.078   8.223  1.4870 -0.3286  0.2858
  409SOL     OW 2900   4.800   2.381   4.107  0.0230 -0.0987  0.0655
  409SOL    HW1 2901   4.788   2.411   4.197  1.9412 -0.1429  0.3796
  409SOL    HW2 2902   4.833   2.292   4.115 -0.8004 -0.4836 -0.7240
  410SOL     OW 2903   5.293   9.461   6.127 -0.0252 -0.5017 -0.3885
  410SOL    HW1 2904   5.340   9.385   6.161 -1.1394 -1.1111 -0.1505
  410SOL    HW2 2905   5.359   9.530   6.122  1.2372 -1.7228 -1.4969
  411SOL     OW 2906   1.773   7.177   3.252 -0.0558  0.4888  0.6392
  411SOL    HW1 2907   1.847   7.126   3.285 -0.8168 -0.1324  1.4367
  411SOL    HW2 2908   1.695   7.131   3.285 -0.9327 -0.5046 -2.4680
  412SOL     OW 2909   5.260   3.660   8.866  0.4312  0.4326  0.0767
  412SOL    HW1 2910   5.236   3.577   8.908 -0.8374  0.7131 -0.0461
  412SOL    HW2 2911   5.254   3.725   8.937  3.6876  0.1636  0.7711
  413SOL     OW 2912   3.106   7.712   1.888 -0.4277 -0.3241  0.1828
  413SOL    HW1 2913   3.110   7.788   1.946  0.0042  0.2142 -0.5421
  413SOL    HW2 2914   3.107   7.749   1.800  0.0136 -1.1842 -0.1829
  414SOL     OW 2915   7.885   1.124   8.049 -0.0110  0.1655  0.2071
  414SOL    HW1 2916   7.907   1.071   7.972 -0.2210 -0.5032  0.6029
  414SOL    HW2 2917   7.878   1.061   8.121  1.4406  0.9058  1.0584
  415SOL     OW 2918   0.678   3.804   8.736  0.1215 -0.3371  0.0458
  415SOL    HW1 2919   0.622   3.734   8.769 -1.3205  0.5064 -0.5294
  415SOL    HW2 2920   0.714   3.845   8.815 -2.1752  0.7712  0.5941
  416SOL     OW 2921   6.173   6.252   5.049  0.2913  0.4302  0.1165
  416SOL    HW1 2922   6.182   6.158   5.035 -1.5890  0.2034  0.1756
  416SOL    HW2 2923   6.200   6.292   4.966  1.4453 -0.1209  0.2155
  417SOL     OW 2924   4.791   0.048   0.663 -0.2698 -0.1820  0.6113
  417SOL    HW1 2925   4.812  -0.025   0.604 -1.9462 -1.9622  2.0942
  417SOL    HW2 2926   4.874   0.070   0.705  0.4712 -0.4610 -0.6482
  418SOL     OW 2927   2.794   5.068   1.752 -0.1977  0.3627 -0.5411
  418SOL    HW1 2928   2.790   5.122   1.831 -0.2624  0.9912 -0.9689
  418SOL    HW2 2929   2.887   5.060   1.733 -0.0929 -0.9773  0.3903
  419SOL     OW 2930   3.123   9.525   1.680  0.2228  0.7872 -0.4126
  419SOL    HW1 2931   3.212   9.541   1.649  0.8231 -1.7857 -0.2293
  419SOL    HW2 2932   3.128   9.536   1.775 -0.3230  3.1328 -0.5820
  420SOL     OW 2933   6.599   8.404   7.414 -0.0328  0.2352  0.7945
  420SOL    HW1 2934   6.641   8.326   7.452  0.8001 -0.5768 -1.5768
  420SOL    HW2 2935   6.631   8.477   7.467  1.9453 -0.7136  1.0105
  421SOL     OW 2936   6.676   3.105   8.445  0.6149  0.0123 -0.9039
  421SOL    HW1 2937   6.676   3.076   8.353 -4.1576  2.1017 -1.8578
  421SOL    HW2 2938   6.718   3.191   8.443  3.7349 -1.3789 -0.3078
  422SOL     OW 2939   5.190   9.059   4.249  0.1122  0.1119 -0.6368
  422SOL    HW1 2940   5.258   9.063   4.181  0.1969  0.9078 -0.5260
  422SOL    HW2 2941   5.113   9.097   4.207 -0.0027  0.0602 -0.4717
  423SOL     OW 2942   5.326   9.357   6.438 -0.2518 -0.1929  1.1391
  423SOL    HW1 2943   5.244   9.318   6.466  0.1747 -0.0343  2.6832
  423SOL    HW2 2944   5.357   9.300   6.368 -1.2106 -0.7696  1.1676
  424SOL     OW 2945   9.151   9.390   5.152 -0.3451  0.4882  0.4015
  424SOL    HW1 2946   9.157   9.476   5.112  2.0794  0.7308  1.1399
  424SOL    HW2 2947   9.141   9.407   5.245 -1.0364 -0.0676  0.4428
  425SOL     OW 2948   4.841   7.115   4.027 -0.3963 -0.6519 -0.1969
  425SOL    HW1 2949   4.834   7.028   4.065  0.7630 -0.5726  0.2391
  425SOL    HW2 2950   4.906   7.160   4.082 -2.1036  1.0139  0.5842
  426SOL     OW 2951   0.498   2.995   1.037  0.2780 -0.8872  0.7587
  426SOL    HW1 2952   0.567   3.024   1.097  1.6136  0.0779 -1.1440
  426SOL    HW2 2953   0.530   3.019   0.950 -2.7071  0.1220 -0.1962
  427SOL     OW 2954   9.019   8.747   8.893  0.2083 -0.5464  0.2965
  427SOL    HW1 2955   9.022   8.663   8.847 -2.0228 -0.9653  0.8333
  427SOL    HW2 2956   9.009   8.724   8.985 -0.1613  0.3026  0.4802
  428SOL     OW 2957   4.343   5.601   0.510  0.0956  0.2952 -0.6585
  428SOL    HW1 2958   4.317   5.692   0.495 -0.8401  0.2993  0.7663
  428SOL    HW2 2959   4.438   5.602   0.504  0.0163  0.9892 -2.4735
  429SOL     OW 2960   0.460   6.356   7.766 -0.2329 -0.2691  0.5946
  429SOL    HW1 2961   0.480   6.340   7.674  0.6750  2.4431  0.1981
  429SOL    HW2 2962   0.543   6.340   7.811 -0.3119 -0.2921  0.7320
  430SOL     OW 2963   0.245   9.572   9.311  0.5516 -0.0311  0.4605
  430SOL    HW1 2964   0.267   9.585   9.219  0.0917 -0.7616  0.2426
  430SOL    HW2 2965   0.237   9.478   9.321  0.4578  0.0555  1.2184
  431SOL     OW 2966   4.006   2.335   3.020 -0.1800  0.5584  0.4222
  431SOL    HW1 2967   3.990   2.316   3.112  1.2226  0.9190  0.7638
  431SOL    HW2 2968   4.029   2.427   3.017 -0.3878  0.5965 -0.3167
  432SOL     OW 2969   9.100   3.153   4.343 -0.0969 -0.0413 -0.2873
  432SOL    HW1 2970   9.124   3.246   4.337 -1.4157  0.4280  0.9824
  432SOL    HW2 2971   9.105   3.121   4.253 -2.6775  2.1020 -1.3286
  433SOL     OW 2972   4.961   4.554   2.655  0.4387  0.2469 -0.3260
  433SOL    HW1 2973   4.924   4.641   2.665  0.7431  0.4492 -0.8881
  433SOL    HW2 2974   4.964   4.518   2.744  0.2525  0.7800 -0.1007
  434SOL     OW 2975   4.369   8.200   3.707  0.1764  0.8063  0.3055
  434SOL    HW1 2976   4.390   8.141   3.780 -2.2350 -1.5408 -0.7366
  434SOL    HW2 2977   4.305   8.261   3.743 -2.1454 -1.2572 -0.0235
  435SOL     OW 2978   6.125   0.591   3.550 -0.1928 -0.0335  0.0140
  435SOL    HW1 2979   6.081   0.656   3.604  1.0320  0.8090  0.0556
  435SOL    HW2 2980   6.080   0.595   3.466  0.7237  1.9065 -0.4337
  436SOL     OW 2981   4.537   7.638   7.021  0.5972 -0.5309 -0.0139
  436SOL    HW1 2982   4.457   7.642   6.969  1.1643  1.2477 -0.8369
  436SOL    HW2 2983   4.516   7.685   7.101  0.8609  0.1132 -0.3166
  437SOL     OW 2984   6.830   1.115   5.479 -0.4297  0.5823  0.1500
  437SOL    HW1 2985   6.898   1.084   5.420  0.9176  1.6560  1.0980
  437SOL    HW2 2986   6.834   1.210   5.473  0.8769  0.8173  3.1290
  438SOL     OW 2987   9.073   2.931   6.041 -0.3209  0.6993  0.8027
  438SOL    HW1 2988   9.065   2.842   6.005  0.8144  0.5695  0.8459
  438SOL    HW2 2989   9.054   2.988   5.967  0.0064  0.4273  0.5061
  439SOL     OW 2990   0.707   3.411   4.248  0.0955  0.2094 -0.0378
  439SOL    HW1 2991   0.710   3.499   4.287  1.6407 -0.7026  2.1117
  439SOL    HW2 2992   0.799   3.384   4.242 -0.3856 -1.6795  0.4085
  440SOL     OW 2993   7.795   7.903   6.021 -0.4075  0.1369  0.5383
  440SOL    HW1 2994   7.764   7.830   5.967 -0.9296 -0.1687  1.2363
  440SOL    HW2 2995   7.886   7.915   5.995 -0.5800 -0.1755 -0.2218
  441SOL     OW 2996   0.238   6.533   7.575  0.4474  0.0283 -0.4353
  441SOL    HW1 2997   0.201   6.459   7.622  0.5873  0.8252  0.9670
  441SOL    HW2 2998   0.161   6.581   7.543  0.2926  0.4975  0.6050
  442SOL     OW 2999   3.099   3.256   0.134  0.1317  0.2829 -0.0374
  442SOL    HW1 3000   3.022   3.310   0.114  0.5054  0.7657 -0.1996
  442SOL    HW2 3001   3.122   3.279   0.224 -0.4273 -0.5011  0.3095
  443SOL     OW 3002   5.003   5.243   8.764 -0.0292  0.4207 -0.0980
  443SOL    HW1 3003   4.952   5.174   8.720 -0.4917  0.5775  0.1823
  443SOL    HW2 3004   5.072   5.266   8.701 -0.0461 -0.0927 -0.3123
  444SOL     OW 3005   6.614   3.662   4.428  0.1271  0.0739  0.4542
  444SOL    HW1 3006   6.651   3.677   4.342 -0.4375 -0.7397  0.0578
  444SOL    HW2 3007   6.551   3.733   4.440  1.0794  0.8970  0.7273
  445SOL     OW 3008   3.475   0.618   2.251 -0.9356  0.1350  0.7878
  445SOL    HW1 3009   3.546   0.678   2.274 -0.3885  0.1853 -0.9116
  445SOL    HW2 3010   3.453   0.574   2.333  1.7914 -0.6774  1.1805
  446SOL     OW 3011   3.660   1.356   3.149 -0.2906  0.3741  0.4482
  446SOL    HW1 3012   3.718   1.287   3.182  3.9575  1.9444 -2.9480
  446SOL    HW2 3013   3.609   1.313   3.081  2.0024  0.3072 -1.3320
  447SOL     OW 3014   2.727   9.418   6.666 -0.2467  0.1796 -0.3386
  447SOL    HW1 3015   2.642   9.376   6.659  0.1856 -0.5762 -1.2390
  447SOL    HW2 3016   2.714   9.505   6.627 -0.2644 -0.4535 -1.7798
  448SOL     OW 3017   2.083   4.615   6.250  0.2897 -0.3586 -0.2046
  448SOL    HW1 3018   1.991   4.636   6.266  0.8969  2.2943  0.2454
  448SOL    HW2 3019   2.121   4.604   6.337  0.7104  0.0621 -0.3321
  449SOL     OW 3020   0.904   4.668   5.102  0.2342  0.1184 -0.2611
  449SOL    HW1 3021   0.960   4.630   5.169 -0.3562 -1.1368 -0.4422
  449SOL    HW2 3022   0.871   4.749   5.140  1.0668  0.1672  0.3750
  450SOL     OW 3023   6.738   0.331   5.255 -0.1588 -0.0057 -0.4628
  450SOL    HW1 3024   6.832   0.348   5.264 -0.1556  0.0724 -0.6270
  450SOL    HW2 3025   6.732   0.260   5.192 -0.2716  1.2015 -1.8760
  451SOL     OW 3026   7.207   9.199   4.896  0.0213  0.4134  0.1868
  451SOL    HW1 3027   7.281   9.220   4.838 -0.1629  0.9051  0.1231
  451SOL    HW2 3028   7.143   9.268   4.878  0.2124  0.9322  1.4189
  452SOL     OW 3029   1.417   9.593   5.184 -0.2282 -0.2955  0.1082
  452SOL    HW1 3030   1.431   9.591   5.089 -0.7823 -1.3768  0.0338
  452SOL    HW2 3031   1.416   9.501   5.210 -1.5326 -0.0720  0.9443
  453SOL     OW 3032   2.381   7.852   7.448 -0.4864 -0.1479  0.2545
  453SOL    HW1 3033   2.467   7.818   7.472 -1.0417 -1.5229  0.3936
  453SOL    HW2 3034   2.326   7.774   7.442 -1.4528  0.6042 -0.9634
  454SOL     OW 3035   5.043   7.912   8.809 -0.1923  0.1846 -0.0631
  454SOL    HW1 3036   5.096   7.843   8.850  0.7754  1.6635  1.2850
  454SOL    HW2 3037   5.097   7.944   8.737  0.5782  1.3257  0.9802
  455SOL     OW 3038   1.784   7.111   7.633 -0.5034 -0.5883  0.4238
  455SOL    HW1 3039   1.777   7.153   7.719  0.4276 -3.5714  2.1273
  455SOL    HW2 3040   1.757   7.020   7.649  0.7894 -1.5269 -2.1813
  456SOL     OW 3041   6.304   4.161   4.676  0.2944 -0.4948 -0.3079
  456SOL    HW1 3042   6.253   4.209   4.611 -0.3031 -0.6398  0.0359
  456SOL    HW2 3043   6.277   4.199   4.760  2.1012  0.6576 -0.2148
  457SOL     OW 3044   2.217   1.305   3.898  0.0521  0.0025  0.0167
  457SOL    HW1 3045   2.216   1.209   3.899 -1.4327 -0.0071 -0.5300
  457SOL    HW2 3046   2.188   1.329   3.810  1.7572  0.9751 -0.3300
  458SOL     OW 3047   6.291   0.834   4.754 -0.0837 -0.1269 -0.2099
  458SOL    HW1 3048   6.309   0.927   4.763 -0.7243 -0.0948  0.7832
  458SOL    HW2 3049   6.223   0.815   4.818 -1.7831 -0.7848 -2.1001
  459SOL     OW 3050   7.824   0.064   6.862  0.1346  0.4620 -0.2925
  459SOL    HW1 3051   7.801   0.034   6.950 -0.4023 -0.3515 -0.6924
  459SOL    HW2 3052   7.745   0.050   6.811  0.6379  0.3256 -1.0483
  460SOL     OW 3053   9.501   7.127   1.995  0.1232  0.8086  0.2816
  460SOL    HW1 3054   9.545   7.062   2.050 -0.1755  0.9265  0.6638
  460SOL    HW2 3055   9.515   7.096   1.906  1.5569  1.2076  0.3530
  461SOL     OW 3056   3.307   0.518   5.225  0.4917  0.1226  0.4648
  461SOL    HW1 3057   3.311   0.499   5.318 -1.9447 -0.6156  0.5030
  461SOL    HW2 3058   3.359   0.448   5.184 -0.0752 -0.7366  1.1753
  462SOL     OW 3059   4.196   8.606   5.026  0.0123 -0.8583 -0.1601
  462SOL    HW1 3060   4.167   8.697   5.028  0.6715 -0.6321  1.5854
  462SOL    HW2 3061   4.221   8.588   5.117  0.5760 -2.5588 -0.6236
  463SOL     OW 3062   2.178   7.222   6.007  0.1352  0.4718  0.0757
  463SOL    HW1 3063   2.231   7.214   5.928 -1.1293  1.6802 -0.9365
  463SOL    HW2 3064   2.233   7.184   6.076  0.1433 -3.3984 -1.7687
  464SOL     OW 3065   4.085   5.249   7.458  0.2511 -0.4224  0.1790
  464SOL    HW1 3066   4.022   5.295   7.403  1.1629  0.2327 -0.3340
  464SOL    HW2 3067   4.075   5.157   7.434 -0.9261 -0.4106  0.5417
  465SOL     OW 3068   2.510   9.369   5.671 -0.1817 -0.3196  0.3452
  465SOL    HW1 3069   2.449   9.362   5.597 -0.5761 -2.0599  0.8055
  465SOL    HW2 3070   2.468   9.432   5.730  0.1620  1.1385 -0.8892
  466SOL     OW 3071   4.107   6.262   7.021  0.0569  0.2737 -0.0729
  466SOL    HW1 3072   4.075   6.173   7.038 -0.9584  0.8638  1.3849
  466SOL    HW2 3073   4.029   6.311   6.994  0.7991  0.5115 -1.9025
  467SOL     OW 3074   1.390   9.031   1.325  0.0134 -0.0232 -0.4513
  467SOL    HW1 3075   1.461   9.003   1.266  1.4862  2.5806 -0.0925
  467SOL    HW2 3076   1.427   9.022   1.413 -0.8555 -0.4808 -0.1233
  468SOL     OW 3077   9.036   0.195   0.734  1.0326 -0.2255 -0.2487
  468SOL    HW1 3078   8.966   0.194   0.799 -0.3278  1.6151 -1.5821
  468SOL    HW2 3079   9.110   0.152   0.778  0.0934  0.6567  2.3912
  469SOL     OW 3080   7.863   0.551   1.147  0.3422 -0.0999 -0.1779
  469SOL    HW1 3081   7.791   0.565   1.209  1.0369  0.7528  0.4499
  469SOL    HW2 3082   7.909   0.474   1.182 -1.1346 -1.6477 -1.4404
  470SOL     OW 3083   5.201   5.594   7.291 -0.2647  0.1671  0.3974
  470SOL    HW1 3084   5.250   5.591   7.373  1.3425 -3.4624 -0.4792
  470SOL    HW2 3085   5.255   5.648   7.233 -0.0936  0.6423  0.9921
  471SOL     OW 3086   5.324   6.872   4.310  0.0036  0.4365  0.0658
  471SOL    HW1 3087   5.309   6.811   4.237  2.2989 -1.0225  0.6933
  471SOL    HW2 3088   5.259   6.847   4.376 -1.1315  0.8107 -0.8599
  472SOL     OW 3089   0.053   6.324   1.467  0.2849 -0.1362  0.2855
  472SOL    HW1 3090   0.018   6.236   1.483  0.0864 -0.0874  0.1177
  472SOL    HW2 3091   0.079   6.323   1.375 -0.8298  0.3608 -0.0530
  473SOL     OW 3092   4.369   4.638   5.016 -0.2300 -0.5948 -0.2653
  473SOL    HW1 3093   4.310   4.713   5.012 -0.2822 -0.6572 -0.6920
  473SOL    HW2 3094   4.452   4.672   4.984 -0.1222 -0.5985  0.0022
  474SOL     OW 3095   2.240   3.713   2.181 -0.1099  0.3466 -0.1573
  474SOL    HW1 3096   2.321   3.720   2.132  0.1420 -0.9984  0.0276
  474SOL    HW2 3097   2.259   3.753   2.266  0.2604  0.3197 -0.2282
  475SOL     OW 3098   2.673   8.218   2.652  0.2409 -0.6053 -0.2785
  475SOL    HW1 3099   2.758   8.198   2.691  0.2220  0.6201  0.4321
  475SOL    HW2 3100   2.655   8.308   2.679 -1.7017 -1.1483  0.3409
  476SOL     OW 3101   3.071   1.765   8.497  0.4579  0.4736  0.2200
  476SOL    HW1 3102   3.164   1.772   8.474  0.2977 -0.5151 -0.8303
  476SOL    HW2 3103   3.036   1.853   8.484  1.1470  0.7485  0.1726
  477SOL     OW 3104   4.019   7.432   8.213  0.4884  0.0905 -0.4352
  477SOL    HW1 3105   4.044   7.491   8.284  0.5132  0.9393 -1.1365
  477SOL    HW2 3106   4.023   7.344   8.252 -1.2734  0.6407  1.1553
  478SOL     OW 3107   3.439   2.754   6.021  0.3148  0.4407 -0.1109
  478SOL    HW1 3108   3.505   2.689   5.998 -0.0816  0.1808 -0.5124
  478SOL    HW2 3109   3.426   2.743   6.115  2.7484  2.2420  0.5456
  479SOL     OW 3110   7.225   2.082   3.519 -0.0497 -0.2889 -0.1552
  479SOL    HW1 3111   7.130   2.082   3.533 -0.0833  1.2052 -0.2351
  479SOL    HW2 3112   7.239   2.019   3.448 -0.8271 -1.4104  0.6470
  480SOL     OW 3113   6.399   0.081   4.833 -0.1094 -0.1921 -0.0310
  480SOL    HW1 3114   6.394   0.159   4.777  1.6494 -0.2516 -0.3306
  480SOL    HW2 3115   6.335   0.021   4.795 -0.6265  0.6623 -0.5421
  481SOL     OW 3116   5.727   4.506   4.928 -0.1460 -0.3008  0.0247
  481SOL    HW1 3117   5.750   4.418   4.898 -0.9152 -0.4360 -0.1940
  481SOL    HW2 3118   5.697   4.552   4.849  0.7218  0.3297  0.0403
  482SOL     OW 3119   0.821   0.423   7.737  0.0540  0.1620  0.7481
  482SOL    HW1 3120   0.915   0.404   7.741  0.0616 -0.0924 -0.3625
  482SOL    HW2 3121   0.817   0.515   7.712  0.0511 -0.5117 -2.0301
  483SOL     OW 3122   7.920   6.396   8.570 -0.1876  0.1604 -0.2901
  483SOL    HW1 3123   7.985   6.327   8.563 -1.0696 -0.7222  0.0450
  483SOL    HW2 3124   7.940   6.439   8.653  0.0336 -0.0274 -0.2435
  484SOL     OW 3125   1.909   1.323   2.386  0.1790  0.0330  0.7498
  484SOL    HW1 3126   1.892   1.319   2.292  0.9985  0.4247  0.5805
  484SOL    HW2 3127   1.823   1.308   2.426  0.2232 -2.7131  0.0003
  485SOL     OW 3128   5.987   2.164   3.362  0.3739  0.0514 -0.0484
  485SOL    HW1 3129   6.030   2.244   3.392  0.7701 -0.4817  0.8594
  485SOL    HW2 3130   5.998   2.165   3.267 -0.8583  1.7723 -0.2404
  486SOL     OW 3131   9.452   5.818   3.580  0.5055  0.1019 -1.4866
  486SOL    HW1 3132   9.423   5.732   3.549  1.4794 -0.7350 -0.1962
  486SOL    HW2 3133   9.538   5.801   3.619 -0.3211  1.1833  0.9730
  487SOL     OW 3134   6.992   1.499   7.086  0.2332 -0.4752  0.3056
  487SOL    HW1 3135   7.045   1.560   7.138  1.0251 -1.1369  0.2835
  487SOL    HW2 3136   7.045   1.481   7.008  0.3457 -1.7633  0.6629
  488SOL     OW 3137   7.504   1.970   6.497  0.5418 -0.2002 -0.5507
  488SOL    HW1 3138   7.546   1.912   6.434 -1.0175 -2.8014  0.6534
  488SOL    HW2 3139   7.471   2.043   6.445  1.0719 -1.2327 -2.4154
  489SOL     OW 3140   2.583   0.957   7.270  0.0503  0.1234 -0.2702
  489SOL    HW1 3141   2.628   0.908   7.201  1.8777 -0.3917  1.2001
  489SOL    HW2 3142   2.653   1.008   7.311 -0.9968  0.4317  1.1822
  490SOL     OW 3143   4.785   5.905   2.111  0.2890  0.3039 -0.1598
  490SOL    HW1 3144   4.736   5.832   2.151  1.1323 -0.0095  0.3337
  490SOL    HW2 3145   4.772   5.893   2.017 -1.1164  0.6162 -0.0324
  491SOL     OW 3146   6.341   3.190   5.510 -0.2640 -0.3551 -0.6717
  491SOL    HW1 3147   6.275   3.125   5.484  0.0867 -0.6907 -0.7430
  491SOL    HW2 3148   6.353   3.244   5.432 -1.3560  0.4912 -0.2667
  492SOL     OW 3149   4.335   6.618   6.805  0.2854  0.1232 -0.1823
  492SOL    HW1 3150   4.330   6.713   6.816 -0.2678  0.0680  0.1021
  492SOL    HW2 3151   4.318   6.583   6.892 -2.3211 -0.2830 -0.7483
  493SOL     OW 3152   9.055   6.230   4.551  0.2947 -0.0432  0.1140
  493SOL    HW1 3153   9.105   6.172   4.608  1.0641  0.3828 -0.1013
  493SOL    HW2 3154   9.119   6.260   4.485 -0.0630  1.0403  0.2296
  494SOL     OW 3155   8.630   0.250   2.857 -0.1741 -0.5630  0.1016
  494SOL    HW1 3156   8.585   0.296   2.786  0.5897 -0.1246 -0.1071
  494SOL    HW2 3157   8.613   0.158   2.840 -1.4402 -0.3935  0.3314
  495SOL     OW 3158   4.882   3.778   3.571  0.3734  0.1005 -0.5027
  495SOL    HW1 3159   4.820   3.705   3.571 -0.6329  0.9135 -0.4549
  495SOL    HW2 3160   4.915   3.782   3.661 -0.6643  0.5677 -0.1218
  496SOL     OW 3161   0.320   0.275   4.752  0.5618  0.2466  0.2315
  496SOL    HW1 3162   0.325   0.188   4.790  0.5089  0.6617  1.2287
  496SOL    HW2 3163   0.334   0.262   4.659  0.5948 -0.8189  0.3782
  497SOL     OW 3164   2.511   6.916   7.637 -0.2455 -0.1725 -0.6053
  497SOL    HW1 3165   2.501   6.880   7.549  0.2426 -1.3243 -0.2061
  497SOL    HW2 3166   2.596   6.883   7.667 -0.2807  0.4330  0.1928
  498SOL     OW 3167   6.009   4.819   2.811  0.5437 -0.5238 -0.0756
  498SOL    HW1 3168   5.986   4.802   2.902  0.7638  2.5500  0.6709
  498SOL    HW2 3169   6.003   4.734   2.768 -0.7922 -1.8525  2.5223
  499SOL     OW 3170   0.813   2.845   5.535  0.5253  0.2815  0.5387
  499SOL    HW1 3171   0.747   2.786   5.571  0.1057  0.5112  0.1576
  499SOL    HW2 3172   0.778   2.933   5.549 -0.3638  0.3460 -1.7213
  500SOL     OW 3173   1.364   3.699   0.700 -0.1255  0.7816 -0.2659
  500SOL    HW1 3174   1.394   3.653   0.622 -0.9700 -0.7466  0.2792
  500SOL    HW2 3175   1.443   3.716   0.750  0.4458  1.8782 -1.4575
  501SOL     OW 3176   8.201   1.862   1.813  0.1665  0.0600 -0.5770
  501SOL    HW1 3177   8.241   1.852   1.727 -0.3787  1.9420 -1.1007
  501SOL    HW2 3178   8.127   1.801   1.812  1.0073 -0.9857 -0.8607
  502SOL     OW 3179   3.048   4.429   3.360  0.3876 -0.2083 -0.4462
  502SOL    HW1 3180   3.080   4.411   3.272  0.2952 -2.8496 -0.0110
  502SOL    HW2 3181   3.082   4.517   3.380  1.1636  0.0740 -2.7439
  503SOL     OW 3182   0.664   1.851   1.550 -0.1090  0.2665 -0.4260
  503SOL    HW1 3183   0.573   1.882   1.554 -0.3978 -0.4066 -1.3368
  503SOL    HW2 3184   0.677   1.828   1.458  0.8867  0.0303 -0.2374
  504SOL     OW 3185   1.192   1.813   2.840 -0.4359  0.2323 -0.5408
  504SOL    HW1 3186   1.214   1.805   2.932 -0.8523  0.6605 -0.3993
  504SOL    HW2 3187   1.105   1.774   2.832  0.0847 -0.8910 -0.9816
  505SOL     OW 3188   7.249   2.599   9.671  0.2307 -0.2033 -0.0245
  505SOL    HW1 3189   7.312   2.604   9.600  0.7064  0.3859  0.4281
  505SOL    HW2 3190   7.163   2.606   9.628  0.4568 -1.1528 -0.6513
  506SOL     OW 3191   4.057   4.530   8.720  0.2084 -0.4606 -0.6047
  506SOL    HW1 3192   4.036   4.590   8.648  0.2526 -0.2509 -0.4420
  506SOL    HW2 3193   4.000   4.557   8.792  0.8663 -0.0256 -0.2310
  507SOL     OW 3194   2.638   4.780   7.491 -0.0284  0.6610  0.1356
  507SOL    HW1 3195   2.617   4.703   7.438  0.8588 -0.0977  0.8500
  507SOL    HW2 3196   2.727   4.804   7.464 -0.0166  0.9800  0.4491
  508SOL     OW 3197   0.159   4.122   9.347 -0.0464 -0.1491  0.1461
  508SOL    HW1 3198   0.154   4.034   9.310  2.1468 -0.3691  0.2675
  508SOL    HW2 3199   0.154   4.180   9.270 -0.3225 -0.4121 -0.0372
  509SOL     OW 3200   5.387   7.613   6.402  0.3409  1.0181  0.7386
  509SOL    HW1 3201   5.480   7.622   6.381 -0.0926  2.4036 -0.9134
  509SOL    HW2 3202   5.373   7.519   6.410  1.2961  0.4958 -2.2434
  510SOL     OW 3203   1.270   2.965   5.401  0.2073 -0.0280  0.1603
  510SOL    HW1 3204   1.322   2.907   5.345 -1.2179  0.3221 -1.6032
  510SOL    HW2 3205   1.185   2.922   5.407 -1.0490  2.0115 -1.5877
  511SOL     OW 3206   1.844   5.484   1.988  0.0363 -0.5841  0.6356
  511SOL    HW1 3207   1.809   5.547   1.925 -0.7204 -1.7514 -0.1469
  511SOL    HW2 3208   1.909   5.434   1.939  0.3876 -0.6541  1.1562
  512SOL     OW 3209   5.391   4.005   8.672  0.3202 -0.4083  0.7971
  512SOL    HW1 3210   5.389   4.095   8.639 -0.7134 -0.3183  1.0827
  512SOL    HW2 3211   5.336   4.007   8.750 -1.3344 -1.6956 -0.2577
  513SOL     OW 3212   0.940   0.251   8.468  0.1883 -0.1204  0.0314
  513SOL    HW1 3213   1.014   0.203   8.429  0.9295  1.0045  0.0147
  513SOL    HW2 3214   0.978   0.295   8.544 -0.7403 -0.4640  0.7047
  514SOL     OW 3215   8.166   1.565   1.067 -0.5319  0.3495 -0.0143
  514SOL    HW1 3216   8.225   1.638   1.051  0.1727 -0.1179  0.3975
  514SOL    HW2 3217   8.197   1.496   1.008 -0.0403 -0.2304  0.9043
  515SOL     OW 3218   2.657   8.447   6.004  0.1750 -0.3431  0.0409
  515SOL    HW1 3219   2.696   8.451   6.091  0.6600 -0.1561 -0.1830
  515SOL    HW2 3220   2.679   8.359   5.972  0.8905 -0.0504 -0.2995
  516SOL     OW 3221   2.485   2.374   7.152 -0.3019  0.2546  0.3758
  516SOL    HW1 3222   2.408   2.408   7.106  1.1052 -1.1932 -3.4562
  516SOL    HW2 3223   2.559   2.409   7.103  1.4410 -0.2949  2.4864
  517SOL     OW 3224   3.381   9.169   0.670  0.4965  0.3133  0.3138
  517SOL    HW1 3225   3.476   9.167   0.667  0.5110  0.2578  0.8608
  517SOL    HW2 3226   3.354   9.078   0.675  0.4006  0.3142 -0.0831
  518SOL     OW 3227   3.834   2.100   8.537  0.2816  0.3422 -0.6277
  518SOL    HW1 3228   3.796   2.187   8.529 -2.1483 -0.7027 -1.3780
  518SOL    HW2 3229   3.928   2.115   8.549 -0.0175  3.0110 -1.1800
  519SOL     OW 3230   5.823   1.133   7.619 -0.0558  0.0621 -0.0285
  519SOL    HW1 3231   5.891   1.169   7.563  1.1678 -0.7815  0.8786
  519SOL    HW2 3232   5.797   1.207   7.674  0.0089  0.4227 -0.4722
  520SOL     OW 3233   2.440   0.683   7.232 -0.5802  0.4751  0.0775
  520SOL    HW1 3234   2.446   0.593   7.265  0.5317  0.3490 -0.4237
  520SOL    HW2 3235   2.434   0.737   7.311  1.2013  0.1201  0.5021
  521SOL     OW 3236   5.724   2.642   2.818  0.5113  0.3362  0.0745
  521SOL    HW1 3237   5.767   2.559   2.840  0.6632  0.4068  0.0423
  521SOL    HW2 3238   5.631   2.621   2.818  0.6274 -0.4181 -2.3556
  522SOL     OW 3239   4.735   2.466   8.592  0.7529  0.0085  0.2301
  522SOL    HW1 3240   4.792   2.398   8.556 -0.1313 -1.6405  1.7578
  522SOL    HW2 3241   4.789   2.545   8.590  1.4987 -0.4549 -2.4942
  523SOL     OW 3242   7.359   0.256   4.399 -0.2058 -0.0759  0.0277
  523SOL    HW1 3243   7.329   0.168   4.379 -0.3065  0.0899 -0.5656
  523SOL    HW2 3244   7.287   0.296   4.449 -0.5582 -0.0108 -0.5287
  524SOL     OW 3245   8.410   6.419   5.590 -0.2881 -0.0393 -0.4166
  524SOL    HW1 3246   8.354   6.425   5.513 -0.9448 -1.3476 -0.0645
  524SOL    HW2 3247   8.405   6.327   5.616  0.3527  0.2719  0.8732
  525SOL     OW 3248   8.901   8.971   7.185 -0.0816  0.2095 -0.7726
  525SOL    HW1 3249   8.851   8.958   7.105 -1.5394  1.4301 -0.1071
  525SOL    HW2 3250   8.908   9.066   7.195  1.8936  0.0764 -0.5219
  526SOL     OW 3251   8.313   1.170   1.679  0.2145 -0.2751 -0.6222
  526SOL    HW1 3252   8.331   1.119   1.600 -2.3746 -1.3019 -0.6566
  526SOL    HW2 3253   8.316   1.106   1.750  1.2812  0.4050 -0.0414
  527SOL     OW 3254   3.472   0.313   5.065  0.0951 -0.1841 -0.3596
  527SOL    HW1 3255   3.405   0.246   5.083 -0.4399  0.6303  0.8260
  527SOL    HW2 3256   3.555   0.270   5.087 -0.2588 -0.4108  0.6181
  528SOL     OW 3257   6.338   7.455   6.348 -0.3539  0.0929 -0.1038
  528SOL    HW1 3258   6.388   7.473   6.427  0.2306  0.3920 -0.5317
  528SOL    HW2 3259   6.321   7.361   6.351  1.0822 -0.2078 -0.4189
  529SOL     OW 3260   6.644   2.032   2.676 -0.0049 -0.4256  0.3699
  529SOL    HW1 3261   6.735   2.055   2.692 -0.0734 -0.4685  0.8641
  529SOL    HW2 3262   6.594   2.092   2.732 -0.2996 -0.1058 -0.2343
  530SOL     OW 3263   2.846   7.217   0.018  0.4008 -0.0215 -0.8889
  530SOL    HW1 3264   2.847   7.308  -0.011  1.4260  1.0033  2.0050
  530SOL    HW2 3265   2.913   7.212   0.086 -0.5563 -2.6069  0.0172
  531SOL     OW 3266   5.581   7.302   3.117 -0.4390 -0.2955  0.2420
  531SOL    HW1 3267   5.490   7.285   3.093  0.0277 -1.2264 -0.9050
  531SOL    HW2 3268   5.633   7.269   3.044  0.8143  0.5941  0.6906
  532SOL     OW 3269   1.213   4.870   2.445  0.5264  0.8204  0.7031
  532SOL    HW1 3270   1.209   4.953   2.491  0.3569 -0.5382  3.3226
  532SOL    HW2 3271   1.292   4.827   2.478  1.1115  0.2744 -1.2771
  533SOL     OW 3272   4.053   0.565   2.749  0.1462  0.1072  0.6795
  533SOL    HW1 3273   4.148   0.555   2.747  0.3190  1.5242  0.9007
  533SOL    HW2 3274   4.026   0.565   2.658  0.2002 -1.5346  0.6465
  534SOL     OW 3275   0.299   8.570   9.581  0.0177 -0.2271 -0.0440
  534SOL    HW1 3276   0.354   8.648   9.574 -0.1833 -0.0666  0.1449
  534SOL    HW2 3277   0.274   8.550   9.491 -2.3081  1.6354  0.1001
  535SOL     OW 3278   0.080   4.845   1.321  0.0497  0.1013 -0.0758
  535SOL    HW1 3279   0.161   4.893   1.339  0.7985 -1.0800 -0.1737
  535SOL    HW2 3280   0.088   4.817   1.229 -0.6636  0.3368 -0.2145
  536SOL     OW 3281   9.542   2.244   1.923 -0.0818  0.0311  0.2743
  536SOL    HW1 3282   9.538   2.218   2.015  0.6700  1.9165  0.8830
  536SOL    HW2 3283   9.562   2.337   1.925 -0.5092  0.2170 -1.8123
  537SOL     OW 3284   6.590   6.721   1.338 -0.2902  0.5289 -0.1067
  537SOL    HW1 3285   6.515   6.663   1.330 -0.5507  0.7913  0.3780
  537SOL    HW2 3286   6.587   6.775   1.259 -0.0314 -0.1249 -0.5693
  538SOL     OW 3287   7.365   1.447   4.929  0.1271 -0.3013 -0.4037
  538SOL    HW1 3288   7.288   1.408   4.970  0.0216  1.7527  1.5600
  538SOL    HW2 3289   7.329   1.511   4.866  0.2892 -1.2286 -1.4763
  539SOL     OW 3290   5.509   5.669   4.178  0.3394  0.1440  0.3918
  539SOL    HW1 3291   5.573   5.719   4.126  1.5240 -0.5625  1.1240
  539SOL    HW2 3292   5.426   5.715   4.164  0.9904  1.0779 -0.6066
  540SOL     OW 3293   1.191   8.554   7.684  0.0739 -0.2473  0.0633
  540SOL    HW1 3294   1.105   8.578   7.717 -0.8916  0.9738 -2.9240
  540SOL    HW2 3295   1.177   8.472   7.637  0.6414 -0.2804 -0.0569
  541SOL     OW 3296   6.723   1.484   5.707  0.3780 -0.4220  0.0925
  541SOL    HW1 3297   6.665   1.454   5.776  0.9543  0.1891  0.8673
  541SOL    HW2 3298   6.668   1.488   5.629 -0.6497  0.2377  0.8269
  542SOL     OW 3299   7.954   0.774   3.292  0.2586 -0.6097 -0.1440
  542SOL    HW1 3300   8.002   0.710   3.239  2.4155  0.3933  0.4482
  542SOL    HW2 3301   7.996   0.858   3.271 -1.4817  0.3954  0.2264
  543SOL     OW 3302   4.108   3.138   4.200 -0.3795 -0.0772 -0.2659
  543SOL    HW1 3303   4.146   3.132   4.287 -1.5570 -1.6981  0.1808
  543SOL    HW2 3304   4.130   3.055   4.158 -1.5142 -0.1247 -0.7956
  544SOL     OW 3305   0.415   5.396   4.956 -0.0469 -0.6350  0.0077
  544SOL    HW1 3306   0.336   5.431   4.915 -0.8116 -1.8969  0.3542
  544SOL    HW2 3307   0.383   5.333   5.020  1.2509 -1.1596  0.1662
  545SOL     OW 3308   0.013   6.590   0.002  0.1900 -0.0837 -0.1030
  545SOL    HW1 3309   0.014   6.643   0.082  1.6945 -0.6372  0.2926
  545SOL    HW2 3310  -0.064   6.620  -0.046  0.0653  1.2868  0.8797
  546SOL     OW 3311   6.616   4.795   1.835 -0.4412 -0.0977 -0.4950
  546SOL    HW1 3312   6.562   4.761   1.764 -1.1064 -0.6236  0.2474
  546SOL    HW2 3313   6.691   4.736   1.838 -1.6706 -1.6835  0.8975
  547SOL     OW 3314   6.283   0.739   4.024 -0.4318 -0.2256 -0.0488
  547SOL    HW1 3315   6.345   0.763   3.955  0.6516 -1.1441  0.5955
  547SOL    HW2 3316   6.333   0.743   4.105 -1.1997 -1.0317  0.4832
  548SOL     OW 3317   1.337   0.633   8.621  0.5679 -0.5357  0.8644
  548SOL    HW1 3318   1.406   0.611   8.558 -0.7420  2.3926 -1.8144
  548SOL    HW2 3319   1.257   0.596   8.584  0.0245 -0.3086  1.7702
  549SOL     OW 3320   4.961   9.390   5.738 -0.8313  0.3164  0.4756
  549SOL    HW1 3321   4.994   9.442   5.665 -2.2233  1.5202  0.6676
  549SOL    HW2 3322   5.040   9.358   5.782  0.0309  0.7002 -0.7596
  550SOL     OW 3323   1.100   6.628   8.248 -0.5124 -0.0814 -0.3109
  550SOL    HW1 3324   1.052   6.588   8.321  1.5785  1.8992  2.3859
  550SOL    HW2 3325   1.049   6.607   8.170 -4.8073  0.4604  2.0773
  551SOL     OW 3326   0.836   8.800   0.550  0.2604 -0.2434  0.6137
  551SOL    HW1 3327   0.783   8.839   0.618 -0.5023 -1.1966  0.5827
  551SOL    HW2 3328   0.921   8.785   0.591 -0.5729 -2.0116  1.7889
  552SOL     OW 3329   5.538   7.001   3.549  0.0657  0.1607 -0.1463
  552SOL    HW1 3330   5.630   7.000   3.576  0.2501  2.0341 -0.5751
  552SOL    HW2 3331   5.540   7.029   3.457 -0.8841 -0.8192 -0.4899
  553SOL     OW 3332   6.938   3.136   2.511  0.3330  0.0523  0.2363
  553SOL    HW1 3333   7.019   3.085   2.517  1.1582  1.3853  0.9502
  553SOL    HW2 3334   6.963   3.214   2.461 -1.1497 -0.6387 -1.6971
  554SOL     OW 3335   7.636   3.362   1.715 -0.3996 -0.0865  0.1407
  554SOL    HW1 3336   7.644   3.279   1.669  0.2953  1.0044 -1.8241
  554SOL    HW2 3337   7.544   3.367   1.739 -0.5982 -1.0949 -0.3564
  555SOL     OW 3338   6.617   0.037   5.257  0.1220  0.4129  0.0173
  555SOL    HW1 3339   6.605  -0.057   5.265 -1.2570  0.5353 -0.4369
  555SOL    HW2 3340   6.535   0.070   5.221 -0.2476  2.0850  2.1483
  556SOL     OW 3341   7.110   8.504   4.894  0.1439  0.1117 -0.1989
  556SOL    HW1 3342   7.117   8.509   4.989 -1.1208 -1.1593 -0.0006
  556SOL    HW2 3343   7.174   8.566   4.861  0.5528  0.6134  1.4876
  557SOL     OW 3344   8.116   0.376   2.978  0.3464 -0.0162  0.3509
  557SOL    HW1 3345   8.048   0.416   3.032  0.1829  2.0605 -1.2424
  557SOL    HW2 3346   8.193   0.372   3.034 -0.5234 -0.4734  1.5470
  558SOL     OW 3347   5.294   7.498   5.926  0.4491  0.4020  0.2644
  558SOL    HW1 3348   5.234   7.506   6.001  0.2882  3.8093 -0.0856
  558SOL    HW2 3349   5.239   7.516   5.850  1.4811  1.4258 -0.2536
  559SOL     OW 3350   3.602   6.026   9.612 -0.1624  0.3478 -0.2349
  559SOL    HW1 3351   3.613   6.114   9.647 -1.0789  0.0062  1.0070
  559SOL    HW2 3352   3.571   5.975   9.687 -0.5240 -0.8273 -1.1618
  560SOL     OW 3353   3.327   9.373   9.553  0.2123 -0.0169 -0.1361
  560SOL    HW1 3354   3.405   9.329   9.587  1.4541  1.0145 -1.4972
  560SOL    HW2 3355   3.359   9.457   9.522 -1.1635 -0.1526 -2.1018
  561SOL     OW 3356   6.715   1.089   2.917  0.3754 -0.0461  0.2397
  561SOL    HW1 3357   6.654   1.056   2.851  1.3754 -1.1686 -0.1584
  561SOL    HW2 3358   6.666   1.156   2.964 -0.5839  0.3003 -1.1982
  562SOL     OW 3359   0.181   6.611   6.585  0.0601 -0.0984  0.4300
  562SOL    HW1 3360   0.243   6.548   6.622  0.0412  0.3329  1.1913
  562SOL    HW2 3361   0.097   6.565   6.587  0.1823 -0.3350  0.2566
  563SOL     OW 3362   9.444   7.431   1.625 -0.0791 -0.0851 -0.0763
  563SOL    HW1 3363   9.392   7.408   1.703 -1.1278 -1.1454 -1.0319
  563SOL    HW2 3364   9.390   7.400   1.552  1.1297  0.4017 -1.1950
  564SOL     OW 3365   6.917   0.911   7.141  0.0424 -0.3269  0.1158
  564SOL    HW1 3366   6.992   0.869   7.181  1.2596  1.2926 -0.3670
  564SOL    HW2 3367   6.906   0.993   7.189 -0.7591 -0.0492 -0.5085
  565SOL     OW 3368   3.745   0.061   3.428 -0.1636 -0.1449  0.7709
  565SOL    HW1 3369   3.777   0.150   3.414 -2.2750  0.4889 -0.3766
  565SOL    HW2 3370   3.749   0.020   3.342 -0.9239 -0.5587  0.9280
  566SOL     OW 3371   0.037   5.792   2.039  0.5206  0.3948  0.2519
  566SOL    HW1 3372   0.039   5.722   1.974  0.1483 -0.0050  0.6683
  566SOL    HW2 3373   0.129   5.807   2.061  0.5748 -0.2391  0.4581
  567SOL     OW 3374   0.011   9.553   4.409  0.0132 -0.2318  0.1672
  567SOL    HW1 3375  -0.033   9.638   4.404  0.0482 -0.2546 -0.5860
  567SOL    HW2 3376   0.098   9.573   4.441 -0.2129 -0.0690  0.6922
  568SOL     OW 3377   6.489   3.182   1.605 -0.1157  0.1132  0.4824
  568SOL    HW1 3378   6.406   3.145   1.636 -0.5560  0.7139  0.0411
  568SOL    HW2 3379   6.466   3.269   1.574  0.5549  0.0207 -0.3034
  569SOL     OW 3380   8.005   3.181   9.204 -0.4002  0.0068  0.3411
  569SOL    HW1 3381   8.059   3.107   9.231  0.1011  0.3612  0.3379
  569SOL    HW2 3382   7.919   3.163   9.240 -0.6555 -1.2474 -0.8342
  570SOL     OW 3383   7.463   8.233   0.370  0.3913 -0.0885 -0.2895
  570SOL    HW1 3384   7.434   8.192   0.451 -2.2425  0.8748 -0.6345
  570SOL    HW2 3385   7.461   8.162   0.306  1.7905 -0.6961  0.3096
  571SOL     OW 3386   0.031   1.836   4.662 -0.6872 -0.3992  0.1768
  571SOL    HW1 3387  -0.016   1.915   4.638 -0.8411 -0.5028  0.1383
  571SOL    HW2 3388   0.004   1.771   4.597  0.6123 -0.0680 -0.7430
  572SOL     OW 3389   1.619   7.793   0.914  0.2147  0.0408  0.1544
  572SOL    HW1 3390   1.682   7.793   0.842 -1.2691 -0.2590 -1.2015
  572SOL    HW2 3391   1.612   7.885   0.940  0.3399  0.2237 -0.4553
  573SOL     OW 3392   8.501   5.432   7.008 -0.1335 -0.0909 -0.2234
  573SOL    HW1 3393   8.525   5.404   6.920  0.7526 -0.1795  0.0355
  573SOL    HW2 3394   8.409   5.460   7.001  0.1898  0.7504 -1.3672
  574SOL     OW 3395   1.821   0.890   1.833 -0.6274  0.4245 -0.7405
  574SOL    HW1 3396   1.777   0.961   1.878 -0.9640  0.9711 -1.8825
  574SOL    HW2 3397   1.909   0.924   1.815 -0.7954  0.5785 -1.3049
  575SOL     OW 3398   2.831   8.697   5.276  0.2891  0.0741  0.1019
  575SOL    HW1 3399   2.910   8.648   5.252  0.8287  0.6820  0.5802
  575SOL    HW2 3400   2.865   8.776   5.319 -0.5600 -1.5720  4.2303
  576SOL     OW 3401   3.223   3.093   2.046 -0.2961  0.1035 -0.3511
  576SOL    HW1 3402   3.168   3.152   1.995 -0.8534 -0.6130 -0.6054
  576SOL    HW2 3403   3.303   3.083   1.994 -0.1284  0.7511 -0.2270
  577SOL     OW 3404   8.339   0.932   0.907 -0.6257  0.5484  0.7099
  577SOL    HW1 3405   8.421   0.886   0.919 -0.2629  0.9034 -0.2853
  577SOL    HW2 3406   8.276   0.864   0.882 -0.1875  0.5057 -0.3520
  578SOL     OW 3407   4.714   0.776   6.971  0.5908 -0.2623  0.4800
  578SOL    HW1 3408   4.755   0.697   7.005 -1.2914 -0.9587  1.2379
  578SOL    HW2 3409   4.635   0.787   7.023 -1.1627  0.0152 -2.0621
  579SOL     OW 3410   1.781   4.145   4.380 -0.1199 -0.2754 -0.3831
  579SOL    HW1 3411   1.701   4.160   4.329  0.2122 -2.1535 -1.5361
  579SOL    HW2 3412   1.826   4.074   4.334  1.5914 -0.1306  0.9765
  580SOL     OW 3413   7.265   1.610   9.132  0.0438 -0.1579 -0.1386
  580SOL    HW1 3414   7.255   1.672   9.204  0.7553 -1.2919  0.9587
  580SOL    HW2 3415   7.182   1.563   9.128 -0.0588  0.0257 -0.1731
  581SOL     OW 3416   8.101   6.642   4.074 -0.1425 -0.4764 -0.1624
  581SOL    HW1 3417   8.022   6.696   4.071  0.5699  0.6446  0.3829
  581SOL    HW2 3418   8.142   6.666   4.157  0.6425 -1.2363 -0.3215
  582SOL     OW 3419   8.797   4.766   8.224 -0.3813 -0.5394 -0.4808
  582SOL    HW1 3420   8.793   4.676   8.191  0.0421 -0.5149 -0.5991
  582SOL    HW2 3421   8.862   4.809   8.168  0.5634 -0.5742  0.5671
  583SOL     OW 3422   6.020   3.833   0.012 -0.0545 -0.6378 -0.5231
  583SOL    HW1 3423   5.970   3.837   0.094 -0.3310 -1.7700 -0.6328
  583SOL    HW2 3424   6.043   3.925  -0.006  1.4025 -0.5022  1.6712
  584SOL     OW 3425   5.954   8.635   2.545  0.1300 -0.6162  0.6659
  584SOL    HW1 3426   6.009   8.695   2.493 -0.7389 -0.2100  0.1940
  584SOL    HW2 3427   5.914   8.578   2.480 -1.3065  0.1703  0.8200
  585SOL     OW 3428   6.257   3.693   6.454 -0.5842  0.0914 -0.4932
  585SOL    HW1 3429   6.334   3.733   6.495 -1.9136  2.7134 -0.3413
  585SOL    HW2 3430   6.217   3.641   6.523  1.2081 -1.6483 -0.6877
  586SOL     OW 3431   6.958   4.045   6.506  0.2489  0.2549  0.0288
  586SOL    HW1 3432   6.998   4.047   6.419  0.6457  0.5742  0.2176
  586SOL    HW2 3433   6.885   4.106   6.500 -0.9473 -1.1897 -0.6650
  587SOL     OW 3434   2.145   7.138   5.062  0.6592 -0.5088 -0.6837
  587SOL    HW1 3435   2.133   7.217   5.114 -0.4169 -0.6842 -0.6570
  587SOL    HW2 3436   2.238   7.116   5.073  0.1781 -1.4445  2.4620
  588SOL     OW 3437   2.146   0.911   0.905  0.0051 -0.1619  0.1244
  588SOL    HW1 3438   2.168   0.900   0.997  1.1279 -1.3027 -0.2313
  588SOL    HW2 3439   2.070   0.855   0.891 -0.9027  0.9253  0.5858
  589SOL     OW 3440   9.122   8.937   0.059 -0.0493  0.4338  0.0439
  589SOL    HW1 3441   9.198   8.980   0.021  2.0215 -1.9841  1.1398
  589SOL    HW2 3442   9.081   8.892  -0.015  0.1637  0.9359 -0.3872
  590SOL     OW 3443   6.338   5.354   5.087 -0.2400  0.3343 -0.0814
  590SOL    HW1 3444   6.288   5.395   5.157 -1.9986 -0.0279 -1.0710
  590SOL    HW2 3445   6.326   5.260   5.100  0.5952  0.2196 -0.0593
  591SOL     OW 3446   3.651   8.925   0.478 -0.5119 -0.0294  0.1162
  591SOL    HW1 3447   3.581   8.937   0.415  0.5146 -0.8811 -1.2432
  591SOL    HW2 3448   3.727   8.901   0.425  0.6332  0.1691  1.6008
  592SOL     OW 3449   8.616   7.528   7.168 -0.1269 -0.4851 -0.1341
  592SOL    HW1 3450   8.616   7.462   7.099  1.6362 -2.3505  1.5264
  592SOL    HW2 3451   8.545   7.501   7.227 -1.3695  0.8788 -0.9139
  593SOL     OW 3452   2.419   1.915   4.041  0.1498  0.1574 -0.1928
  593SOL    HW1 3453   2.480   1.913   4.115  0.1876  0.8551 -0.1915
  593SOL    HW2 3454   2.338   1.950   4.079 -0.1995 -0.5799 -0.2369
  594SOL     OW 3455   3.491   1.699   6.449  0.0569  0.3870 -0.4038
  594SOL    HW1 3456   3.450   1.638   6.510 -1.6277  0.6595 -1.2118
  594SOL    HW2 3457   3.475   1.661   6.362  0.0097  1.3804 -0.8444
  595SOL     OW 3458   9.077   5.354   6.139  0.6418 -0.1851 -0.1997
  595SOL    HW1 3459   9.034   5.315   6.063 -0.2148  0.3658 -0.0123
  595SOL    HW2 3460   9.070   5.288   6.208 -1.8249  0.6652  0.4584
  596SOL     OW 3461   1.567   6.868   3.419 -0.5068 -0.0891 -0.3983
  596SOL    HW1 3462   1.599   6.945   3.467 -2.6521  0.5017  0.2062
  596SOL    HW2 3463   1.620   6.866   3.339  0.3090  1.3996  0.0551
  597SOL     OW 3464   2.343   6.301   6.664  0.3733 -0.0675  0.5085
  597SOL    HW1 3465   2.417   6.361   6.658  0.6332  0.0049  3.2437
  597SOL    HW2 3466   2.362   6.245   6.739 -1.0855 -1.8757 -0.3878
  598SOL     OW 3467   1.958   5.386   2.814  0.8229  0.1429  0.2489
  598SOL    HW1 3468   2.025   5.443   2.778 -0.3169  0.9228 -0.7340
  598SOL    HW2 3469   1.880   5.442   2.818  0.3147 -0.6248  1.6981
  599SOL     OW 3470   5.389   1.909   8.592  0.6581 -0.3008  0.3836
  599SOL    HW1 3471   5.333   1.976   8.631 -1.0355 -1.7590  0.6310
  599SOL    HW2 3472   5.464   1.957   8.556  0.4900  1.4719  2.2408
  600SOL     OW 3473   6.118   7.545   1.857  0.1390 -0.3256  0.4670
  600SOL    HW1 3474   6.044   7.492   1.887 -2.1039  0.6702 -2.6955
  600SOL    HW2 3475   6.088   7.636   1.867  1.9544  0.2290  1.3153
  601SOL     OW 3476   8.779   5.251   7.869 -0.3860  0.4346 -0.2274
  601SOL    HW1 3477   8.865   5.274   7.905  0.0094  0.9668 -1.4562
  601SOL    HW2 3478   8.798   5.180   7.807 -1.1094 -0.7594  0.8538
  602SOL     OW 3479   5.395   3.727   0.983  0.4314  0.4792 -0.5207
  602SOL    HW1 3480   5.421   3.783   0.911 -1.0533 -1.4038 -2.6709
  602SOL    HW2 3481   5.473   3.675   1.003  1.8245  3.0644  1.4974
  603SOL     OW 3482   8.190   0.462   1.291  0.4500 -0.4637 -0.3002
  603SOL    HW1 3483   8.178   0.518   1.367  0.8736 -0.4561 -0.2376
  603SOL    HW2 3484   8.216   0.377   1.327  2.8480  0.1274 -0.5041
  604SOL     OW 3485   4.699   7.391   1.248 -0.4704 -0.1564 -0.7275
  604SOL    HW1 3486   4.654   7.314   1.283 -0.4965  0.5832  0.9345
  604SOL    HW2 3487   4.628   7.448   1.219 -0.5072 -0.0274 -0.3792
  605SOL     OW 3488   6.196   2.426   8.930  0.2699  0.3417 -0.0846
  605SOL    HW1 3489   6.172   2.504   8.881 -1.6030 -0.3961 -0.4380
  605SOL    HW2 3490   6.122   2.411   8.989 -0.6208 -2.4995 -1.7345
  606SOL     OW 3491   4.948   4.445   4.065 -0.0847  0.0541  0.2347
  606SOL    HW1 3492   4.866   4.473   4.106 -0.8462 -2.1022  0.3218
  606SOL    HW2 3493   4.947   4.349   4.073  1.9365 -0.0959 -0.7434
  607SOL     OW 3494   8.186   7.574   2.339 -0.3330 -0.8783  0.4018
  607SOL    HW1 3495   8.117   7.619   2.388 -1.6087 -0.1952 -1.8867
  607SOL    HW2 3496   8.148   7.557   2.254  1.6264 -2.4737 -0.2359
  608SOL     OW 3497   6.168   1.657   8.650  0.5857  0.2945  0.5882
  608SOL    HW1 3498   6.158   1.724   8.583 -0.5891 -0.3039  0.1471
  608SOL    HW2 3499   6.233   1.596   8.614 -1.4678 -1.1077 -0.9450
  609SOL     OW 3500   4.716   6.973   6.582 -0.0063 -0.6572  0.9564
  609SOL    HW1 3501   4.669   6.891   6.597  0.8484 -1.3148  0.1005
  609SOL    HW2 3502   4.732   6.976   6.488 -0.9858  1.0362  0.7976
  610SOL     OW 3503   4.773   6.793   5.278 -0.0556  0.0291  0.3526
  610SOL    HW1 3504   4.701   6.784   5.341 -0.2813  1.2376  0.2898
  610SOL    HW2 3505   4.822   6.869   5.309  0.7016 -0.2741 -0.0935
  611SOL     OW 3506   5.925   1.777   2.507 -0.1913  0.5454  0.0361
  611SOL    HW1 3507   5.884   1.863   2.522 -1.2067  0.0154  0.4102
  611SOL    HW2 3508   6.005   1.780   2.560 -0.9588  0.7339  1.2397
  612SOL     OW 3509   0.927   9.054   1.634 -0.1291 -0.3858  0.5162
  612SOL    HW1 3510   0.935   9.032   1.541  0.7022  0.0221  0.4869
  612SOL    HW2 3511   1.012   9.031   1.671  0.5653  2.1382  0.6213
  613SOL     OW 3512   0.467   3.193   8.405 -0.1739 -0.1510  0.1545
  613SOL    HW1 3513   0.527   3.180   8.479 -0.2580  0.0532  0.2594
  613SOL    HW2 3514   0.508   3.145   8.333 -0.6235 -1.2315  0.6026
  614SOL     OW 3515   8.308   7.795   3.708  0.8420 -0.1535 -0.2814
  614SOL    HW1 3516   8.243   7.865   3.716  1.1328 -0.0113  1.2055
  614SOL    HW2 3517   8.283   7.748   3.629 -2.3343 -1.3407  1.2297
  615SOL     OW 3518   5.380   4.297   7.978  0.2675 -0.4373 -0.0744
  615SOL    HW1 3519   5.429   4.261   8.052  1.8015  0.6004 -0.5360
  615SOL    HW2 3520   5.295   4.319   8.015  0.2759 -1.8365  0.8796
  616SOL     OW 3521   3.200   5.483   9.428  0.5077 -0.0478  0.6277
  616SOL    HW1 3522   3.144   5.492   9.505  1.2072 -0.2006  1.1701
  616SOL    HW2 3523   3.157   5.415   9.375 -0.9961  1.3813 -0.0670
  617SOL     OW 3524   6.871   8.948   8.688  0.0695  0.2577 -0.4263
  617SOL    HW1 3525   6.912   8.863   8.675  0.7840  0.5981 -0.4649
  617SOL    HW2 3526   6.828   8.967   8.605  0.0384  0.0054 -0.4677
  618SOL     OW 3527   8.418   6.715   1.664  0.2017 -0.0975  0.1142
  618SOL    HW1 3528   8.465   6.795   1.642 -0.3816  0.2539  0.1124
  618SOL    HW2 3529   8.421   6.711   1.759  1.2457 -0.7076  0.0702
  619SOL     OW 3530   2.161   3.988   4.542  0.4371 -0.1825 -0.1143
  619SOL    HW1 3531   2.254   3.994   4.524  0.2310  1.3871 -0.7629
  619SOL    HW2 3532   2.118   4.032   4.469 -0.7204  0.7897  1.0931
  620SOL     OW 3533   6.680   6.284   9.363 -0.3663 -0.7726 -0.3422
  620SOL    HW1 3534   6.628   6.268   9.442  1.1749 -0.5415  0.7627
  620SOL    HW2 3535   6.616   6.311   9.297 -1.6384 -0.4964  0.9605
  621SOL     OW 3536   6.265   3.865   6.887 -0.2499  0.1429  0.3441
  621SOL    HW1 3537   6.209   3.886   6.812 -1.7056 -0.2942  1.2623
  621SOL    HW2 3538   6.243   3.932   6.952  1.4914  0.9279  0.1693
  622SOL     OW 3539   4.278   9.513   0.906 -0.1221 -0.5291 -0.6555
  622SOL    HW1 3540   4.212   9.582   0.903  1.1919  0.9399  1.4163
  622SOL    HW2 3541   4.233   9.438   0.945 -1.0951 -0.2775 -1.2685
  623SOL     OW 3542   8.655   6.419   0.269 -0.0914  0.0563 -0.0214
  623SOL    HW1 3543   8.653   6.340   0.323 -1.0616  0.6383  0.8282
  623SOL    HW2 3544   8.707   6.481   0.320 -1.5508  0.8242  0.6012
  624SOL     OW 3545   4.209   3.019   2.965  0.0098 -0.3882  0.3036
  624SOL    HW1 3546   4.269   3.045   3.035 -0.0790 -2.6458  1.3127
  624SOL    HW2 3547   4.240   3.067   2.888  2.2913 -0.4416  1.1003
  625SOL     OW 3548   6.889   4.023   0.841 -0.3408 -0.2453  0.2720
  625SOL    HW1 3549   6.804   4.051   0.877 -0.0890  1.9380 -0.6296
  625SOL    HW2 3550   6.952   4.084   0.880  0.6912 -1.2791  0.2511
  626SOL     OW 3551   8.093   0.758   5.657 -0.0576  0.0633 -0.3321
  626SOL    HW1 3552   8.069   0.841   5.698  1.2831  0.9167 -1.1894
  626SOL    HW2 3553   8.098   0.778   5.563  1.8554 -0.5515 -0.4113
  627SOL     OW 3554   2.979   4.550   9.133 -0.4657  0.2850 -0.6958
  627SOL    HW1 3555   2.984   4.479   9.197  0.5688  0.0688 -0.9953
  627SOL    HW2 3556   2.979   4.630   9.186 -0.9210  0.0814 -0.3837
  628SOL     OW 3557   4.050   2.653   8.716 -0.3492 -0.3520 -0.4484
  628SOL    HW1 3558   4.087   2.603   8.644 -1.3096 -1.1371 -0.4203
  628SOL    HW2 3559   3.960   2.621   8.724  0.0592 -1.1425  1.8441
  629SOL     OW 3560   9.189   2.110   5.315 -0.4244  0.0609 -0.5975
  629SOL    HW1 3561   9.241   2.169   5.261 -0.9160  0.1737 -0.9533
  629SOL    HW2 3562   9.128   2.168   5.361  1.9015  0.3624  2.4082
  630SOL     OW 3563   7.367   2.445   8.579 -0.3708  0.2044  0.2546
  630SOL    HW1 3564   7.391   2.488   8.497 -1.6886 -1.4687 -1.0805
  630SOL    HW2 3565   7.322   2.513   8.630 -3.3974  0.3121 -2.2466
  631SOL     OW 3566   4.023   5.071   4.129  0.4462  0.2375  0.2090
  631SOL    HW1 3567   4.013   5.125   4.207 -1.2992  0.9775 -0.4824
  631SOL    HW2 3568   3.977   5.118   4.060  1.0355 -0.9137 -1.0411
  632SOL     OW 3569   5.050   2.872   8.662  0.4362  0.4062 -0.1669
  632SOL    HW1 3570   5.029   2.964   8.677  0.8014  0.5552 -0.5434
  632SOL    HW2 3571   4.967   2.832   8.638  0.2505  0.6072  0.1333
  633SOL     OW 3572   8.734   0.982   9.532  0.1654  0.4391 -0.6289
  633SOL    HW1 3573   8.694   0.898   9.555 -0.3964  1.2028  1.3912
  633SOL    HW2 3574   8.667   1.027   9.481 -0.8483  0.8971  1.0176
  634SOL     OW 3575   4.536   4.938   4.337 -0.1317 -0.3829  0.2388
  634SOL    HW1 3576   4.448   4.962   4.365 -1.1055  0.6089 -3.1778
  634SOL    HW2 3577   4.526   4.853   4.295  1.2916 -1.9254  2.7744
  635SOL     OW 3578   2.118   9.043   8.774 -0.2130  0.1900 -1.1678
  635SOL    HW1 3579   2.182   9.050   8.844 -0.1232 -1.2423 -1.0905
  635SOL    HW2 3580   2.069   9.126   8.778 -0.1388  0.1808  0.5089
  636SOL     OW 3581   4.298   0.782   8.300  0.0761  0.0581 -0.1801
  636SOL    HW1 3582   4.240   0.838   8.352 -1.7377 -0.4497 -1.5399
  636SOL    HW2 3583   4.247   0.702   8.286  1.6922 -1.0005 -0.2676
  637SOL     OW 3584   8.630   4.750   8.461 -0.0926  0.0357  0.0718
  637SOL    HW1 3585   8.721   4.745   8.433 -0.4794  2.4467 -1.9407
  637SOL    HW2 3586   8.602   4.658   8.469  1.5744 -0.8174 -2.6196
  638SOL     OW 3587   6.720   0.682   0.230 -0.3494 -0.1113 -0.2234
  638SOL    HW1 3588   6.701   0.620   0.159  0.6183  1.0413 -1.5449
  638SOL    HW2 3589   6.815   0.682   0.237 -0.4098  0.2267  0.6954
  639SOL     OW 3590   7.830   1.209   8.421 -0.1137  0.0169 -0.5828
  639SOL    HW1 3591   7.745   1.174   8.449  0.2608 -1.1406 -0.8625
  639SOL    HW2 3592   7.882   1.132   8.401  2.1403  0.4821  2.7496
  640SOL     OW 3593   4.835   5.342   3.064 -0.2272  0.1039  0.0657
  640SOL    HW1 3594   4.904   5.311   3.006 -2.3865 -0.4067 -2.4649
  640SOL    HW2 3595   4.805   5.264   3.111 -0.5201 -0.1254 -0.4937
  641SOL     OW 3596   3.623   8.603   4.253 -0.3154 -0.1668  0.5655
  641SOL    HW1 3597   3.625   8.514   4.216  1.0296  0.1552 -0.2012
  641SOL    HW2 3598   3.531   8.618   4.275 -1.0760 -0.6285 -2.0352
  642SOL     OW 3599   3.412   4.250   8.449 -0.3431  0.2462  0.1011
  642SOL    HW1 3600   3.355   4.187   8.404 -0.0068  0.0569 -0.0645
  642SOL    HW2 3601   3.485   4.263   8.389  0.8982 -1.1842  1.2092
  643SOL     OW 3602   3.511   9.018   7.027 -0.1568  0.9406 -0.2084
  643SOL    HW1 3603   3.425   8.997   7.064 -0.0281  2.4414  1.0722
  643SOL    HW2 3604   3.518   9.113   7.036  1.8635  0.7878  0.2532
  644SOL     OW 3605   2.264   7.803   0.588  0.0789  0.1077 -0.2634
  644SOL    HW1 3606   2.315   7.757   0.521 -0.2025  2.0292 -1.9215
  644SOL    HW2 3607   2.304   7.778   0.671  0.7215 -2.0437 -1.1635
  645SOL     OW 3608   9.603   7.413   4.965  0.0400  0.0987  0.6920
  645SOL    HW1 3609   9.684   7.418   4.915 -0.7162  0.3483 -0.5592
  645SOL    HW2 3610   9.555   7.493   4.941 -0.7620 -0.2558  1.0682
  646SOL     OW 3611   7.940   5.201   0.778  0.0969  0.5098  1.1178
  646SOL    HW1 3612   8.001   5.187   0.706  0.1262 -2.4084  1.5683
  646SOL    HW2 3613   7.856   5.220   0.736  0.5220  0.7712  0.3762
  647SOL     OW 3614   1.780   8.631   8.549 -0.4453 -0.4555  0.5890
  647SOL    HW1 3615   1.812   8.614   8.638  0.1974  1.0116  0.6804
  647SOL    HW2 3616   1.693   8.591   8.546 -0.5350 -0.3984  1.9258
  648SOL     OW 3617   5.078   6.129   5.146 -0.0681 -0.2408 -0.5574
  648SOL    HW1 3618   5.012   6.063   5.126 -0.1812 -0.0734 -0.7454
  648SOL    HW2 3619   5.126   6.140   5.064  1.0621 -1.3245 -0.0634
  649SOL     OW 3620   4.033   5.077   2.735 -0.3954  0.0066 -0.6598
  649SOL    HW1 3621   4.030   5.120   2.650  2.0204 -1.6334 -1.7012
  649SOL    HW2 3622   4.089   5.133   2.789  0.6638 -0.5094 -1.1988
  650SOL     OW 3623   6.654   2.976   7.265  0.3587 -0.3067  0.2715
  650SOL    HW1 3624   6.661   2.974   7.361 -1.3266 -0.6194  0.4161
  650SOL    HW2 3625   6.567   2.943   7.247  0.8657 -0.8156 -1.4229
  651SOL     OW 3626   4.368   2.366   3.691  0.0615  0.2541  0.5153
  651SOL    HW1 3627   4.425   2.291   3.679 -1.6658 -1.1774  0.7222
  651SOL    HW2 3628   4.372   2.414   3.608  0.1657 -0.8271 -0.1191
  652SOL     OW 3629   1.377   0.765   6.086 -0.0677  0.0154  0.1452
  652SOL    HW1 3630   1.414   0.682   6.117 -0.3390  0.9152  3.1970
  652SOL    HW2 3631   1.283   0.757   6.102 -0.4272  0.1640 -1.6035
  653SOL     OW 3632   2.318   0.991   2.598 -0.2649  0.4090  0.0033
  653SOL    HW1 3633   2.388   1.011   2.536  1.3415 -1.5873  1.0508
  653SOL    HW2 3634   2.241   0.975   2.543  0.4621  1.2171 -1.2830
  654SOL     OW 3635   7.584   4.932   7.868  1.0662  0.4969  0.3085
  654SOL    HW1 3636   7.567   4.913   7.960 -0.8827 -0.8380 -0.2722
  654SOL    HW2 3637   7.636   4.857   7.837  1.1001  0.5865  0.1468
  655SOL     OW 3638   3.271   8.786   1.319 -0.3369 -0.2031  0.5880
  655SOL    HW1 3639   3.253   8.753   1.231  1.8645 -0.5703  0.2285
  655SOL    HW2 3640   3.283   8.707   1.372 -1.3600  0.0201  1.1869
  656SOL     OW 3641   5.789   2.520   0.507  0.1253 -0.0432 -0.2480
  656SOL    HW1 3642   5.746   2.491   0.426 -1.4570  0.7223  0.2758
  656SOL    HW2 3643   5.757   2.461   0.574 -0.7476  0.9952  0.2822
  657SOL     OW 3644   1.469   8.567   2.890  0.2124  0.3470 -0.0484
  657SOL    HW1 3645   1.494   8.558   2.982  0.1373 -0.8687 -0.1335
  657SOL    HW2 3646   1.476   8.479   2.854  0.0389  0.7693 -1.1660
  658SOL     OW 3647   3.829   3.644   8.226 -0.1958 -0.4517 -0.4192
  658SOL    HW1 3648   3.748   3.695   8.221  0.1422 -0.0098 -1.8732
  658SOL    HW2 3649   3.802   3.555   8.206 -0.5400 -0.5873  0.5769
  659SOL     OW 3650   0.680   9.018   5.645  0.7851 -0.7735 -0.5476
  659SOL    HW1 3651   0.676   9.093   5.704  0.4510 -1.0172 -0.2537
  659SOL    HW2 3652   0.688   9.056   5.557  1.6000 -0.4201 -0.3196
  660SOL     OW 3653   2.604   7.740   6.019 -0.3454 -0.0840 -0.0991
  660SOL    HW1 3654   2.537   7.700   6.075 -0.8338 -0.3212 -0.8250
  660SOL    HW2 3655   2.557   7.763   5.939 -0.0390  1.8344  0.2285
  661SOL     OW 3656   8.470   1.613   3.893 -0.1895  0.5406 -0.6610
  661SOL    HW1 3657   8.498   1.546   3.831  1.8995 -0.2679  1.0759
  661SOL    HW2 3658   8.428   1.565   3.964  1.2248  1.0345  0.5470
  662SOL     OW 3659   6.161   2.750   5.113  0.0782 -0.5178  0.2768
  662SOL    HW1 3660   6.068   2.729   5.120 -0.0598 -1.2730 -2.5837
  662SOL    HW2 3661   6.205   2.679   5.160 -0.7519 -0.7958  0.6551
  663SOL     OW 3662   4.816   7.123   3.572  0.0343 -0.2581  0.6012
  663SOL    HW1 3663   4.842   7.077   3.493 -1.0109 -1.7782  1.0911
  663SOL    HW2 3664   4.852   7.211   3.562 -0.1450 -0.3821 -1.5807
  664SOL     OW 3665   3.290   7.440   0.638 -0.1244  0.1354 -0.1700
  664SOL    HW1 3666   3.224   7.377   0.610 -0.1821  0.9670 -2.0179
  664SOL    HW2 3667   3.252   7.525   0.618  0.0652  0.8098  2.0324
  665SOL     OW 3668   9.356   6.623   1.840  0.3110 -0.2806 -0.1774
  665SOL    HW1 3669   9.297   6.552   1.865  0.3548 -0.4155 -0.4533
  665SOL    HW2 3670   9.444   6.584   1.845  0.2425 -0.7349 -1.8980
  666SOL     OW 3671   5.653   3.842   9.025  0.0230  0.5607  0.2420
  666SOL    HW1 3672   5.568   3.855   9.069  0.4368  0.9536  0.9400
  666SOL    HW2 3673   5.708   3.912   9.059  0.2584  1.1078 -1.1900
  667SOL     OW 3674   3.334   3.797   1.657  0.3478  0.3007 -0.0847
  667SOL    HW1 3675   3.330   3.886   1.692  2.0495  0.3987 -0.0669
  667SOL    HW2 3676   3.321   3.808   1.562 -0.4487  0.4459  0.0355
  668SOL     OW 3677   5.282   0.876   6.156  0.3500  0.5001 -0.0656
  668SOL    HW1 3678   5.234   0.801   6.191 -0.9997  1.2985 -0.1442
  668SOL    HW2 3679   5.214   0.938   6.129  1.4167  1.3654 -0.8751
  669SOL     OW 3680   8.918   5.912   2.710  0.3428  0.1003  0.4187
  669SOL    HW1 3681   8.852   5.850   2.680  2.2901 -2.0427  0.3181
  669SOL    HW2 3682   8.945   5.958   2.631 -1.0093  1.0756  0.4743
  670SOL     OW 3683   6.218   9.597   7.199  0.5746  0.9778  0.0451
  670SOL    HW1 3684   6.175   9.633   7.122  1.3885  1.0342 -0.3894
  670SOL    HW2 3685   6.146   9.576   7.259 -0.3296 -1.5947 -1.7464
  671SOL     OW 3686   3.920   0.377   2.857 -0.4414  0.6430 -0.7290
  671SOL    HW1 3687   3.953   0.456   2.816 -1.5444  1.0371 -0.9117
  671SOL    HW2 3688   3.994   0.317   2.859  0.7568  2.0759  0.4907
  672SOL     OW 3689   1.326   7.220   6.759 -0.1263  0.2180 -0.3266
  672SOL    HW1 3690   1.418   7.220   6.784 -0.1634 -0.7244 -0.1631
  672SOL    HW2 3691   1.325   7.258   6.671  0.3201  0.9673 -0.0147
  673SOL     OW 3692   1.130   7.015   5.002 -0.2144  0.0445 -0.3510
  673SOL    HW1 3693   1.133   7.049   5.091 -0.0266  1.0053 -0.7147
  673SOL    HW2 3694   1.037   7.013   4.979 -0.5327 -2.6969  0.7679
  674SOL     OW 3695   4.542   2.299   7.666 -0.8639  0.1756  0.4846
  674SOL    HW1 3696   4.573   2.383   7.700  2.0246 -0.5779 -0.0300
  674SOL    HW2 3697   4.460   2.320   7.622  0.1340  2.8974 -0.2842
  675SOL     OW 3698   5.015   9.225   4.131 -0.1531  0.1282 -0.6820
  675SOL    HW1 3699   4.947   9.281   4.170  0.1259 -1.2438  2.0641
  675SOL    HW2 3700   5.088   9.284   4.115  0.7878  0.5428  3.7291
  676SOL     OW 3701   7.424   7.854   3.142 -0.0205 -0.2818  0.3821
  676SOL    HW1 3702   7.467   7.940   3.138 -0.7224  0.0649  0.0956
  676SOL    HW2 3703   7.356   7.858   3.075  0.1669 -1.1979  0.1205
  677SOL     OW 3704   7.714   0.973   3.202 -0.0784  0.5584 -0.5940
  677SOL    HW1 3705   7.661   0.906   3.160 -1.9081  0.6170  1.4378
  677SOL    HW2 3706   7.744   1.029   3.131 -3.5108  1.0494 -1.8274
  678SOL     OW 3707   4.928   2.957   4.821 -0.3993  0.0085  0.4634
  678SOL    HW1 3708   5.000   3.018   4.804  0.2651 -0.9763 -0.3719
  678SOL    HW2 3709   4.850   3.005   4.794  0.1802  0.2645 -0.8149
  679SOL     OW 3710   1.705   6.155   2.328 -0.4256  0.3016  0.1667
  679SOL    HW1 3711   1.640   6.086   2.336  0.0308 -0.2457 -0.6958
  679SOL    HW2 3712   1.749   6.156   2.413 -0.5789 -0.3260  0.2604
  680SOL     OW 3713   7.539   0.835   2.360  0.2358  1.1769  0.4517
  680SOL    HW1 3714   7.509   0.866   2.274 -0.1790  0.0724  0.1838
  680SOL    HW2 3715   7.492   0.753   2.374  0.8491  0.9726  1.4179
  681SOL     OW 3716   7.481   3.340   0.755 -0.0664  0.4060  0.5929
  681SOL    HW1 3717   7.406   3.399   0.759  0.2857  0.8463  0.7800
  681SOL    HW2 3718   7.453   3.262   0.803 -1.0053 -0.1314 -0.7560
  682SOL     OW 3719   1.115   4.655   1.613  0.5122  0.5143 -0.0357
  682SOL    HW1 3720   1.202   4.619   1.594  1.6836  1.9325  2.1836
  682SOL    HW2 3721   1.116   4.742   1.571 -0.3433  0.0488 -1.0540
  683SOL     OW 3722   6.589   3.397   8.254  0.2219  0.0483  0.4749
  683SOL    HW1 3723   6.565   3.361   8.168  1.7175 -0.4466  0.2423
  683SOL    HW2 3724   6.511   3.445   8.281 -0.2980  0.2053 -1.1485
  684SOL     OW 3725   1.242   1.211   3.776 -0.0394 -0.3542 -0.6580
  684SOL    HW1 3726   1.171   1.210   3.840 -0.0526 -0.3106 -0.6721
  684SOL    HW2 3727   1.198   1.217   3.691  0.0303  1.3703 -0.5879
  685SOL     OW 3728   2.591   0.756   8.045 -0.2527 -0.6355  0.3742
  685SOL    HW1 3729   2.529   0.737   7.975  1.7335 -1.3009 -1.2708
  685SOL    HW2 3730   2.563   0.700   8.117 -1.2392 -1.3008 -0.4965
  686SOL     OW 3731   2.749   3.629   0.165 -0.3243  0.0249  0.4774
  686SOL    HW1 3732   2.821   3.688   0.143 -1.6982  2.6137  2.3611
  686SOL    HW2 3733   2.670   3.682   0.156 -1.6039 -1.2426  2.9634
  687SOL     OW 3734   8.767   2.598   5.901 -0.3336  0.1497 -0.1113
  687SOL    HW1 3735   8.750   2.567   5.812 -0.5894 -2.1343  0.6620
  687SOL    HW2 3736   8.862   2.603   5.907 -0.2448 -1.1606 -0.0941
  688SOL     OW 3737   5.738   3.155   5.230  0.2713 -0.1995  0.9635
  688SOL    HW1 3738   5.774   3.091   5.169 -1.7343 -0.4462 -0.0542
  688SOL    HW2 3739   5.792   3.233   5.217  1.1936 -0.9053  0.4196
  689SOL     OW 3740   6.513   4.729   9.489 -0.0720 -0.0590 -0.4445
  689SOL    HW1 3741   6.456   4.776   9.428  2.0564  0.9477 -1.7902
  689SOL    HW2 3742   6.600   4.767   9.474  1.5271 -3.4563 -0.5885
  690SOL     OW 3743   5.154   4.123   6.329 -0.3807  0.0133  0.2459
  690SOL    HW1 3744   5.126   4.207   6.293 -0.2639 -1.1664 -2.9435
  690SOL    HW2 3745   5.093   4.059   6.292 -1.0768 -1.3031  3.3404
  691SOL     OW 3746   9.231   2.005   2.417  0.6815 -0.4021  0.8734
  691SOL    HW1 3747   9.185   1.966   2.342 -0.4653 -1.2842  1.9893
  691SOL    HW2 3748   9.322   2.010   2.390  0.1079  0.5574 -1.0916
  692SOL     OW 3749   4.257   9.440   4.743 -0.5659  0.7486 -0.2726
  692SOL    HW1 3750   4.321   9.507   4.721  0.4668  0.4709  1.6198
  692SOL    HW2 3751   4.219   9.470   4.826 -0.5489 -0.6516  0.2760
  693SOL     OW 3752   5.675   8.845   8.382  1.0117  0.3595 -0.2556
  693SOL    HW1 3753   5.672   8.775   8.316  1.2419  1.2928 -1.2862
  693SOL    HW2 3754   5.748   8.900   8.355 -0.3949  2.1117 -0.6465
  694SOL     OW 3755   5.545   8.982   0.648 -0.2035 -0.3617 -0.1587
  694SOL    HW1 3756   5.588   8.900   0.672  0.4868  0.2550  0.7738
  694SOL    HW2 3757   5.603   9.020   0.582 -0.0830 -0.2279  0.0237
  695SOL     OW 3758   9.071   9.588   8.494  0.2922 -0.3855 -0.5077
  695SOL    HW1 3759   9.035   9.661   8.544  3.4778 -0.3514  2.1307
  695SOL    HW2 3760   8.997   9.529   8.482 -2.1109  2.6128 -1.6602
  696SOL     OW 3761   6.725   8.704   6.314 -0.1934  0.1296 -0.3423
  696SOL    HW1 3762   6.733   8.609   6.308  2.1719  0.0696  1.7778
  696SOL    HW2 3763   6.811   8.733   6.348 -1.5169  2.7707  1.0900
  697SOL     OW 3764   3.727   0.769   7.754  0.2534  0.3022 -0.1237
  697SOL    HW1 3765   3.795   0.725   7.806 -0.1653 -0.6014 -0.3219
  697SOL    HW2 3766   3.720   0.716   7.674  1.3594  2.0520 -1.4260
  698SOL     OW 3767   8.858   7.713   0.926 -0.1955  0.6293  0.0242
  698SOL    HW1 3768   8.926   7.650   0.950 -0.6437  0.6397  1.3745
  698SOL    HW2 3769   8.905   7.796   0.917 -0.0376  0.6841  1.1836
  699SOL     OW 3770   2.684   0.447   5.762 -0.2727  0.2434  0.6550
  699SOL    HW1 3771   2.706   0.450   5.669 -2.9324  1.6183 -0.0208
  699SOL    HW2 3772   2.735   0.518   5.801 -2.2752  2.5389 -0.6236
  700SOL     OW 3773   8.993   5.670   5.235  0.6453 -0.4099 -0.2372
  700SOL    HW1 3774   9.035   5.628   5.160 -1.8781 -0.0311 -1.9782
  700SOL    HW2 3775   8.900   5.654   5.222 -0.0732  1.9258  1.4296
  701SOL     OW 3776   0.750   3.883   4.502 -0.0503  0.0969 -0.6244
  701SOL    HW1 3777   0.695   3.921   4.571  0.8858  1.4224 -0.5691
  701SOL    HW2 3778   0.791   3.958   4.460  1.7944 -0.8369 -0.6013
  702SOL     OW 3779   7.074   1.887   2.467 -0.2756 -0.4102 -0.2175
  702SOL    HW1 3780   7.055   1.866   2.376 -0.1109 -2.5633  0.1916
  702SOL    HW2 3781   7.149   1.832   2.489 -0.0580  0.3677  1.1150
  703SOL     OW 3782   0.445   4.596   7.653 -0.8350 -0.2065  0.3644
  703SOL    HW1 3783   0.399   4.612   7.735 -2.3286 -0.1965 -0.4485
  703SOL    HW2 3784   0.472   4.683   7.624 -0.7020 -0.1651  0.6019
  704SOL     OW 3785   1.024   7.556   1.358 -0.2024  0.4065  0.0330
  704SOL    HW1 3786   1.000   7.601   1.439 -1.0281 -0.6895  0.4328
  704SOL    HW2 3787   0.982   7.607   1.289  1.9079  2.3391  0.0874
  705SOL     OW 3788   9.142   0.593   4.882 -0.2225 -0.1950  0.4571
  705SOL    HW1 3789   9.177   0.672   4.840  1.8353 -1.5107 -0.4656
  705SOL    HW2 3790   9.201   0.523   4.854  0.1104 -1.5340  3.9725
  706SOL     OW 3791   1.687   9.516   3.123  0.1375 -0.2425  0.5598
  706SOL    HW1 3792   1.680   9.566   3.204  0.8390  1.6251 -0.4829
  706SOL    HW2 3793   1.701   9.581   3.055  0.4259 -1.8189 -0.9730
  707SOL     OW 3794   5.523   4.180   2.357 -1.1278 -0.3096 -0.3563
  707SOL    HW1 3795   5.591   4.119   2.386 -2.5030 -1.9550 -0.4563
  707SOL    HW2 3796   5.457   4.177   2.426 -0.8890  1.6933  0.0091
  708SOL     OW 3797   2.709   0.539   5.489 -0.6222 -0.6028 -0.1120
  708SOL    HW1 3798   2.639   0.578   5.436 -0.4557 -1.1826 -0.7696
  708SOL    HW2 3799   2.771   0.610   5.502  0.8056 -1.1363 -3.2225
  709SOL     OW 3800   0.210   8.717   3.602 -0.2249  0.2092  0.5679
  709SOL    HW1 3801   0.166   8.634   3.618  0.8588 -1.0110 -2.1722
  709SOL    HW2 3802   0.301   8.701   3.630  0.5137 -0.3646 -1.8889
  710SOL     OW 3803   1.500   5.982   2.333  0.0404  0.1953  0.1946
  710SOL    HW1 3804   1.538   5.897   2.355 -1.5095 -0.1970  1.5697
  710SOL    HW2 3805   1.513   5.990   2.238 -0.5273 -1.9992 -0.1283
  711SOL     OW 3806   1.099   8.003   1.064  0.1583  0.4286 -0.1605
  711SOL    HW1 3807   1.178   7.963   1.027  0.7538  1.4184 -0.0031
  711SOL    HW2 3808   1.099   7.975   1.155  1.3149  1.8264  0.3071
  712SOL     OW 3809   3.167   5.203   7.150  0.3428  0.0210  0.5650
  712SOL    HW1 3810   3.192   5.196   7.058 -0.7587 -0.8687  0.3223
  712SOL    HW2 3811   3.106   5.276   7.153  0.2938 -0.0210  0.5789
  713SOL     OW 3812   6.735   7.541   1.439  0.0454  0.0407  0.0621
  713SOL    HW1 3813   6.776   7.609   1.493  1.1403 -0.0119 -0.6850
  713SOL    HW2 3814   6.642   7.545   1.463  0.3993  0.4540  1.4764
  714SOL     OW 3815   4.433   6.311   7.220 -0.6009  0.4300  0.3346
  714SOL    HW1 3816   4.438   6.360   7.138  3.0416  0.4232  0.3808
  714SOL    HW2 3817   4.355   6.345   7.264 -0.3200  3.4939 -1.2986
  715SOL     OW 3818   7.121   7.007   3.728  0.1407  0.4838 -0.6005
  715SOL    HW1 3819   7.135   7.098   3.700 -0.2147  1.3150  1.7231
  715SOL    HW2 3820   7.190   6.991   3.792 -2.5343  0.8828  2.6760
  716SOL     OW 3821   9.278   9.358   3.969 -0.0951  0.3051 -0.3637
  716SOL    HW1 3822   9.330   9.336   3.892 -1.5369 -0.6534 -1.1302
  716SOL    HW2 3823   9.187   9.354   3.938 -0.6396  2.4287  0.7729
  717SOL     OW 3824   8.957   6.170   1.253  0.2020 -0.0008 -0.0811
  717SOL    HW1 3825   9.020   6.202   1.317  1.0925 -0.0903 -0.8985
  717SOL    HW2 3826   8.952   6.076   1.269  1.2083 -0.1929 -0.7942
  718SOL     OW 3827   6.281   8.764   5.011 -0.5691  0.2596 -0.2043
  718SOL    HW1 3828   6.257   8.794   4.923 -2.4213 -0.1013  0.1351
  718SOL    HW2 3829   6.277   8.668   5.005 -0.5420  0.2300  0.2242
  719SOL     OW 3830   3.984   4.308   6.408 -0.1644 -0.2067  0.7590
  719SOL    HW1 3831   3.980   4.397   6.444  0.2084  0.8527 -1.6051
  719SOL    HW2 3832   3.914   4.306   6.342  0.3361 -1.3929  0.2395
  720SOL     OW 3833   9.508   5.840   7.226  0.1981 -0.2981 -0.3497
  720SOL    HW1 3834   9.551   5.804   7.149  0.5986 -3.7804  1.2910
  720SOL    HW2 3835   9.579   5.859   7.287 -0.2020  0.7430 -0.1978
  721SOL     OW 3836   0.494   6.029   4.353  0.4140  0.4419 -0.0819
  721SOL    HW1 3837   0.481   5.935   4.358  0.5868  0.4179 -0.0770
  721SOL    HW2 3838   0.411   6.063   4.319  0.9853  0.0944 -1.9577
  722SOL     OW 3839   7.564   2.569   2.032 -0.5016 -0.4846  0.2179
  722SOL    HW1 3840   7.644   2.601   2.073 -1.0859  0.3543  0.7326
  722SOL    HW2 3841   7.585   2.568   1.938  0.0591 -0.1197  0.3296
  723SOL     OW 3842   7.534   2.226   7.864 -0.3704  0.9683 -0.2422
  723SOL    HW1 3843   7.490   2.258   7.942 -0.2737  1.1790 -0.2705
  723SOL    HW2 3844   7.464   2.192   7.809 -0.3008 -0.3915  0.4904
  724SOL     OW 3845   4.768   1.987   1.898  0.4239  0.4410  0.2348
  724SOL    HW1 3846   4.706   1.991   1.971  0.8230 -0.1848  0.6158
  724SOL    HW2 3847   4.741   2.059   1.840 -0.5614  0.2787  0.4661
  725SOL     OW 3848   1.151   4.385   9.108 -0.5534  0.3631  0.3625
  725SOL    HW1 3849   1.057   4.369   9.107 -0.7824  1.5464 -0.9420
  725SOL    HW2 3850   1.188   4.320   9.049 -0.4815 -0.3288  1.1447
  726SOL     OW 3851   6.451   9.511   0.317  0.1415  0.2857 -0.3337
  726SOL    HW1 3852   6.415   9.595   0.346  0.1575 -0.2489  1.2993
  726SOL    HW2 3853   6.505   9.481   0.390  0.9750 -0.6650 -1.3089
  727SOL     OW 3854   8.971   2.874   0.931 -0.2673  0.3057  0.0823
  727SOL    HW1 3855   8.917   2.937   0.884 -2.3257 -2.1048 -1.0212
  727SOL    HW2 3856   8.913   2.837   0.997  0.8226 -0.5341  0.5990
  728SOL     OW 3857   7.002   1.072   2.973  0.4557  0.7768 -0.5263
  728SOL    HW1 3858   6.908   1.054   2.967  0.5507 -0.2648  0.7022
  728SOL    HW2 3859   7.043   1.013   2.910  0.4009 -0.0149  0.1616
  729SOL     OW 3860   5.078   7.725   0.818  0.0753  0.0034 -0.1887
  729SOL    HW1 3861   5.048   7.708   0.907 -0.8490  3.1179  0.2041
  729SOL    HW2 3862   5.172   7.710   0.821  0.2437  1.1412  1.6692
  730SOL     OW 3863   6.472   9.635   5.509  0.0783 -0.5280  0.3972
  730SOL    HW1 3864   6.467   9.729   5.493 -0.0671 -0.7252 -0.8450
  730SOL    HW2 3865   6.564   9.612   5.492  0.6567 -0.2718  2.8950
  731SOL     OW 3866   2.849   5.346   5.362 -0.4936  0.0730  0.1051
  731SOL    HW1 3867   2.864   5.266   5.313 -0.0433  0.3045 -0.1414
  731SOL    HW2 3868   2.792   5.399   5.305 -1.7478 -0.5327  0.7574
  732SOL     OW 3869   6.887   9.048   4.354 -0.1630 -0.6113 -0.1996
  732SOL    HW1 3870   6.831   9.108   4.304 -0.3013  0.7900  1.5319
  732SOL    HW2 3871   6.934   9.105   4.416 -1.6136 -2.3997  2.7723
  733SOL     OW 3872   6.172   8.943   8.537 -0.3291 -0.4023 -0.1906
  733SOL    HW1 3873   6.198   8.857   8.571 -1.8075 -0.5805  0.5627
  733SOL    HW2 3874   6.076   8.944   8.544 -0.5106  0.5334 -2.0717
  734SOL     OW 3875   5.083   2.306   7.295  0.0300  0.4395 -0.2804
  734SOL    HW1 3876   5.149   2.322   7.228 -0.8771  3.0435 -0.6832
  734SOL    HW2 3877   5.002   2.293   7.247 -0.2763  0.2548  0.2730
  735SOL     OW 3878   5.388   6.804   2.373  0.3578 -0.4407  0.3972
  735SOL    HW1 3879   5.373   6.869   2.442  1.8139  0.1766  0.1679
  735SOL    HW2 3880   5.450   6.742   2.410  0.7816 -0.3728 -0.1778
  736SOL     OW 3881   6.463   1.537   2.899 -0.3526  0.0231 -0.2275
  736SOL    HW1 3882   6.514   1.604   2.853 -0.1469  1.2746  1.6680
  736SOL    HW2 3883   6.388   1.585   2.933 -0.3341 -0.7523  0.9565
  737SOL     OW 3884   6.970   5.000   4.645  0.3843  0.2673 -0.0122
  737SOL    HW1 3885   7.016   5.079   4.617  1.2037 -0.2836 -0.2645
  737SOL    HW2 3886   7.037   4.946   4.686 -0.1530 -0.3330  0.0987
  738SOL     OW 3887   0.534   0.405   5.441 -0.8446  0.1850  0.4367
  738SOL    HW1 3888   0.442   0.405   5.469 -1.4684  0.4555 -1.5131
  738SOL    HW2 3889   0.572   0.329   5.486 -2.4210 -0.8623  0.0765
  739SOL     OW 3890   4.544   2.779   4.825 -0.0748 -0.3154  0.0450
  739SOL    HW1 3891   4.502   2.861   4.798  2.0967  0.4619 -1.2247
  739SOL    HW2 3892   4.555   2.788   4.920  0.3929  1.0218 -0.1109
  740SOL     OW 3893   0.993   1.490   5.136  0.2556 -0.4083  0.1616
  740SOL    HW1 3894   0.988   1.442   5.219 -0.5363 -0.6285 -0.0035
  740SOL    HW2 3895   1.049   1.436   5.081  0.1118 -0.6834  0.2813
  741SOL     OW 3896   5.351   0.976   0.491  0.4855  0.2667 -0.7615
  741SOL    HW1 3897   5.304   1.059   0.490  0.4698  0.3099  0.8482
  741SOL    HW2 3898   5.283   0.909   0.486  0.5015  0.3196 -2.1245
  742SOL     OW 3899   5.295   1.466   9.261 -0.0921  0.0933  1.1852
  742SOL    HW1 3900   5.292   1.501   9.172  0.9701 -0.1475  1.0378
  742SOL    HW2 3901   5.344   1.532   9.311 -0.5162  0.1368  1.5507
  743SOL     OW 3902   0.040   6.565   3.419 -0.3001 -0.4180  0.0952
  743SOL    HW1 3903  -0.029   6.614   3.373  0.8875  1.2193 -0.0160
  743SOL    HW2 3904   0.026   6.585   3.511  1.2478  1.7028 -0.0535
  744SOL     OW 3905   1.069   4.307   6.828  0.5268  0.7350 -0.4868
  744SOL    HW1 3906   1.091   4.244   6.897 -0.4964  0.2269 -0.6090
  744SOL    HW2 3907   1.154   4.336   6.794  1.1064 -2.2573 -1.9326
  745SOL     OW 3908   6.540   0.137   8.260 -0.0577  0.1442  0.0967
  745SOL    HW1 3909   6.550   0.146   8.165  0.8057 -1.4892  0.0060
  745SOL    HW2 3910   6.622   0.098   8.289 -0.7096 -0.3150  1.3841
  746SOL     OW 3911   4.628   5.588   6.287  0.4883  0.2797 -0.0404
  746SOL    HW1 3912   4.623   5.501   6.247  2.0260  0.6122 -1.0264
  746SOL    HW2 3913   4.612   5.573   6.380 -2.1279 -0.6545 -0.5699
  747SOL     OW 3914   5.075   2.215   4.638  0.3056  0.4320  0.2951
  747SOL    HW1 3915   5.154   2.267   4.653 -0.5928  1.0623  3.6542
  747SOL    HW2 3916   5.102   2.125   4.656  0.3306  0.6212  1.2465
  748SOL     OW 3917   9.462   7.890   4.954 -0.3367  0.0262 -0.7312
  748SOL    HW1 3918   9.552   7.869   4.975 -0.3228 -0.9631 -1.7403
  748SOL    HW2 3919   9.452   7.981   4.983  0.2599 -0.5742  1.6018
  749SOL     OW 3920   0.711   2.889   7.368 -0.5547 -0.0570 -0.2867
  749SOL    HW1 3921   0.631   2.928   7.334 -1.3726 -0.6304  0.9151
  749SOL    HW2 3922   0.782   2.939   7.327 -1.5371  1.1345 -0.5750
  750SOL     OW 3923   7.600   3.045   9.078 -0.6039 -0.2343 -0.3445
  750SOL    HW1 3924   7.636   3.107   9.142 -2.7525  0.8885 -0.1280
  750SOL    HW2 3925   7.675   2.991   9.052  1.0527  1.5332  0.5134
  751SOL     OW 3926   6.216   7.811   8.633  0.2218  0.0808  0.2778
  751SOL    HW1 3927   6.155   7.884   8.621 -0.2999 -0.3124  0.5183
  751SOL    HW2 3928   6.303   7.851   8.625 -0.0643  0.5903 -0.4094
  752SOL     OW 3929   0.266   9.276   4.942 -0.2675  0.5747  0.3293
  752SOL    HW1 3930   0.306   9.303   5.025  0.2963 -1.7562  0.8814
  752SOL    HW2 3931   0.310   9.328   4.875  0.4531  1.2960  1.3407
  753SOL     OW 3932   5.008   0.774   3.468 -0.4448 -0.6478 -0.0406
  753SOL    HW1 3933   4.966   0.689   3.454 -0.5635 -0.7081  0.6245
  753SOL    HW2 3934   5.041   0.769   3.558 -1.8296  0.5939  0.5790
  754SOL     OW 3935   3.314   6.435   6.117  0.1320 -0.4332  0.4763
  754SOL    HW1 3936   3.260   6.434   6.196  0.2453 -1.4642  0.5569
  754SOL    HW2 3937   3.312   6.526   6.087 -0.5934 -0.2044  1.1952
  755SOL     OW 3938   9.534   5.584   3.400 -0.6889  0.9464 -0.2300
  755SOL    HW1 3939   9.541   5.672   3.364  3.3077  0.6177 -0.7540
  755SOL    HW2 3940   9.503   5.531   3.327  1.5203  1.2584 -1.4881
  756SOL     OW 3941   9.322   7.043   3.660 -0.2529 -0.5447 -0.4339
  756SOL    HW1 3942   9.247   7.035   3.602 -0.9194 -0.4756  0.4020
  756SOL    HW2 3943   9.285   7.040   3.748  0.5475  1.0169 -0.0003
  757SOL     OW 3944   0.465   4.860   7.623 -0.3352 -0.3130  0.0949
  757SOL    HW1 3945   0.428   4.928   7.565 -1.2126 -0.8453 -0.0006
  757SOL    HW2 3946   0.424   4.876   7.708  0.7073  0.2695  0.4999
  758SOL     OW 3947   3.188   6.646   1.003 -0.0650 -0.1528 -0.1420
  758SOL    HW1 3948   3.251   6.710   1.035  1.7200 -1.7634 -0.2636
  758SOL    HW2 3949   3.145   6.614   1.082 -1.3441  1.4734 -0.1155
  759SOL     OW 3950   6.628   4.301   7.346 -0.3010 -0.2539  0.5571
  759SOL    HW1 3951   6.699   4.327   7.287 -0.7008 -0.5216 -0.0617
  759SOL    HW2 3952   6.569   4.377   7.346 -0.9897 -0.7582 -0.4948
  760SOL     OW 3953   7.046   5.557   9.274  0.0856  0.2941  0.1118
  760SOL    HW1 3954   6.962   5.577   9.317 -0.7383 -0.4528 -1.0984
  760SOL    HW2 3955   7.027   5.482   9.218  1.4455  0.4542 -0.5993
  761SOL     OW 3956   7.643   7.724   2.396 -0.1068 -0.5311 -0.1706
  761SOL    HW1 3957   7.663   7.630   2.394 -2.3274 -1.1757  2.3022
  761SOL    HW2 3958   7.610   7.743   2.309  1.4124 -1.7413 -1.0676
  762SOL     OW 3959   0.456   6.403   8.914 -0.1081  0.2210  0.6625
  762SOL    HW1 3960   0.523   6.468   8.893 -0.6596  1.0910  1.4884
  762SOL    HW2 3961   0.443   6.354   8.833  1.8180 -0.2531  0.6022
  763SOL     OW 3962   8.616   7.923   2.956 -0.0637 -0.4064  0.1502
  763SOL    HW1 3963   8.626   7.941   2.862  0.4090 -0.2150  0.2349
  763SOL    HW2 3964   8.587   7.832   2.960  1.4150 -0.9125 -0.1258
  764SOL     OW 3965   4.815   4.795   7.988 -0.0209  0.2283 -0.4028
  764SOL    HW1 3966   4.798   4.748   7.906 -0.6725  0.7864 -0.5969
  764SOL    HW2 3967   4.910   4.810   7.987  0.1180 -0.5963 -0.5942
  765SOL     OW 3968   8.860   7.416   2.187 -0.3379 -0.1936  0.3307
  765SOL    HW1 3969   8.884   7.332   2.149  0.6758  1.2545 -2.5479
  765SOL    HW2 3970   8.773   7.402   2.224  0.4798 -2.8637  1.4570
  766SOL     OW 3971   7.769   5.662   4.755  0.2846  0.1636 -0.4428
  766SOL    HW1 3972   7.819   5.703   4.826  0.5486  0.2587 -0.6815
  766SOL    HW2 3973   7.712   5.599   4.799  2.0393 -1.4213 -0.3079
  767SOL     OW 3974   9.032   5.773   4.613  0.0794  0.3318 -0.0362
  767SOL    HW1 3975   8.997   5.763   4.525 -0.8134  0.7425  0.2576
  767SOL    HW2 3976   9.090   5.697   4.625 -0.9459 -0.5331 -0.4363
  768SOL     OW 3977   7.864   3.170   5.225  0.2066  0.2446 -0.4474
  768SOL    HW1 3978   7.931   3.223   5.181 -1.4593  1.1077 -2.1260
  768SOL    HW2 3979   7.861   3.089   5.174 -0.7738  0.6754 -1.0995
  769SOL     OW 3980   6.556   4.743   1.192  0.4788 -0.1050  0.2741
  769SOL    HW1 3981   6.559   4.685   1.116  2.2762 -0.7629  0.7898
  769SOL    HW2 3982   6.462   4.757   1.208  0.0497 -0.3472 -1.7243
  770SOL     OW 3983   9.054   4.157   4.579  0.6744  0.6085  0.0706
  770SOL    HW1 3984   9.095   4.173   4.494  0.7599 -2.0181 -0.4544
  770SOL    HW2 3985   8.963   4.138   4.559  0.2849  1.6252  0.7754
  771SOL     OW 3986   4.034   9.143   3.048  0.0963 -0.7670  0.2265
  771SOL    HW1 3987   4.025   9.165   3.141 -1.1676 -2.9460  0.7029
  771SOL    HW2 3988   4.105   9.199   3.017  0.4588  0.1310  2.4702
  772SOL     OW 3989   8.920   4.672   9.658  0.0505  0.2066  0.3714
  772SOL    HW1 3990   8.958   4.601   9.607 -4.3981 -1.2232 -1.4363
  772SOL    HW2 3991   8.895   4.632   9.741 -2.5947 -0.6295 -0.7038
  773SOL     OW 3992   4.410   5.111   5.783  0.4694 -0.3697 -0.4019
  773SOL    HW1 3993   4.467   5.159   5.844  0.0073 -0.7356  0.3361
  773SOL    HW2 3994   4.420   5.019   5.809 -0.3782 -0.4439 -0.3255
  774SOL     OW 3995   0.296   3.305   8.215  0.0746 -0.0214 -0.1192
  774SOL    HW1 3996   0.257   3.365   8.279 -2.3420 -1.8029  0.1955
  774SOL    HW2 3997   0.352   3.248   8.267  1.1416  0.9257 -0.1961
  775SOL     OW 3998   2.518   6.459   9.404 -0.3294 -0.0014  0.0366
  775SOL    HW1 3999   2.543   6.422   9.319  2.1236 -1.0451  1.0967
  775SOL    HW2 4000   2.573   6.537   9.414  0.1371 -0.4265  1.0282
  776SOL     OW 4001   6.955   4.996   6.208 -0.2916  0.1297 -0.1750
  776SOL    HW1 4002   6.927   5.010   6.117  1.2822  1.1397 -0.5552
  776SOL    HW2 4003   6.925   4.908   6.229  1.3107 -1.0890 -2.5164
  777SOL     OW 4004   6.130   5.690   0.887  0.0675 -0.2834 -0.1388
  777SOL    HW1 4005   6.146   5.667   0.795 -1.2606  1.1826 -0.7820
  777SOL    HW2 4006   6.052   5.640   0.910  0.3244 -0.5499  0.1682
  778SOL     OW 4007   4.085   2.353   0.310  0.2103 -0.5182  0.2403
  778SOL    HW1 4008   4.123   2.293   0.374 -0.5163 -1.6891 -0.3900
  778SOL    HW2 4009   4.062   2.297   0.236  2.4477  0.9596 -1.7448
  779SOL     OW 4010   6.288   9.344   9.374 -0.1230  0.3708  0.3177
  779SOL    HW1 4011   6.308   9.335   9.281 -0.0147  2.0126  0.1511
  779SOL    HW2 4012   6.356   9.292   9.418 -0.4346 -0.7680 -0.5107
  780SOL     OW 4013   0.828   2.338   1.782  0.0412  0.0323 -0.2643
  780SOL    HW1 4014   0.850   2.406   1.718 -4.7737  2.4866  0.2505
  780SOL    HW2 4015   0.847   2.378   1.867  0.0593 -0.4891 -0.0221
  781SOL     OW 4016   1.902   8.942   6.511  0.0666  0.4917  0.8198
  781SOL    HW1 4017   1.911   8.942   6.606  0.0322  0.5175  0.8230
  781SOL    HW2 4018   1.830   9.004   6.493 -1.2763 -0.9861  0.9046
  782SOL     OW 4019   2.782   7.535   0.596  0.2291 -0.0045 -0.0464
  782SOL    HW1 4020   2.781   7.570   0.507  1.7022 -0.6276 -0.3329
  782SOL    HW2 4021   2.712   7.469   0.597 -1.1368  1.3755 -0.1192
  783SOL     OW 4022   7.499   5.223   2.235 -0.3004  0.4106  0.1131
  783SOL    HW1 4023   7.578   5.260   2.196 -0.1972 -0.4329 -0.5089
  783SOL    HW2 4024   7.433   5.228   2.167 -0.0205 -1.4103 -0.3681
  784SOL     OW 4025   3.126   0.461   3.359 -0.3489 -0.1096  0.4326
  784SOL    HW1 4026   3.157   0.423   3.441  0.8766  1.3462  0.6815
  784SOL    HW2 4027   3.164   0.405   3.291 -0.4215 -0.6471  0.8273
  785SOL     OW 4028   3.597   0.521   2.515  0.0761  0.2496  0.0193
  785SOL    HW1 4029   3.554   0.555   2.594  1.4658  1.0766  0.4548
  785SOL    HW2 4030   3.571   0.429   2.511 -1.9816  0.7867  0.0698
  786SOL     OW 4031   4.392   2.128   1.625 -0.0422  0.3394  0.0038
  786SOL    HW1 4032   4.402   2.164   1.713  0.6961 -0.4424  0.2488
  786SOL    HW2 4033   4.360   2.039   1.638  0.7296 -0.0219 -0.4759
  787SOL     OW 4034   8.817   1.311   3.796 -0.1908 -0.0243 -0.1913
  787SOL    HW1 4035   8.727   1.285   3.776 -0.3402  0.2798  0.0796
  787SOL    HW2 4036   8.833   1.387   3.740  1.1477 -2.1851 -2.9994
  788SOL     OW 4037   5.427   7.758   6.655  0.2858  0.2555 -0.3965
  788SOL    HW1 4038   5.499   7.713   6.700 -0.8228 -1.0705  0.1229
  788SOL    HW2 4039   5.404   7.700   6.583 -0.7849  0.2678 -0.0736
  789SOL     OW 4040   3.508   3.541   2.875  0.3267  0.3284 -0.0272
  789SOL    HW1 4041   3.530   3.598   2.949  1.0545  0.9271 -0.6838
  789SOL    HW2 4042   3.573   3.471   2.878  0.1947  0.2092  0.0538
  790SOL     OW 4043   3.063   1.792   2.295  0.4002 -0.1639  0.4329
  790SOL    HW1 4044   2.970   1.789   2.314 -0.0188 -1.8880 -1.5776
  790SOL    HW2 4045   3.106   1.774   2.379 -1.0442  0.2645  1.2955
  791SOL     OW 4046   7.492   1.206   1.577 -0.2311 -0.5528  0.0333
  791SOL    HW1 4047   7.479   1.129   1.632  0.0285 -1.0055 -0.5333
  791SOL    HW2 4048   7.449   1.184   1.494  0.1500 -0.2283 -0.2549
  792SOL     OW 4049   3.591   1.379   3.527 -0.9297  0.0179 -0.1889
  792SOL    HW1 4050   3.648   1.455   3.523  0.6262 -1.1126 -0.2006
  792SOL    HW2 4051   3.510   1.408   3.484 -0.7456  1.9392  0.6623
  793SOL     OW 4052   7.428   8.191   5.922 -0.0742 -0.6290 -0.2898
  793SOL    HW1 4053   7.408   8.270   5.871 -0.1131 -0.0719  0.5613
  793SOL    HW2 4054   7.453   8.126   5.857 -0.7261 -0.1212 -1.0620
  794SOL     OW 4055   3.399   6.948   0.104  0.1241 -0.5144  0.0240
  794SOL    HW1 4056   3.374   6.887   0.173  0.6138  0.9571  1.5825
  794SOL    HW2 4057   3.401   7.034   0.147  2.4956  0.1969 -1.2769
  795SOL     OW 4058   4.134   0.167   4.556 -0.3887  0.2041 -0.3956
  795SOL    HW1 4059   4.112   0.148   4.647  2.1450 -2.2822 -0.1766
  795SOL    HW2 4060   4.217   0.216   4.561 -0.4221  0.3826 -1.3721
  796SOL     OW 4061   2.845   5.159   8.707  0.0131 -0.0685  0.0496
  796SOL    HW1 4062   2.780   5.131   8.772 -0.0550  0.8392  0.3809
  796SOL    HW2 4063   2.793   5.187   8.631  0.1038 -1.4948 -0.5660
  797SOL     OW 4064   0.072   6.133   7.857 -0.0637 -0.5771 -0.0505
  797SOL    HW1 4065   0.025   6.125   7.940 -0.0911  1.7405  0.2142
  797SOL    HW2 4066   0.049   6.054   7.808  0.3328 -2.2442  2.2940
  798SOL     OW 4067   9.459   7.136   3.366  0.2990 -0.1270 -0.1766
  798SOL    HW1 4068   9.371   7.096   3.363  1.0234 -1.8082 -0.3829
  798SOL    HW2 4069   9.449   7.219   3.319 -1.5034  0.4435  1.0815
  799SOL     OW 4070   9.502   5.909   6.305 -0.9654 -0.4370 -0.0786
  799SOL    HW1 4071   9.414   5.943   6.322 -1.4001 -2.0254  1.0301
  799SOL    HW2 4072   9.535   5.882   6.391 -0.0960 -1.4770 -0.7055
  800SOL     OW 4073   2.174   2.098   8.052 -0.1883  0.0710 -0.7387
  800SOL    HW1 4074   2.174   2.040   8.129  0.4599  1.2620  0.2050
  800SOL    HW2 4075   2.107   2.063   7.995  2.6110 -3.9279 -2.0023
  801SOL     OW 4076   2.107   1.618   7.638 -0.0281 -0.1680 -0.5820
  801SOL    HW1 4077   2.173   1.654   7.579 -0.6233  2.7796  0.3448
  801SOL    HW2 4078   2.125   1.659   7.722 -1.2277 -1.6420  0.4543
  802SOL     OW 4079   4.589   3.503   0.692 -0.6926 -0.3096  0.0381
  802SOL    HW1 4080   4.526   3.466   0.754 -0.0480 -2.8402 -0.6982
  802SOL    HW2 4081   4.674   3.470   0.721 -0.1838 -0.1796 -1.2275
  803SOL     OW 4082   2.977   6.650   6.134 -0.5567 -0.1894  0.1221
  803SOL    HW1 4083   2.953   6.739   6.108 -1.1905 -0.4266 -0.1343
  803SOL    HW2 4084   2.917   6.629   6.206 -0.5311 -0.4694  0.0622
  804SOL     OW 4085   2.595   7.455   5.279 -0.3186 -0.1193  0.3197
  804SOL    HW1 4086   2.621   7.454   5.187  1.3394  1.1612  0.7334
  804SOL    HW2 4087   2.620   7.369   5.312  0.9593  0.1334  0.0456
  805SOL     OW 4088   2.797   1.012   6.155 -0.2386  0.0671 -0.0979
  805SOL    HW1 4089   2.702   1.012   6.151 -0.2034  0.6410 -2.1464
  805SOL    HW2 4090   2.822   1.100   6.126  0.9231  0.6130  2.2604
  806SOL     OW 4091   3.599   0.101   2.024  0.6619 -0.0578  0.3949
  806SOL    HW1 4092   3.574   0.014   1.993 -0.5586  0.0181  1.0872
  806SOL    HW2 4093   3.554   0.110   2.108  3.7251 -0.2029  2.1995
  807SOL     OW 4094   1.222   1.572   3.455 -0.0263 -0.3067 -0.2740
  807SOL    HW1 4095   1.227   1.479   3.478 -1.2989 -0.6484 -1.2170
  807SOL    HW2 4096   1.175   1.573   3.371 -2.3639  1.3162  0.9356
  808SOL     OW 4097   0.067   7.886   1.598  0.7487  0.1568 -0.3040
  808SOL    HW1 4098   0.153   7.862   1.563  2.2534  1.1499  2.3794
  808SOL    HW2 4099   0.045   7.815   1.659 -0.2763  0.0392 -0.7775
  809SOL     OW 4100   7.115   6.198   7.436  0.0993 -0.2130  0.3806
  809SOL    HW1 4101   7.179   6.128   7.423  0.0697 -0.3880  1.1368
  809SOL    HW2 4102   7.124   6.222   7.528  0.1169  0.7907  0.1338
  810SOL     OW 4103   9.459   2.747   2.646  0.2451 -0.0661  0.2021
  810SOL    HW1 4104   9.506   2.774   2.725  1.0525  0.1258 -0.3316
  810SOL    HW2 4105   9.403   2.823   2.625 -0.5003 -0.3889  0.9730
  811SOL     OW 4106   1.955   6.268   3.703  0.0511  0.1534 -0.0660
  811SOL    HW1 4107   1.904   6.187   3.696 -1.0263  0.5392  2.3813
  811SOL    HW2 4108   1.891   6.334   3.729  0.9468  1.8055 -1.8675
  812SOL     OW 4109   9.032   3.235   2.261  0.4075  0.5196 -0.1667
  812SOL    HW1 4110   8.998   3.215   2.348  1.0992 -0.9598 -0.2212
  812SOL    HW2 4111   9.065   3.325   2.269  0.7504  0.3014  1.1959
  813SOL     OW 4112   8.214   3.470   1.087 -0.6131 -0.1446  0.2714
  813SOL    HW1 4113   8.144   3.509   1.034 -0.8014 -0.3416  0.3767
  813SOL    HW2 4114   8.268   3.545   1.113 -0.3565 -0.0768 -0.4332
  814SOL     OW 4115   3.888   4.364   2.438  0.2479 -0.3816 -0.1107
  814SOL    HW1 4116   3.800   4.363   2.400  0.0881  0.1816  0.2385
  814SOL    HW2 4117   3.921   4.451   2.419  0.5217 -0.4080  0.2354
  815SOL     OW 4118   6.234   8.413   6.287 -0.3885  0.0818  0.2087
  815SOL    HW1 4119   6.314   8.445   6.327  0.6188 -0.3966 -1.3287
  815SOL    HW2 4120   6.187   8.368   6.357  1.9773 -2.0018  0.5909
  816SOL     OW 4121   8.830   8.021   1.270  0.0771 -1.0638  0.2720
  816SOL    HW1 4122   8.806   8.006   1.179  1.6264  0.9407 -0.5529
  816SOL    HW2 4123   8.918   7.983   1.279  1.8298  2.3188 -0.4333
  817SOL     OW 4124   7.912   4.247   8.648  0.0078 -0.2644 -0.2426
  817SOL    HW1 4125   7.963   4.166   8.647 -0.1589 -0.3697 -0.6760
  817SOL    HW2 4126   7.975   4.315   8.670  0.1825 -0.4886 -0.0369
  818SOL     OW 4127   6.518   1.148   5.731 -0.9413 -0.4739 -0.1354
  818SOL    HW1 4128   6.508   1.220   5.794  1.0699  1.5525 -1.9257
  818SOL    HW2 4129   6.462   1.173   5.657  0.0536 -0.4716 -0.9225
  819SOL     OW 4130   3.679   3.721   3.133 -0.0649  0.0155 -0.3782
  819SOL    HW1 4131   3.755   3.716   3.075  1.2555 -0.3519  1.2927
  819SOL    HW2 4132   3.654   3.814   3.132  1.2786  0.4055  0.0731
  820SOL     OW 4133   6.227   6.714   1.618 -0.2907 -0.1563  0.1523
  820SOL    HW1 4134   6.169   6.790   1.619  0.7671  0.7168  2.7438
  820SOL    HW2 4135   6.234   6.688   1.709 -0.5802 -3.4181 -0.6293
  821SOL     OW 4136   4.466   9.540   8.663 -0.5078 -0.3197 -0.4174
  821SOL    HW1 4137   4.482   9.577   8.750  1.4874 -1.7270 -0.1204
  821SOL    HW2 4138   4.436   9.614   8.611  0.6785  1.1177  0.8449
  822SOL     OW 4139   3.488   5.268   4.194 -0.4363  0.3069 -0.1594
  822SOL    HW1 4140   3.550   5.339   4.208 -0.0192 -0.3326  1.3997
  822SOL    HW2 4141   3.415   5.288   4.252 -0.3505 -0.4973  0.2345
  823SOL     OW 4142   1.039   2.947   9.563  0.4605 -0.1581 -0.4546
  823SOL    HW1 4143   1.123   2.978   9.598  1.2590 -2.2424 -0.4017
  823SOL    HW2 4144   0.974   2.980   9.626  1.4524 -0.2895  0.6743
  824SOL     OW 4145   4.412   5.704   3.922 -0.5347 -0.1118  0.7459
  824SOL    HW1 4146   4.480   5.665   3.977 -2.5109 -1.2210  2.5623
  824SOL    HW2 4147   4.406   5.794   3.952  0.1766  0.0208  0.5081
  825SOL     OW 4148   5.468   0.985   1.683  0.0267  0.2251 -0.4053
  825SOL    HW1 4149   5.472   0.904   1.633 -0.9589 -0.0688 -0.0254
  825SOL    HW2 4150   5.376   1.011   1.681  0.2347  1.0365 -0.0474
  826SOL     OW 4151   6.669   1.440   3.961  0.2801  0.2184 -0.2946
  826SOL    HW1 4152   6.620   1.408   4.037  1.7198  1.1366  1.0793
  826SOL    HW2 4153   6.747   1.385   3.958  1.0961  1.3238  0.0096
  827SOL     OW 4154   7.003   4.952   3.043  0.6115 -0.1183 -0.0099
  827SOL    HW1 4155   7.054   4.963   3.124 -0.3457 -0.1704  0.6157
  827SOL    HW2 4156   6.984   4.858   3.039  0.9505 -0.1684 -0.4819
  828SOL     OW 4157   2.569   4.947   3.077 -0.3627  0.2253  0.2187
  828SOL    HW1 4158   2.550   5.039   3.060  0.2833  0.3492  0.1459
  828SOL    HW2 4159   2.600   4.913   2.992 -2.3349 -0.5302 -0.2643
  829SOL     OW 4160   9.627   2.248   4.230 -0.3013  0.1622  0.0435
  829SOL    HW1 4161   9.543   2.293   4.226 -0.1303  0.6708  1.7897
  829SOL    HW2 4162   9.668   2.279   4.310  0.7791 -1.4447  0.1576
  830SOL     OW 4163   4.206   8.032   6.066 -0.1470 -0.2153  0.2217
  830SOL    HW1 4164   4.154   8.099   6.021 -1.4519 -1.7254 -0.6237
  830SOL    HW2 4165   4.293   8.039   6.027 -0.4250  0.5904 -0.2804
  831SOL     OW 4166   5.135   7.001   5.493  0.4200  0.2984  0.0248
  831SOL    HW1 4167   5.153   6.980   5.585 -2.0418  1.4368  0.8551
  831SOL    HW2 4168   5.191   7.076   5.474  1.9588 -0.7841  0.1232
  832SOL     OW 4169   4.684   3.564   4.490 -0.7694 -0.1376 -0.4371
  832SOL    HW1 4170   4.766   3.544   4.446 -0.5154 -2.0279  0.7429
  832SOL    HW2 4171   4.677   3.659   4.489  1.6927  0.0921 -0.1364
  833SOL     OW 4172   3.034   0.007   2.195 -0.2323 -0.0197 -0.5379
  833SOL    HW1 4173   3.077  -0.057   2.139  1.7805  0.7579  0.0452
  833SOL    HW2 4174   2.975   0.054   2.137  0.6178 -0.2966 -1.6576
  834SOL     OW 4175   5.584   7.018   6.762 -0.4620  0.0693  0.0131
  834SOL    HW1 4176   5.567   7.037   6.854  0.4623  0.2807  0.1482
  834SOL    HW2 4177   5.663   6.965   6.763  1.0085  2.1207 -0.7920
  835SOL     OW 4178   3.701   7.752   2.762  0.2891 -0.2607  0.0241
  835SOL    HW1 4179   3.749   7.674   2.733  0.5714  0.3060 -1.1097
  835SOL    HW2 4180   3.768   7.806   2.805 -0.0394 -0.9057  1.3995
  836SOL     OW 4181   6.942   3.272   0.121 -0.4469  0.1017 -0.9567
  836SOL    HW1 4182   6.907   3.361   0.127 -0.3397  0.1671 -1.3306
  836SOL    HW2 4183   7.001   3.265   0.196 -0.0393  0.5289 -1.2351
  837SOL     OW 4184   0.672   5.059   6.975 -0.1359  0.2228 -0.0310
  837SOL    HW1 4185   0.706   4.990   7.031  0.0054  0.7118  0.4993
  837SOL    HW2 4186   0.684   5.026   6.886 -0.3314 -0.5507  0.2208
  838SOL     OW 4187   0.395   6.136   0.370  0.2735  0.0108 -0.1071
  838SOL    HW1 4188   0.401   6.049   0.408  2.1085  0.4596  0.7421
  838SOL    HW2 4189   0.446   6.192   0.429  0.0033  1.4692 -1.1842
  839SOL     OW 4190   0.339   4.053   1.993 -0.2452  0.2250 -0.4592
  839SOL    HW1 4191   0.304   3.990   2.056  0.9126 -2.2748 -2.1613
  839SOL    HW2 4192   0.278   4.050   1.919  0.4361  0.2194 -1.0351
  840SOL     OW 4193   7.186   4.393   1.493 -0.1157  0.0391  0.3934
  840SOL    HW1 4194   7.232   4.413   1.412  0.5689  1.5394  1.1135
  840SOL    HW2 4195   7.236   4.438   1.561 -0.2259 -1.8149  1.7777
  841SOL     OW 4196   8.901   8.858   2.564 -0.6495 -0.2885  0.0730
  841SOL    HW1 4197   8.877   8.819   2.480  0.2288 -1.2470  0.2530
  841SOL    HW2 4198   8.963   8.797   2.602 -1.9894 -0.4933  2.0255
  842SOL     OW 4199   7.973   9.067   2.270 -0.5279 -0.3299  0.2824
  842SOL    HW1 4200   8.058   9.096   2.239  0.1472 -1.5372  0.9387
  842SOL    HW2 4201   7.981   9.065   2.366 -0.9511 -1.4131  0.3104
  843SOL     OW 4202   8.952   5.215   5.431 -0.1990  0.5952  0.1101
  843SOL    HW1 4203   8.860   5.238   5.446 -0.5233  0.8142 -1.9017
  843SOL    HW2 4204   9.000   5.295   5.450 -0.3964  0.4586  1.2510
  844SOL     OW 4205   2.969   6.866   8.219  0.6754 -0.1647  0.0712
  844SOL    HW1 4206   2.944   6.818   8.299 -1.9103  0.6105 -0.1740
  844SOL    HW2 4207   2.952   6.957   8.240  0.2266  0.0815 -1.2742
  845SOL     OW 4208   0.601   2.342   2.308 -0.0976  0.1219 -0.0393
  845SOL    HW1 4209   0.626   2.301   2.391 -1.9136 -1.2688 -0.1247
  845SOL    HW2 4210   0.660   2.302   2.243  1.6210  1.5236  0.5604
  846SOL     OW 4211   1.562   7.188   6.996 -0.0969 -0.8848 -0.3105
  846SOL    HW1 4212   1.575   7.194   6.901  0.1117 -1.9398 -0.3577
  846SOL    HW2 4213   1.643   7.151   7.029 -0.3073 -0.8616  0.2466
  847SOL     OW 4214   3.893   3.383   4.670 -0.5631  0.3948 -0.4085
  847SOL    HW1 4215   3.806   3.351   4.648 -0.5893 -0.1340  0.4425
  847SOL    HW2 4216   3.935   3.399   4.585 -1.6107  1.0134 -0.8203
  848SOL     OW 4217   5.313   6.457   7.125 -0.5750 -0.1781  0.2994
  848SOL    HW1 4218   5.277   6.531   7.175  0.6299 -0.5419  1.7873
  848SOL    HW2 4219   5.392   6.432   7.173 -0.5288 -1.9347 -0.6041
  849SOL     OW 4220   8.846   4.808   3.703 -0.3775 -0.2062  0.5136
  849SOL    HW1 4221   8.877   4.892   3.668 -0.3404 -0.8685 -1.1348
  849SOL    HW2 4222   8.773   4.831   3.760 -0.0582  0.9844  0.4755
  850SOL     OW 4223   8.323   0.280   0.308  0.2203 -0.1381  0.0026
  850SOL    HW1 4224   8.385   0.348   0.335 -2.2205  1.5645  1.6247
  850SOL    HW2 4225   8.268   0.322   0.242 -1.0886 -0.6563  0.7432
  851SOL     OW 4226   8.736   1.919   2.733  0.7915 -0.2202 -0.1110
  851SOL    HW1 4227   8.735   1.824   2.723  1.7495 -0.2532  0.0006
  851SOL    HW2 4228   8.664   1.950   2.678  1.6328 -0.8869 -1.6576
  852SOL     OW 4229   4.393   5.213   6.541  0.2853  0.0772 -0.3517
  852SOL    HW1 4230   4.397   5.306   6.516 -2.1163  0.3118 -0.0879
  852SOL    HW2 4231   4.361   5.168   6.463 -0.1075 -0.2756  0.0060
  853SOL     OW 4232   4.114   3.069   7.394  0.1877 -0.8498  0.0051
  853SOL    HW1 4233   4.115   3.128   7.318 -0.4021 -2.2572 -1.1297
  853SOL    HW2 4234   4.150   2.987   7.361 -0.0980 -1.4986  1.2624
  854SOL     OW 4235   6.856   8.956   7.800  0.1224  0.4893 -0.2078
  854SOL    HW1 4236   6.884   8.922   7.885 -0.9715  0.3742  0.1255
  854SOL    HW2 4237   6.933   8.946   7.743  0.5908 -0.2371  0.5367
  855SOL     OW 4238   2.831   6.524   1.526 -0.0026 -0.1461  0.0216
  855SOL    HW1 4239   2.927   6.521   1.522  0.1180 -0.0429  1.9500
  855SOL    HW2 4240   2.812   6.594   1.588 -1.3712  0.3874 -0.9741
  856SOL     OW 4241   2.050   2.564   5.852 -0.1494  0.0954  1.4343
  856SOL    HW1 4242   1.985   2.495   5.867 -1.1641  0.3995 -1.0305
  856SOL    HW2 4243   2.009   2.643   5.888 -0.9170  0.1746  0.4247
  857SOL     OW 4244   1.534   3.242   2.735 -0.6826 -1.3410 -0.1317
  857SOL    HW1 4245   1.457   3.189   2.713 -1.4676  0.5328 -2.4493
  857SOL    HW2 4246   1.524   3.321   2.681  3.4714 -1.4977 -1.4693
  858SOL     OW 4247   5.380   2.103   3.087 -0.3832  0.0902  0.1933
  858SOL    HW1 4248   5.303   2.157   3.065  0.6763  1.1031 -1.2369
  858SOL    HW2 4249   5.343   2.026   3.130 -2.0733  1.2880  1.0177
  859SOL     OW 4250   3.781   1.574   0.786  0.4138  0.1006  1.1012
  859SOL    HW1 4251   3.755   1.507   0.849 -0.1026  1.0958  1.9759
  859SOL    HW2 4252   3.812   1.525   0.710 -0.0439 -1.1243  1.6834
  860SOL     OW 4253   8.487   8.601   0.131 -0.1373 -0.6463  0.0448
  860SOL    HW1 4254   8.393   8.585   0.131  0.0658 -1.9750  0.4972
  860SOL    HW2 4255   8.497   8.687   0.172 -1.2467  0.3829 -1.7155
  861SOL     OW 4256   4.323   7.465   1.567 -0.4352 -0.0101 -0.6469
  861SOL    HW1 4257   4.284   7.407   1.502  0.3559 -0.6991 -0.5186
  861SOL    HW2 4258   4.418   7.451   1.559 -0.2036  1.4371 -0.7821
  862SOL     OW 4259   2.399   4.965   3.321  0.2438  0.0749 -0.8614
  862SOL    HW1 4260   2.382   4.872   3.335 -0.5032  0.4817  1.2440
  862SOL    HW2 4261   2.478   4.966   3.266  0.2329 -1.7821 -1.0032
  863SOL     OW 4262   9.318   7.366   3.981  0.3889  0.3623 -0.1369
  863SOL    HW1 4263   9.250   7.346   3.916  0.5565 -1.3153  0.1526
  863SOL    HW2 4264   9.270   7.371   4.064  0.2988  1.6166 -0.2555
  864SOL     OW 4265   0.388   2.606   4.240 -0.0606  0.2500  0.9437
  864SOL    HW1 4266   0.410   2.684   4.292  1.5485 -0.9652  2.1677
  864SOL    HW2 4267   0.361   2.541   4.305  0.8759 -0.9431  0.1720
  865SOL     OW 4268   5.051   6.220   7.747 -0.1031  0.1671 -0.4495
  865SOL    HW1 4269   5.133   6.269   7.735 -1.1514  1.9855 -0.6610
  865SOL    HW2 4270   5.013   6.257   7.827  0.2292 -2.1136  0.8355
  866SOL     OW 4271   1.313   2.583   2.168  0.5361  0.9478  0.0948
  866SOL    HW1 4272   1.406   2.576   2.192  0.7401 -0.5102 -0.9484
  866SOL    HW2 4273   1.282   2.493   2.165 -0.7177  1.3683 -0.3533
  867SOL     OW 4274   3.706   3.887   5.837  0.3154  0.1815  0.2102
  867SOL    HW1 4275   3.644   3.850   5.900  0.5887 -0.4167  0.1405
  867SOL    HW2 4276   3.671   3.974   5.817 -0.0488  0.1789  0.7985
  868SOL     OW 4277   3.842   4.592   3.037 -0.1719  0.1531 -0.3371
  868SOL    HW1 4278   3.916   4.642   3.071  0.2388 -0.2907 -0.5666
  868SOL    HW2 4279   3.797   4.560   3.116  1.2896 -1.6249 -0.1661
  869SOL     OW 4280   7.040   2.124   7.131 -0.4974 -0.4456 -0.0997
  869SOL    HW1 4281   7.054   2.125   7.225 -1.0388 -0.5960 -0.0148
  869SOL    HW2 4282   7.080   2.042   7.102 -0.3680 -0.4190  0.0024
  870SOL     OW 4283   6.780   4.409   8.695  0.1589  0.3569  0.2608
  870SOL    HW1 4284   6.727   4.488   8.684  2.0581  1.9281  1.7874
  870SOL    HW2 4285   6.851   4.434   8.754  0.3442 -2.7447  1.5892
  871SOL     OW 4286   3.180   0.981   7.788  0.5508 -0.2345  0.2262
  871SOL    HW1 4287   3.231   1.043   7.737 -2.4758  1.1440 -1.3995
  871SOL    HW2 4288   3.209   0.895   7.757  1.5876  0.4759 -0.8745
  872SOL     OW 4289   4.167   5.905   2.366 -0.0861 -0.3025 -0.0471
  872SOL    HW1 4290   4.106   5.892   2.439 -0.0224 -0.1658  0.0331
  872SOL    HW2 4291   4.218   5.982   2.392 -0.3916  0.0475 -0.4594
  873SOL     OW 4292   2.340   9.632   6.457 -0.3501  0.3616 -0.1102
  873SOL    HW1 4293   2.348   9.675   6.371 -0.7085  0.5650 -0.0453
  873SOL    HW2 4294   2.282   9.558   6.441 -0.1635  0.2152 -0.1093
  874SOL     OW 4295   9.398   1.166   0.204 -0.2344 -0.2311 -0.0901
  874SOL    HW1 4296   9.321   1.109   0.196  0.8691 -1.6909 -0.6175
  874SOL    HW2 4297   9.434   1.172   0.116  0.5119  0.1039  0.2268
  875SOL     OW 4298   6.368   2.491   4.932 -0.0281 -0.1812  0.4582
  875SOL    HW1 4299   6.298   2.472   4.994 -0.4730 -1.1534 -0.3136
  875SOL    HW2 4300   6.332   2.558   4.875 -0.4985 -0.9682 -0.1881
  876SOL     OW 4301   9.536   3.846   6.788  0.1069 -0.5148  0.0912
  876SOL    HW1 4302   9.527   3.752   6.777 -2.2434 -0.4805  1.1325
  876SOL    HW2 4303   9.447   3.880   6.779  0.6930  1.4441  1.0875
  877SOL     OW 4304   2.981   2.023   0.840 -0.4383 -0.2536  0.3418
  877SOL    HW1 4305   3.066   2.060   0.866 -0.3133  0.0853 -0.5039
  877SOL    HW2 4306   2.957   1.965   0.911  1.4234 -1.8373 -0.2460
  878SOL     OW 4307   8.734   5.937   6.034 -0.2901 -0.3117 -0.0193
  878SOL    HW1 4308   8.689   5.858   6.004 -0.0639 -1.0252  1.4380
  878SOL    HW2 4309   8.827   5.918   6.023 -0.2516  0.5267 -1.4666
  879SOL     OW 4310   3.163   9.427   8.222  0.8695 -0.7345  0.5593
  879SOL    HW1 4311   3.154   9.460   8.133  1.5190  0.2684  0.8589
  879SOL    HW2 4312   3.236   9.476   8.260  1.0248 -1.5986  1.4399
  880SOL     OW 4313   7.223   3.751   7.574 -0.5532 -0.5013  0.2094
  880SOL    HW1 4314   7.232   3.656   7.587 -3.0026 -0.8184 -0.0867
  880SOL    HW2 4315   7.158   3.760   7.505  1.1560  1.4210 -1.2912
  881SOL     OW 4316   2.754   4.630   2.104  0.1412  0.3756  0.0719
  881SOL    HW1 4317   2.765   4.717   2.066 -1.0273  1.0548  1.1963
  881SOL    HW2 4318   2.819   4.626   2.173  0.6823  0.0635 -0.4506
  882SOL     OW 4319   6.494   5.257   7.788  0.0648 -0.0664  0.0745
  882SOL    HW1 4320   6.446   5.338   7.770 -0.7945 -0.7400 -0.7744
  882SOL    HW2 4321   6.519   5.224   7.702 -0.0263 -0.9613  0.3818
  883SOL     OW 4322   7.567   5.384   5.644  0.2099  0.0854  0.4028
  883SOL    HW1 4323   7.488   5.417   5.688  0.5624  2.1329 -0.3790
  883SOL    HW2 4324   7.582   5.446   5.573  1.6043 -1.2092 -0.4904
  884SOL     OW 4325   4.570   3.719   5.017  0.0449  0.1882  0.2321
  884SOL    HW1 4326   4.653   3.768   5.017 -1.6367  3.3664  1.7476
  884SOL    HW2 4327   4.548   3.711   5.110 -0.7280 -1.8325 -0.0914
  885SOL     OW 4328   8.240   5.577   2.522  0.1224  0.2436  0.7946
  885SOL    HW1 4329   8.218   5.537   2.438  1.4639  1.4819 -0.2228
  885SOL    HW2 4330   8.201   5.520   2.588 -0.8109 -0.8711 -0.6618
  886SOL     OW 4331   7.797   8.333   1.806 -0.4816 -0.0942  0.4084
  886SOL    HW1 4332   7.745   8.260   1.771  1.6371 -0.7847 -1.5085
  886SOL    HW2 4333   7.762   8.411   1.762 -0.9503 -0.3295  0.3586
  887SOL     OW 4334   2.663   1.734   4.792  0.3562 -0.4671  0.6136
  887SOL    HW1 4335   2.569   1.727   4.807 -0.2324  2.5142 -0.8307
  887SOL    HW2 4336   2.687   1.816   4.835  1.9851 -0.4469 -0.2723
  888SOL     OW 4337   9.662   0.174   4.463  0.3673  0.3880  0.0954
  888SOL    HW1 4338   9.649   0.263   4.495  0.9709  0.3511  0.4505
  888SOL    HW2 4339   9.753   0.172   4.433  0.3662 -0.1154  0.1159
  889SOL     OW 4340   0.191   3.408   7.440 -0.1825  0.8644  0.6884
  889SOL    HW1 4341   0.227   3.490   7.473  0.5842  1.1824 -0.8543
  889SOL    HW2 4342   0.242   3.390   7.361 -1.5618 -0.1488  0.0029
  890SOL     OW 4343   9.181   0.252   3.807 -0.3426 -0.1983  0.4599
  890SOL    HW1 4344   9.275   0.254   3.790 -0.0292  1.1457  2.1914
  890SOL    HW2 4345   9.145   0.325   3.756 -0.2579  0.0878  0.8076
  891SOL     OW 4346   6.784   4.040   9.624 -0.2647 -0.2139  0.4770
  891SOL    HW1 4347   6.878   4.031   9.609 -0.1322  0.7537  0.6280
  891SOL    HW2 4348   6.776   4.053   9.719 -0.4848  0.3518  0.3834
  892SOL     OW 4349   7.083   1.828   3.576  0.1893 -0.2704  0.0062
  892SOL    HW1 4350   7.151   1.773   3.536  0.3118 -1.0788  1.2683
  892SOL    HW2 4351   7.033   1.767   3.630 -2.2111  0.0972 -1.6700
  893SOL     OW 4352   3.902   9.193   1.674 -0.4840  0.4769  0.8787
  893SOL    HW1 4353   3.879   9.104   1.699 -0.5534 -0.8008 -3.0740
  893SOL    HW2 4354   3.996   9.200   1.690 -0.4416 -0.4114  1.0270
  894SOL     OW 4355   3.859   3.973   8.896 -0.0925  0.1714 -0.1088
  894SOL    HW1 4356   3.909   4.020   8.830  1.4160 -0.7880  0.2945
  894SOL    HW2 4357   3.828   3.895   8.850 -0.1798  0.1665 -0.0399
  895SOL     OW 4358   3.916   1.961   4.850  0.1258 -0.0417  0.1710
  895SOL    HW1 4359   3.872   2.004   4.776 -0.7302 -0.5968  0.3302
  895SOL    HW2 4360   3.961   2.031   4.896 -0.3516  0.5116 -0.1867
  896SOL     OW 4361   0.042   0.290   9.494 -0.0570  0.0507  0.3752
  896SOL    HW1 4362  -0.000   0.206   9.514 -0.4836  0.2278  0.2313
  896SOL    HW2 4363   0.085   0.275   9.410  1.2836 -0.5290  1.1390
  897SOL     OW 4364   2.328   9.474   3.282  0.5779  0.3076 -0.1717
  897SOL    HW1 4365   2.326   9.381   3.307  0.6597  0.4863  0.5211
  897SOL    HW2 4366   2.299   9.475   3.191  0.2332 -0.3642 -0.0759
  898SOL     OW 4367   3.134   2.523   4.428 -0.1734 -0.1032 -0.3572
  898SOL    HW1 4368   3.104   2.455   4.489  0.8130  0.3423  0.6760
  898SOL    HW2 4369   3.196   2.478   4.371  1.5486  0.1685  1.2154
  899SOL     OW 4370   8.023   4.397   3.678  0.4440 -0.3945  0.5322
  899SOL    HW1 4371   7.986   4.315   3.712 -0.2318 -0.3912 -0.1671
  899SOL    HW2 4372   8.030   4.454   3.754 -1.8908 -0.0602  0.5605
  900SOL     OW 4373   0.961   8.943   3.893 -0.1568 -0.1073  0.2093
  900SOL    HW1 4374   0.871   8.912   3.890  0.4693 -1.9336 -1.1359
  900SOL    HW2 4375   1.004   8.885   3.956 -0.1411  1.5208  1.7754
  901SOL     OW 4376   2.277   8.457   7.108 -0.8736  0.1606  0.6071
  901SOL    HW1 4377   2.331   8.504   7.044 -2.7391  0.8683 -0.5188
  901SOL    HW2 4378   2.257   8.374   7.065 -3.3404  1.2121 -0.4754
  902SOL     OW 4379   0.429   6.739   7.631  0.0448 -0.2073  0.3577
  902SOL    HW1 4380   0.376   6.664   7.603 -0.4441  0.2227  0.1006
  902SOL    HW2 4381   0.372   6.815   7.616  1.3740  0.4511 -1.6458
  903SOL     OW 4382   4.479   7.478   0.305 -0.1992 -0.3555 -0.4547
  903SOL    HW1 4383   4.387   7.450   0.301 -0.4246  0.4562 -3.2434
  903SOL    HW2 4384   4.476   7.560   0.355 -1.5315  1.0613 -2.6138
  904SOL     OW 4385   8.046   0.273   2.442  0.0123  0.0303  1.1787
  904SOL    HW1 4386   8.071   0.236   2.357 -2.0841  0.8495  0.1301
  904SOL    HW2 4387   8.012   0.198   2.491 -1.5654  0.0126  0.1302
  905SOL     OW 4388   4.455   0.399   6.764 -0.1124  0.2174  0.1463
  905SOL    HW1 4389   4.380   0.339   6.773  0.5047 -0.3535  1.9753
  905SOL    HW2 4390   4.451   0.454   6.842  1.3419  0.2179  0.2473
  906SOL     OW 4391   8.174   8.664   8.115 -0.3986  0.2947  0.1344
  906SOL    HW1 4392   8.172   8.569   8.130 -0.7974 -0.4399 -3.5329
  906SOL    HW2 4393   8.119   8.700   8.184 -1.4113 -2.3279  0.8509
  907SOL     OW 4394   0.849   2.954   3.868  0.5408  0.5222 -0.5473
  907SOL    HW1 4395   0.858   3.026   3.931 -1.2502  0.1910  0.1374
  907SOL    HW2 4396   0.794   2.991   3.798 -2.3696 -0.7649  0.9083
  908SOL     OW 4397   5.515   7.084   7.019  0.3486 -0.0444 -0.5696
  908SOL    HW1 4398   5.579   7.107   7.087 -0.0621  2.3088 -0.8814
  908SOL    HW2 4399   5.434   7.124   7.049 -1.1342 -3.1882 -0.0578
  909SOL     OW 4400   4.760   6.502   1.831 -0.0894 -0.0672  0.2540
  909SOL    HW1 4401   4.665   6.501   1.818 -0.2103 -0.8816  1.1666
  909SOL    HW2 4402   4.772   6.540   1.917  0.3749 -0.6250  0.4405
  910SOL     OW 4403   5.797   4.134   8.912  0.1551 -0.6478  0.5119
  910SOL    HW1 4404   5.720   4.189   8.930 -0.4843 -1.2413 -0.3566
  910SOL    HW2 4405   5.871   4.194   8.921 -0.1907 -0.4690  3.3158
  911SOL     OW 4406   8.099   0.110   2.830  0.1759  0.6632 -0.3158
  911SOL    HW1 4407   8.100   0.197   2.870 -0.8336 -0.9218  3.5576
  911SOL    HW2 4408   8.181   0.069   2.857  0.6033  0.2983 -2.0326
  912SOL     OW 4409   5.297   6.218   9.196 -0.5695 -0.4714  0.1307
  912SOL    HW1 4410   5.326   6.168   9.119  1.7022 -1.5109  1.5698
  912SOL    HW2 4411   5.234   6.162   9.239 -0.7254 -0.5296 -0.1694
  913SOL     OW 4412   0.699   0.360   8.361  0.4900 -0.1693 -0.4079
  913SOL    HW1 4413   0.677   0.399   8.445 -0.8122 -1.2213 -0.2214
  913SOL    HW2 4414   0.767   0.296   8.380 -0.0044 -0.6105 -0.0866
  914SOL     OW 4415   9.277   4.976   8.308  0.0211  0.4607 -0.0205
  914SOL    HW1 4416   9.232   5.038   8.251  0.2215  0.4258 -0.2150
  914SOL    HW2 4417   9.344   4.936   8.253 -0.4084 -0.2719 -0.0249
  915SOL     OW 4418   8.462   9.012   5.316 -0.0016  0.3191  0.0751
  915SOL    HW1 4419   8.511   8.989   5.395  0.3043 -0.6647 -0.3838
  915SOL    HW2 4420   8.519   8.987   5.244 -0.6293  0.4110 -0.4615
  916SOL     OW 4421   3.205   5.829   6.763  0.0585  0.9097  0.0526
  916SOL    HW1 4422   3.158   5.882   6.699  0.2454  0.2696 -0.6404
  916SOL    HW2 4423   3.295   5.861   6.759  0.1857  0.5081 -0.4147
  917SOL     OW 4424   1.818   6.034   1.705 -0.0336  0.0225 -0.1285
  917SOL    HW1 4425   1.794   5.981   1.782  0.7988  0.4748  0.4608
  917SOL    HW2 4426   1.911   6.050   1.716  0.2747 -0.5628 -1.6646
  918SOL     OW 4427   7.617   6.152   7.848 -0.4508 -0.1868 -0.2355
  918SOL    HW1 4428   7.563   6.075   7.828  0.0017 -0.5759  0.0286
  918SOL    HW2 4429   7.672   6.125   7.921  1.6503 -0.5533 -1.8364
  919SOL     OW 4430   8.056   5.051   3.844  0.1891  0.3749  0.1572
  919SOL    HW1 4431   7.963   5.045   3.865  0.6587 -0.8992  2.1376
  919SOL    HW2 4432   8.082   4.961   3.825  1.3962  0.4033  1.5425
  920SOL     OW 4433   6.839   7.245   8.601 -0.1452  0.2163  0.1810
  920SOL    HW1 4434   6.848   7.158   8.562 -0.6590 -0.0306  0.5987
  920SOL    HW2 4435   6.884   7.239   8.685  1.6529  0.9804 -0.6777
  921SOL     OW 4436   5.701   4.780   1.386 -0.2427  0.0675 -0.1379
  921SOL    HW1 4437   5.698   4.875   1.396  2.6884  0.0868  1.5830
  921SOL    HW2 4438   5.610   4.752   1.400 -1.3787  2.6057 -1.6194
  922SOL     OW 4439   5.031   7.731   7.615  0.5267 -0.5756 -0.4416
  922SOL    HW1 4440   5.082   7.656   7.647  0.5265 -0.5865 -0.4663
  922SOL    HW2 4441   5.028   7.791   7.689  0.1896 -0.7746 -0.2949
  923SOL     OW 4442   7.118   6.454   2.413  0.4250  0.3817 -0.2648
  923SOL    HW1 4443   7.135   6.490   2.326 -2.4004 -0.8223 -1.4247
  923SOL    HW2 4444   7.046   6.507   2.447  0.1589 -0.4355  0.4932
  924SOL     OW 4445   7.486   0.612   0.448 -0.4399 -0.0495  0.0762
  924SOL    HW1 4446   7.417   0.548   0.432  0.2873 -0.6563 -0.7712
  924SOL    HW2 4447   7.564   0.558   0.466  0.1315  0.5932 -0.4207
  925SOL     OW 4448   4.972   1.704   7.867 -0.3664  0.1661  0.5013
  925SOL    HW1 4449   5.054   1.713   7.914  0.8740 -0.3356 -1.4265
  925SOL    HW2 4450   4.980   1.620   7.821 -1.6486  0.4315 -0.2726
  926SOL     OW 4451   0.874   5.738   8.559 -0.3394 -0.1973  0.4451
  926SOL    HW1 4452   0.810   5.667   8.553 -1.3434  0.7524 -0.3138
  926SOL    HW2 4453   0.845   5.803   8.495  0.1108  1.2649  1.6630
  927SOL     OW 4454   9.037   4.474   5.003 -0.6874  0.0829  0.2553
  927SOL    HW1 4455   9.054   4.545   5.065 -0.5380 -0.0569  0.3743
  927SOL    HW2 4456   9.031   4.396   5.057  1.8154 -0.4359 -0.0940
  928SOL     OW 4457   8.721   3.372   1.275  0.7093 -0.2672  0.0189
  928SOL    HW1 4458   8.718   3.300   1.213 -1.8469  1.0206 -1.4962
  928SOL    HW2 4459   8.761   3.444   1.226  1.1848  0.0157  0.7939
  929SOL     OW 4460   7.376   1.634   6.270 -0.0688  0.5089  0.3721
  929SOL    HW1 4461   7.337   1.689   6.202  0.5582  0.4636 -0.0247
  929SOL    HW2 4462   7.321   1.555   6.271 -0.5300  0.8261  0.4403
  930SOL     OW 4463   7.071   2.119   2.251  0.1299  0.0599 -0.4714
  930SOL    HW1 4464   7.066   2.030   2.216  0.3518 -0.1730  0.0813
  930SOL    HW2 4465   7.150   2.155   2.211  0.0317  0.0174 -0.7082
  931SOL     OW 4466   0.394   3.456   7.228 -0.1382 -0.6239 -0.3852
  931SOL    HW1 4467   0.392   3.546   7.195  0.4960 -0.6194 -0.4299
  931SOL    HW2 4468   0.344   3.405   7.164  1.5607 -0.7211 -1.7140
  932SOL     OW 4469   3.772   1.947   3.288 -0.0355  0.0310  0.4857
  932SOL    HW1 4470   3.772   1.855   3.260 -1.1521 -0.8182  2.9515
  932SOL    HW2 4471   3.791   1.943   3.382  0.5410  2.4050  0.5305
  933SOL     OW 4472   4.998   2.449   0.602 -0.2826 -0.2251 -0.1320
  933SOL    HW1 4473   4.935   2.488   0.540  0.5758  2.9934  0.8615
  933SOL    HW2 4474   5.060   2.402   0.546 -1.0362  0.3429 -1.5032
  934SOL     OW 4475   4.763   6.207   6.989  0.0459 -0.0499  0.0261
  934SOL    HW1 4476   4.827   6.223   6.919 -0.5395  0.1922 -0.4533
  934SOL    HW2 4477   4.780   6.276   7.053  0.7103 -0.3841  0.2281
  935SOL     OW 4478   7.797   6.144   6.043  0.1000  0.4086 -0.0322
  935SOL    HW1 4479   7.703   6.155   6.052 -0.2636 -1.5519 -1.0383
  935SOL    HW2 4480   7.810   6.113   5.953  1.3150 -2.8596  1.1336
  936SOL     OW 4481   0.927   9.449   4.681  0.4944  0.7367 -0.1969
  936SOL    HW1 4482   1.021   9.442   4.664  1.0865  1.7248  2.3023
  936SOL    HW2 4483   0.905   9.540   4.658  0.4491  0.9024  0.4867
  937SOL     OW 4484   0.886   5.834   1.188 -0.5494  0.6601 -0.5928
  937SOL    HW1 4485   0.826   5.889   1.238 -0.6876 -0.6465  0.7810
  937SOL    HW2 4486   0.878   5.864   1.098 -1.0868  2.4214  0.0064
  938SOL     OW 4487   0.285   4.537   3.634  0.1825  0.9521 -0.2337
  938SOL    HW1 4488   0.223   4.500   3.696  2.3942 -0.5076  1.2594
  938SOL    HW2 4489   0.249   4.622   3.611 -1.8678  0.5452  1.2430
  939SOL     OW 4490   5.210   5.848   8.405 -0.1803 -0.2533 -0.4078
  939SOL    HW1 4491   5.289   5.892   8.436  1.0763 -2.2830 -0.5411
  939SOL    HW2 4492   5.175   5.906   8.337  0.7128  1.0724  0.2263
  940SOL     OW 4493   4.895   2.270   8.405  0.1179  0.9638 -0.4655
  940SOL    HW1 4494   4.917   2.197   8.348 -2.3516 -0.9531  0.8635
  940SOL    HW2 4495   4.936   2.346   8.363  0.3507 -0.6802 -3.4962
  941SOL     OW 4496   3.722   6.409   4.448  0.2043 -0.5554 -0.1606
  941SOL    HW1 4497   3.774   6.329   4.454 -1.4735 -1.6448  0.2092
  941SOL    HW2 4498   3.680   6.404   4.362  3.1547  1.9413 -1.9802
  942SOL     OW 4499   1.195   1.836   5.289  0.3413 -0.2938 -0.3899
  942SOL    HW1 4500   1.122   1.787   5.327  0.2467  2.0583  2.9461
  942SOL    HW2 4501   1.161   1.869   5.206 -1.4560 -1.3966 -0.1439
  943SOL     OW 4502   4.966   6.055   3.306 -0.2176 -0.5165 -0.2508
  943SOL    HW1 4503   4.957   6.073   3.400  0.1226  1.3544 -0.5385
  943SOL    HW2 4504   5.010   5.970   3.302 -2.2294 -1.7183  1.2395
  944SOL     OW 4505   6.611   3.400   7.248  0.0482 -0.0940  0.6719
  944SOL    HW1 4506   6.546   3.333   7.267  0.0028 -0.0802  0.5650
  944SOL    HW2 4507   6.681   3.384   7.312 -0.9193  1.1043  2.1107
  945SOL     OW 4508   6.473   4.767   4.082 -0.0511 -0.2194  0.0231
  945SOL    HW1 4509   6.431   4.838   4.130 -1.2277 -1.0603  0.2833
  945SOL    HW2 4510   6.563   4.798   4.067 -0.0751  0.6658  1.5028
  946SOL     OW 4511   7.454   3.692   5.896 -0.2884 -0.6427 -0.0164
  946SOL    HW1 4512   7.482   3.700   5.805  1.6405 -1.2546  0.4678
  946SOL    HW2 4513   7.400   3.769   5.912 -0.1112 -0.1898 -1.4825
  947SOL     OW 4514   7.874   2.853   1.009 -0.0976  0.5031  0.4211
  947SOL    HW1 4515   7.855   2.792   1.080  2.2599  0.1642  0.8438
  947SOL    HW2 4516   7.833   2.813   0.932  1.1525 -1.5554  0.7365
  948SOL     OW 4517   2.198   9.280   2.633 -0.3145  0.2325  0.0115
  948SOL    HW1 4518   2.250   9.297   2.711  1.3965 -0.6547 -0.8623
  948SOL    HW2 4519   2.115   9.245   2.666 -1.3727  3.7838  1.5453
  949SOL     OW 4520   1.775   0.479   1.298  0.0478  0.1535  0.6063
  949SOL    HW1 4521   1.777   0.574   1.310 -0.3579  0.0889  1.2541
  949SOL    HW2 4522   1.693   0.452   1.339 -1.2610 -0.1724 -2.0081
  950SOL     OW 4523   8.317   6.199   6.559  0.3970 -0.0732 -0.6417
  950SOL    HW1 4524   8.289   6.246   6.638  1.4940  0.3769 -0.4968
  950SOL    HW2 4525   8.268   6.240   6.488 -1.2182 -1.0162 -0.1322
  951SOL     OW 4526   3.097   4.409   0.358  0.1701 -0.4656  0.4373
  951SOL    HW1 4527   3.118   4.483   0.301  0.7775  2.8782  4.5657
  951SOL    HW2 4528   3.005   4.390   0.338 -0.2627  1.9705 -0.2500
  952SOL     OW 4529   3.787   6.694   6.668  0.3671 -0.0463  0.4975
  952SOL    HW1 4530   3.777   6.763   6.602  3.6132  0.4121  0.3173
  952SOL    HW2 4531   3.725   6.625   6.641  0.8135  0.5772 -2.4247
  953SOL     OW 4532   5.796   1.973   1.273 -0.4153  0.2260 -0.0215
  953SOL    HW1 4533   5.769   2.024   1.349 -1.0346  1.1832 -0.8596
  953SOL    HW2 4534   5.843   2.036   1.218  0.9843 -0.7128  0.0550
  954SOL     OW 4535   6.220   5.898   2.457  0.2214 -0.1969 -0.4781
  954SOL    HW1 4536   6.124   5.894   2.450  0.1931 -0.3688 -0.0379
  954SOL    HW2 4537   6.248   5.807   2.450  0.2727 -0.2593  0.3681
  955SOL     OW 4538   8.803   6.598   1.353 -0.0234  0.1431 -0.3865
  955SOL    HW1 4539   8.891   6.610   1.389  0.7351  1.7431 -2.5842
  955SOL    HW2 4540   8.797   6.504   1.336  0.5714 -0.2536  1.3052
  956SOL     OW 4541   3.548   7.193   9.385  0.2592 -0.3666 -0.2613
  956SOL    HW1 4542   3.585   7.108   9.408 -0.2462 -0.6309 -0.4244
  956SOL    HW2 4543   3.469   7.172   9.335 -0.5243  0.1938  0.7070
  957SOL     OW 4544   5.091   1.648   7.173  0.7090 -0.0695 -0.3629
  957SOL    HW1 4545   5.160   1.691   7.122  0.5033 -0.1725 -0.7294
  957SOL    HW2 4546   5.023   1.714   7.182  1.1471  0.2673  0.6025
  958SOL     OW 4547   4.054   7.660   0.383 -0.0848 -0.4601  0.4934
  958SOL    HW1 4548   3.987   7.600   0.414 -1.1468  1.2624  1.7416
  958SOL    HW2 4549   4.007   7.724   0.330  1.2157 -1.3873 -1.8893
  959SOL     OW 4550   8.760   5.983   6.939  0.1005 -0.0368  0.0366
  959SOL    HW1 4551   8.727   5.979   7.029 -3.4647  2.0566 -0.9873
  959SOL    HW2 4552   8.731   5.901   6.899  0.4192 -0.3406  0.4267
  960SOL     OW 4553   0.038   2.374   0.285  0.0267 -0.5257 -0.4173
  960SOL    HW1 4554  -0.038   2.426   0.262  0.8792  0.8803 -0.1832
  960SOL    HW2 4555   0.008   2.317   0.356 -0.2428  1.7206  1.4031
  961SOL     OW 4556   6.746   6.309   0.490  0.2693 -0.0860  0.2713
  961SOL    HW1 4557   6.770   6.225   0.528 -1.7379 -0.6540  0.4108
  961SOL    HW2 4558   6.750   6.370   0.564 -1.4074 -0.7394  0.9553
  962SOL     OW 4559   5.280   5.114   1.010  0.3556 -0.5124  0.1938
  962SOL    HW1 4560   5.307   5.206   1.012 -1.0188 -0.0864  1.9205
  962SOL    HW2 4561   5.356   5.066   1.041  0.2600  0.3381  1.8511
  963SOL     OW 4562   0.421   7.029   3.636 -0.1731  0.5159 -0.1974
  963SOL    HW1 4563   0.332   7.042   3.667  0.5457  0.7749  1.9184
  963SOL    HW2 4564   0.411   6.984   3.551 -2.2753  0.3600  0.0868
  964SOL     OW 4565   9.489   1.488   4.004 -0.3054  0.0158  0.6574
  964SOL    HW1 4566   9.467   1.409   4.055 -0.0170  0.3769  1.3572
  964SOL    HW2 4567   9.574   1.468   3.966  0.1056  0.2581  1.4253
  965SOL     OW 4568   4.656   0.622   0.817  0.0187  0.2351 -1.1265
  965SOL    HW1 4569   4.684   0.540   0.776  4.0321  1.0306 -0.4348
  965SOL    HW2 4570   4.641   0.599   0.909  0.7496  0.1545 -1.0181
  966SOL     OW 4571   1.281   1.025   6.138  0.1968 -0.0086 -0.3895
  966SOL    HW1 4572   1.298   0.960   6.070  0.9155 -0.0497 -0.1785
  966SOL    HW2 4573   1.257   1.104   6.090  0.2858 -0.1536 -0.6751
  967SOL     OW 4574   7.904   7.852   1.043  0.0960 -0.4144  0.0638
  967SOL    HW1 4575   7.963   7.913   1.087 -1.3399  1.8054 -0.9331
  967SOL    HW2 4576   7.963   7.791   0.998  1.5769 -0.3438  1.7576
  968SOL     OW 4577   8.938   3.268   9.240  0.0024 -0.1908 -0.5312
  968SOL    HW1 4578   8.917   3.334   9.175 -0.2995  2.1028  1.7195
  968SOL    HW2 4579   9.027   3.240   9.219  0.1637  1.0130 -1.4950
  969SOL     OW 4580   0.651   5.844   2.616 -0.6383 -0.0324  0.2634
  969SOL    HW1 4581   0.591   5.858   2.689 -1.3243 -1.8511  0.0834
  969SOL    HW2 4582   0.680   5.754   2.625  0.7189  0.2838 -0.6689
  970SOL     OW 4583   3.863   1.131   1.316 -0.0025  0.4418  0.3725
  970SOL    HW1 4584   3.877   1.219   1.283  0.4747 -0.1789 -1.1502
  970SOL    HW2 4585   3.784   1.100   1.272 -0.3908  0.2318  1.1900
  971SOL     OW 4586   6.756   5.778   6.287  0.2526 -0.3043  0.1800
  971SOL    HW1 4587   6.775   5.778   6.193 -0.0948 -1.2729  0.0991
  971SOL    HW2 4588   6.747   5.685   6.310  0.9370 -0.1059  1.2991
  972SOL     OW 4589   7.419   2.235   1.440  0.1020 -0.1494 -0.1039
  972SOL    HW1 4590   7.464   2.313   1.474 -0.0325  0.3010 -0.9254
  972SOL    HW2 4591   7.329   2.264   1.428 -0.2016 -0.7645  0.6215
  973SOL     OW 4592   5.928   4.293   4.063  0.7905  0.5552  0.2360
  973SOL    HW1 4593   5.834   4.284   4.046  0.5348  0.6967  1.5028
  973SOL    HW2 4594   5.969   4.227   4.006 -0.1665 -0.2901  0.4926
  974SOL     OW 4595   7.027   3.492   1.006  0.0167  0.5576  0.1636
  974SOL    HW1 4596   6.945   3.450   1.030 -0.1951  0.3820 -0.8276
  974SOL    HW2 4597   7.011   3.586   1.019 -0.0288  0.4609  0.8489
  975SOL     OW 4598   3.220   8.296   1.691 -0.0896  0.3017 -0.2721
  975SOL    HW1 4599   3.265   8.213   1.708 -0.0616  0.2840 -0.4314
  975SOL    HW2 4600   3.139   8.270   1.649  0.3297  0.4040 -1.1594
  976SOL     OW 4601   1.391   1.061   7.892  0.2313  0.3429  0.1871
  976SOL    HW1 4602   1.413   0.971   7.866 -1.0082  0.9964 -4.0088
  976SOL    HW2 4603   1.306   1.053   7.936  0.7394 -0.6379  1.0179
  977SOL     OW 4604   1.080   8.341   4.061  0.0333  0.3962  0.0547
  977SOL    HW1 4605   1.038   8.331   3.976 -0.7249  0.4137  0.4191
  977SOL    HW2 4606   1.046   8.269   4.114  1.2309 -0.1939  0.0655
  978SOL     OW 4607   6.074   9.175   2.639  0.3642 -0.4321  0.0773
  978SOL    HW1 4608   6.020   9.228   2.697  0.8650 -1.0828  1.1753
  978SOL    HW2 4609   6.022   9.096   2.622  0.6771 -0.7551  0.5862
  979SOL     OW 4610   0.652   1.882   3.743  0.3227 -0.1282  0.0574
  979SOL    HW1 4611   0.667   1.909   3.834  0.9256 -0.9843  0.2206
  979SOL    HW2 4612   0.567   1.837   3.746 -0.6987  1.6711 -0.2194
  980SOL     OW 4613   9.408   2.459   4.166  0.0412 -0.1285 -0.2856
  980SOL    HW1 4614   9.326   2.409   4.165 -1.2693  1.7785  1.3139
  980SOL    HW2 4615   9.412   2.502   4.081  0.2177 -1.4680 -0.9638
  981SOL     OW 4616   2.298   3.048   1.220  0.0613  0.0915 -0.0409
  981SOL    HW1 4617   2.311   3.088   1.134  0.8358 -1.5292 -0.6970
  981SOL    HW2 4618   2.361   2.977   1.224 -0.5435 -0.4006  1.5436
  982SOL     OW 4619   7.635   5.511   4.932 -0.5480  0.2744  0.4354
  982SOL    HW1 4620   7.541   5.503   4.919 -0.5590 -0.7352  0.9640
  982SOL    HW2 4621   7.648   5.484   5.023  0.4004 -1.1025 -0.0708
  983SOL     OW 4622   6.081   2.187   1.482  0.5281  0.7193  0.8098
  983SOL    HW1 4623   6.091   2.266   1.427 -1.7439  0.0735 -0.6581
  983SOL    HW2 4624   6.112   2.116   1.426  0.2500  0.2915  1.2025
  984SOL     OW 4625   8.127   9.507   1.973  0.0940 -0.3295 -0.1342
  984SOL    HW1 4626   8.203   9.542   2.020  0.1538 -0.4488 -0.1438
  984SOL    HW2 4627   8.143   9.413   1.968  0.6582 -0.1753 -1.4311
  985SOL     OW 4628   6.739   4.389   0.980 -0.4566 -0.2504  0.3378
  985SOL    HW1 4629   6.774   4.406   0.893  0.5259 -0.4741  0.6811
  985SOL    HW2 4630   6.735   4.294   0.987 -1.7536 -0.2325  0.0694
  986SOL     OW 4631   6.836   4.799   6.560  0.6725  0.5732  0.3192
  986SOL    HW1 4632   6.931   4.794   6.571  0.9926 -1.4714 -2.3920
  986SOL    HW2 4633   6.823   4.866   6.493  0.3575 -0.4011 -0.6036
  987SOL     OW 4634   3.107   6.558   9.064 -0.2518 -0.0356  0.1071
  987SOL    HW1 4635   3.185   6.614   9.066  0.1354 -0.5835  0.5871
  987SOL    HW2 4636   3.141   6.469   9.054 -0.9013 -0.1276 -1.5402
  988SOL     OW 4637   5.720   7.349   8.693  0.4221  1.3073 -0.3274
  988SOL    HW1 4638   5.789   7.346   8.759 -0.8145 -0.5184  0.9723
  988SOL    HW2 4639   5.738   7.274   8.636 -0.2152  1.1003 -0.2605
  989SOL     OW 4640   9.342   0.315   1.805 -0.3940 -0.0033 -0.6575
  989SOL    HW1 4641   9.287   0.316   1.727 -0.6217  2.7622 -0.5622
  989SOL    HW2 4642   9.386   0.230   1.803 -2.3861 -1.0751 -2.3402
  990SOL     OW 4643   5.537   8.502   4.461 -0.4163  0.1094 -0.3344
  990SOL    HW1 4644   5.489   8.544   4.532 -1.3198 -1.3162 -0.0672
  990SOL    HW2 4645   5.537   8.568   4.391 -1.0273  0.8740  0.3609
  991SOL     OW 4646   3.531   5.350   6.794 -0.2489 -0.1198  0.6833
  991SOL    HW1 4647   3.471   5.384   6.861 -1.5303 -0.5565 -0.2047
  991SOL    HW2 4648   3.476   5.295   6.739  1.0805 -0.8631  0.0675
  992SOL     OW 4649   5.516   0.327   8.166  0.0252  0.0656 -0.1594
  992SOL    HW1 4650   5.531   0.402   8.223  0.9228  0.5525 -1.0074
  992SOL    HW2 4651   5.545   0.252   8.217  1.2783  0.5466 -0.1281
  993SOL     OW 4652   4.747   4.345   8.505 -0.5417 -0.5299 -0.8422
  993SOL    HW1 4653   4.675   4.287   8.481 -0.3551 -1.2641  0.2987
  993SOL    HW2 4654   4.779   4.310   8.588  0.9137 -0.0182 -1.1603
  994SOL     OW 4655   7.180   3.689   8.112 -0.0867  0.1855 -0.3279
  994SOL    HW1 4656   7.148   3.604   8.140 -0.0924  0.7152  1.3876
  994SOL    HW2 4657   7.102   3.736   8.083 -0.0013 -0.5797 -1.9203
  995SOL     OW 4658   0.508   1.205   5.754 -0.2939 -0.4869 -0.0893
  995SOL    HW1 4659   0.484   1.264   5.825 -0.4468  0.8572 -1.2111
  995SOL    HW2 4660   0.531   1.263   5.681  1.5895 -1.7859 -0.6063
  996SOL     OW 4661   7.940   1.157   9.328  0.0292  0.4093  0.1802
  996SOL    HW1 4662   8.024   1.193   9.299  0.5119 -0.3444  0.6078
  996SOL    HW2 4663   7.899   1.123   9.248 -0.0272  1.0676 -0.0799
  997SOL     OW 4664   6.062   8.385   2.346  0.0182  0.0631 -0.1050
  997SOL    HW1 4665   5.973   8.418   2.334 -1.4479 -2.3384  2.7593
  997SOL    HW2 4666   6.069   8.312   2.284 -0.8188 -1.0187  1.0379
  998SOL     OW 4667   0.027   6.405   8.300  0.4483 -0.7110  0.6629
  998SOL    HW1 4668   0.015   6.498   8.323 -1.4218 -0.1387 -2.1337
  998SOL    HW2 4669  -0.016   6.358   8.371 -0.9452  0.7154  0.8396
  999SOL     OW 4670   8.459   6.397   4.012  0.3978  0.1777  0.2058
  999SOL    HW1 4671   8.418   6.478   4.043 -1.6207 -1.7101  2.9678
  999SOL    HW2 4672   8.388   6.350   3.967  0.8263 -1.0539  0.7694
 1000SOL     OW 4673   4.124   6.594   7.712 -0.2871 -0.2471 -0.2710
 1000SOL    HW1 4674   4.115   6.559   7.623 -1.1536 -0.2864 -0.1824
 1000SOL    HW2 4675   4.034   6.615   7.738  0.0927  0.9423  0.1304
 1001SOL     OW 4676   1.902   5.380   8.961  0.0463  0.0503 -0.0655
 1001SOL    HW1 4677   1.862   5.463   8.933 -0.0863 -0.3699 -1.1420
 1001SOL    HW2 4678   1.921   5.394   9.054 -0.6449  1.0284 -0.0492
 1002SOL     OW 4679   2.647   7.250   1.132  0.2165 -0.2632 -0.4796
 1002SOL    HW1 4680   2.707   7.194   1.083  0.9937 -0.3023  0.4939
 1002SOL    HW2 4681   2.656   7.336   1.091  1.7658 -0.0149  0.3254
 1003SOL     OW 4682   8.828   6.656   0.067 -0.0708 -0.1631 -0.2544
 1003SOL    HW1 4683   8.865   6.604  -0.005  0.8871  1.2450 -0.8194
 1003SOL    HW2 4684   8.733   6.640   0.061  0.2716 -3.8846  1.2424
 1004SOL     OW 4685   7.053   3.765   0.168 -0.6671 -0.0131  0.0185
 1004SOL    HW1 4686   6.989   3.789   0.235 -1.3201 -1.9993  0.1851
 1004SOL    HW2 4687   7.030   3.675   0.145  0.2344  0.2396 -2.0856
 1005SOL     OW 4688   3.365   0.551   3.962  0.0611  0.2663 -0.1705
 1005SOL    HW1 4689   3.430   0.613   3.928 -1.2045  1.5677 -0.3105
 1005SOL    HW2 4690   3.306   0.536   3.888  1.6908 -3.1498 -0.9941
 1006SOL     OW 4691   1.487   3.330   4.408  0.0404 -1.0902 -0.2955
 1006SOL    HW1 4692   1.575   3.295   4.395  1.0471  0.5499  1.4732
 1006SOL    HW2 4693   1.455   3.285   4.487  0.4817  0.3243  0.7266
 1007SOL     OW 4694   3.357   3.917   3.008 -0.1735 -0.3273  0.2941
 1007SOL    HW1 4695   3.273   3.871   3.015 -0.5071  0.1995 -0.1345
 1007SOL    HW2 4696   3.338   4.006   3.038  0.1024 -0.0608 -0.2995
 1008SOL     OW 4697   8.096   9.622   0.140 -0.0585 -0.4341  0.6447
 1008SOL    HW1 4698   8.116   9.662   0.225  1.2150 -2.0208  1.1439
 1008SOL    HW2 4699   8.134   9.681   0.076  0.1255  0.1228  1.2524
 1009SOL     OW 4700   8.259   8.383   7.376 -0.4323 -0.0323  0.3775
 1009SOL    HW1 4701   8.189   8.434   7.336 -2.7799 -2.6791  0.8168
 1009SOL    HW2 4702   8.297   8.332   7.304 -1.3884 -1.1959  0.6668
 1010SOL     OW 4703   8.732   2.184   1.929 -0.4062  0.1490 -0.3687
 1010SOL    HW1 4704   8.695   2.267   1.900 -1.4393  0.1914  0.9704
 1010SOL    HW2 4705   8.657   2.124   1.932  0.1999 -0.6385 -0.6487
 1011SOL     OW 4706   5.182   2.968   2.676  0.0696  0.8090 -0.3002
 1011SOL    HW1 4707   5.177   2.969   2.581 -2.4369 -0.1268 -0.2666
 1011SOL    HW2 4708   5.179   2.875   2.699  0.4354  1.0303  0.6869
 1012SOL     OW 4709   7.513   7.858   3.915 -0.0984  0.0507 -0.2122
 1012SOL    HW1 4710   7.582   7.881   3.852  0.0380 -1.3251 -0.5945
 1012SOL    HW2 4711   7.432   7.860   3.863 -0.1171 -0.0558 -0.1873
 1013SOL     OW 4712   2.048   1.929   9.673  0.1678  0.7891  0.1396
 1013SOL    HW1 4713   2.069   1.836   9.677 -0.3499  0.6582 -0.0663
 1013SOL    HW2 4714   1.952   1.932   9.675  0.1913  1.3509  0.8060
 1014SOL     OW 4715   6.780   9.245   5.650  0.4530  0.0576 -0.0763
 1014SOL    HW1 4716   6.710   9.241   5.585  2.7672 -1.1961 -2.6553
 1014SOL    HW2 4717   6.812   9.155   5.656  3.1465  0.9249 -0.5169
 1015SOL     OW 4718   2.352   5.788   9.165 -0.2167 -0.6776 -0.3943
 1015SOL    HW1 4719   2.309   5.703   9.174 -1.0352 -0.2517 -0.2745
 1015SOL    HW2 4720   2.306   5.846   9.226 -0.0344  0.0007 -0.8884
 1016SOL     OW 4721   2.737   5.865   2.278 -0.3994 -0.1646 -0.5956
 1016SOL    HW1 4722   2.821   5.894   2.244 -0.8339  2.0899  0.1178
 1016SOL    HW2 4723   2.758   5.819   2.360  0.1400  0.3081 -0.4691
 1017SOL     OW 4724   4.497   1.522   8.352  0.3948 -0.0753  0.0602
 1017SOL    HW1 4725   4.403   1.508   8.359  0.2146  0.9867 -0.0157
 1017SOL    HW2 4726   4.510   1.560   8.266  0.9931 -0.8717 -0.2184
 1018SOL     OW 4727   3.868   1.641   6.829  0.8905 -0.0034  0.0515
 1018SOL    HW1 4728   3.784   1.596   6.823  1.0413 -0.3400  0.4663
 1018SOL    HW2 4729   3.860   1.713   6.766  0.0158  0.4066  0.6000
 1019SOL     OW 4730   8.792   0.309   0.047  0.1292 -0.3567 -0.2387
 1019SOL    HW1 4731   8.708   0.336   0.010  0.9634  2.7888 -0.1394
 1019SOL    HW2 4732   8.774   0.227   0.092 -2.8600  0.1524 -0.3501
 1020SOL     OW 4733   2.371   1.537   0.884  0.3768  0.1273  0.8299
 1020SOL    HW1 4734   2.309   1.478   0.843 -0.1767  0.4843  1.1398
 1020SOL    HW2 4735   2.456   1.510   0.850  0.0790 -0.5227  0.5925
 1021SOL     OW 4736   8.747   1.659   0.829 -0.2261 -0.2845  0.0296
 1021SOL    HW1 4737   8.843   1.658   0.824 -0.1520  1.8377  0.1868
 1021SOL    HW2 4738   8.725   1.582   0.881  1.6059  0.7004  2.4553
 1022SOL     OW 4739   3.506   3.781   7.704  0.1441 -0.4622 -0.5613
 1022SOL    HW1 4740   3.578   3.765   7.764 -0.9513  2.5145  1.7726
 1022SOL    HW2 4741   3.547   3.811   7.623  1.5364  0.4527  0.4682
 1023SOL     OW 4742   1.365   8.146   0.411  0.2246 -0.3031  0.4245
 1023SOL    HW1 4743   1.282   8.098   0.407  0.8585 -1.4194  0.4010
 1023SOL    HW2 4744   1.414   8.104   0.482  0.1123  1.4695  1.6226
 1024SOL     OW 4745   6.297   7.789   7.347 -0.3666  0.7525 -0.5372
 1024SOL    HW1 4746   6.273   7.848   7.418 -1.1454  0.7143 -0.7525
 1024SOL    HW2 4747   6.279   7.702   7.381  0.2461  0.6700 -0.4191
 1025SOL     OW 4748   9.602   7.017   6.940 -0.5466  0.2437  0.1877
 1025SOL    HW1 4749   9.662   6.959   6.893 -0.1024  0.7696  0.1001
 1025SOL    HW2 4750   9.602   7.098   6.889 -1.2291  0.2969  0.2638
 1026SOL     OW 4751   3.752   1.905   5.156  0.7313  0.0401  0.3762
 1026SOL    HW1 4752   3.840   1.889   5.121  0.5515 -0.1267 -0.0115
 1026SOL    HW2 4753   3.766   1.926   5.248  1.3276  1.6759 -0.0560
 1027SOL     OW 4754   4.595   3.546   1.486 -0.7368  0.2031 -0.6242
 1027SOL    HW1 4755   4.581   3.636   1.457  1.0011  1.2965  1.5348
 1027SOL    HW2 4756   4.675   3.519   1.441 -0.4456  0.3149 -0.1876
 1028SOL     OW 4757   8.072   6.987   3.877 -0.8378  0.3508 -0.0530
 1028SOL    HW1 4758   8.145   6.936   3.839  0.7513  1.2625  1.6336
 1028SOL    HW2 4759   8.008   6.921   3.902  0.1954 -0.6563  0.0552
 1029SOL     OW 4760   2.855   3.405   6.533  0.5903 -0.0511 -0.4681
 1029SOL    HW1 4761   2.936   3.449   6.559  1.5455 -1.7129 -0.4516
 1029SOL    HW2 4762   2.826   3.360   6.612  0.3581 -0.4923 -0.7987
 1030SOL     OW 4763   5.728   6.158   8.454  0.5915 -0.3308  0.2782
 1030SOL    HW1 4764   5.666   6.143   8.526  2.0934 -1.2736  1.4446
 1030SOL    HW2 4765   5.713   6.086   8.393  0.2335 -0.3005  0.3321
 1031SOL     OW 4766   5.044   8.137   4.589 -0.0687  0.0270  0.0517
 1031SOL    HW1 4767   5.119   8.191   4.561 -1.1658  1.4557 -0.2780
 1031SOL    HW2 4768   5.027   8.166   4.679  0.6463 -1.3496  0.6646
 1032SOL     OW 4769   7.375   6.953   3.444 -0.0948  0.1672 -0.0450
 1032SOL    HW1 4770   7.445   6.893   3.419 -1.9157 -2.5985  0.9575
 1032SOL    HW2 4771   7.404   6.991   3.527  1.0728  0.6731 -0.6717
 1033SOL     OW 4772   4.100   4.096   5.272  0.3364  0.7464  0.2414
 1033SOL    HW1 4773   4.050   4.017   5.289 -1.3964  1.9228  0.8455
 1033SOL    HW2 4774   4.171   4.094   5.336  1.9482 -1.5716 -1.4402
 1034SOL     OW 4775   8.681   7.258   7.623 -0.1154 -0.4413  1.1089
 1034SOL    HW1 4776   8.772   7.251   7.593 -0.4108  1.2380 -0.3221
 1034SOL    HW2 4777   8.639   7.178   7.591  0.8219 -1.1990  1.7238
 1035SOL     OW 4778   6.372   8.643   6.152  0.3032 -0.3789 -0.3935
 1035SOL    HW1 4779   6.398   8.566   6.202 -0.8180 -0.5909 -0.0933
 1035SOL    HW2 4780   6.277   8.634   6.143  0.1375  0.9981 -0.2764
 1036SOL     OW 4781   2.733   0.052   9.245 -0.1917  0.4179  0.2365
 1036SOL    HW1 4782   2.652   0.102   9.253 -0.6370 -0.3913  1.0208
 1036SOL    HW2 4783   2.794   0.111   9.202 -1.3685  0.8472 -0.9098
 1037SOL     OW 4784   2.614   7.038   1.332 -0.1670 -0.0744  0.3884
 1037SOL    HW1 4785   2.645   7.109   1.275  0.8086 -0.4273  0.4604
 1037SOL    HW2 4786   2.530   7.011   1.294  0.1242  0.1784 -0.4606
 1038SOL     OW 4787   7.053   4.655   3.388 -0.2159 -0.4768  0.1425
 1038SOL    HW1 4788   7.053   4.614   3.474  0.2472 -1.1822 -0.1778
 1038SOL    HW2 4789   7.118   4.605   3.338 -1.2709 -0.8049 -0.9491
 1039SOL     OW 4790   9.318   8.696   6.797  0.3768  0.8928  0.1072
 1039SOL    HW1 4791   9.410   8.710   6.776  0.3878  0.4735 -0.1440
 1039SOL    HW2 4792   9.271   8.757   6.740  0.5453  1.9976  1.1115
 1040SOL     OW 4793   2.406   0.031   9.497 -0.1877  0.1808  0.0710
 1040SOL    HW1 4794   2.398  -0.061   9.521 -0.9694  0.2819  0.2329
 1040SOL    HW2 4795   2.320   0.054   9.461  0.2866  0.6100 -0.8089
 1041SOL     OW 4796   7.950   4.580   7.667 -0.5089 -0.1512 -0.0192
 1041SOL    HW1 4797   8.044   4.581   7.649 -0.6914  1.5155 -0.9802
 1041SOL    HW2 4798   7.929   4.487   7.675  1.0235 -0.6008 -0.8384
 1042SOL     OW 4799   0.628   8.055   0.392  0.6571  0.3647 -0.0809
 1042SOL    HW1 4800   0.691   8.000   0.440 -0.6001 -1.1715 -0.1130
 1042SOL    HW2 4801   0.625   8.017   0.304  1.7299  2.1618 -0.9489
 1043SOL     OW 4802   6.878   9.449   2.895 -0.0002 -0.1164  0.3342
 1043SOL    HW1 4803   6.831   9.488   2.968 -1.2623  0.4183 -0.7127
 1043SOL    HW2 4804   6.921   9.523   2.852  0.9397 -0.4608  0.6606
 1044SOL     OW 4805   8.124   0.601   1.582  0.0161 -0.2176  0.5535
 1044SOL    HW1 4806   8.029   0.601   1.594 -0.0087 -2.6656  0.7385
 1044SOL    HW2 4807   8.147   0.694   1.579 -2.8487  0.6602 -3.4191
 1045SOL     OW 4808   4.595   8.750   1.568 -0.5965 -0.0504 -0.0421
 1045SOL    HW1 4809   4.670   8.773   1.623 -1.1895  0.6316  0.4943
 1045SOL    HW2 4810   4.597   8.654   1.565  0.9626 -0.0246 -0.9956
 1046SOL     OW 4811   6.522   3.595   5.903 -0.5310  0.2661 -0.0068
 1046SOL    HW1 4812   6.429   3.609   5.887 -1.0286 -2.0370  0.5336
 1046SOL    HW2 4813   6.536   3.632   5.990 -1.4369 -1.0458  0.7435
 1047SOL     OW 4814   1.312   5.743   4.845 -0.5666 -0.3846 -0.1005
 1047SOL    HW1 4815   1.304   5.701   4.759 -0.6238 -0.7753  0.0940
 1047SOL    HW2 4816   1.274   5.680   4.906 -2.9079  0.9543 -0.0606
 1048SOL     OW 4817   1.414   7.821   9.362 -0.2327  0.2399  0.3399
 1048SOL    HW1 4818   1.436   7.876   9.437 -0.8466  1.1186 -0.1055
 1048SOL    HW2 4819   1.411   7.881   9.287  2.0291 -0.8677 -0.7310
 1049SOL     OW 4820   2.813   6.591   5.865  0.0274  0.1354 -0.2742
 1049SOL    HW1 4821   2.907   6.573   5.859 -0.1673 -0.5164 -1.8668
 1049SOL    HW2 4822   2.808   6.670   5.918  1.6614  1.6073 -2.1520
 1050SOL     OW 4823   5.260   3.669   2.159 -0.3798 -0.0713 -0.9356
 1050SOL    HW1 4824   5.264   3.614   2.237 -2.1660  1.2942  0.1917
 1050SOL    HW2 4825   5.169   3.663   2.130 -0.0194  0.3903 -2.2139
 1051SOL     OW 4826   0.695   2.978   2.628 -0.7442  0.9211 -0.3776
 1051SOL    HW1 4827   0.767   2.922   2.599  1.6048  2.7435  1.5379
 1051SOL    HW2 4828   0.702   3.057   2.576 -1.1340  1.2810  0.1077
 1052SOL     OW 4829   1.732   1.576   1.923 -0.4701  0.5402  0.6006
 1052SOL    HW1 4830   1.770   1.625   1.850 -0.6328 -0.6910 -0.3360
 1052SOL    HW2 4831   1.644   1.552   1.893  0.1634 -1.6941  0.3410
 1053SOL     OW 4832   4.994   7.446   7.429  0.0751 -0.1088  0.3424
 1053SOL    HW1 4833   4.963   7.403   7.350  0.1272  1.0700 -0.3425
 1053SOL    HW2 4834   4.961   7.536   7.422 -0.4729 -0.1395  1.9739
 1054SOL     OW 4835   3.709   0.188   1.111  0.0060 -0.4343 -0.0163
 1054SOL    HW1 4836   3.674   0.176   1.199 -0.8809 -1.1568 -0.4342
 1054SOL    HW2 4837   3.646   0.247   1.069  0.4152 -0.1062 -0.1637
 1055SOL     OW 4838   1.489   9.197   7.826  0.1546  0.6292  0.2544
 1055SOL    HW1 4839   1.525   9.191   7.738 -0.4187 -1.0233  0.1186
 1055SOL    HW2 4840   1.561   9.233   7.878  0.9472  0.3380 -0.6175
 1056SOL     OW 4841   8.582   6.984   6.961 -0.3017 -0.3303 -0.3520
 1056SOL    HW1 4842   8.619   6.966   6.875 -0.4198 -0.1251 -0.4467
 1056SOL    HW2 4843   8.581   7.080   6.967  0.7696 -0.3420  0.3346
 1057SOL     OW 4844   3.506   4.315   0.353 -0.1087  0.1354  0.1189
 1057SOL    HW1 4845   3.454   4.265   0.416  0.0678 -2.6584 -1.7408
 1057SOL    HW2 4846   3.446   4.380   0.317 -1.2835 -0.6890  0.5395
 1058SOL     OW 4847   1.399   8.974   1.588  0.7406  0.2179 -0.7557
 1058SOL    HW1 4848   1.422   8.911   1.656  0.7770  1.1482  0.1103
 1058SOL    HW2 4849   1.462   9.046   1.599 -0.2132  1.0753 -0.7690
 1059SOL     OW 4850   8.649   6.909   8.286 -0.1881  0.4573  0.3721
 1059SOL    HW1 4851   8.584   6.970   8.252 -1.1352 -1.1273 -0.7795
 1059SOL    HW2 4852   8.674   6.855   8.211  1.6932  0.3218  1.0318
 1060SOL     OW 4853   2.982   3.077   8.529  0.2350 -0.1976  0.0204
 1060SOL    HW1 4854   2.917   3.007   8.541  0.7476 -0.5271  0.9701
 1060SOL    HW2 4855   3.029   3.080   8.612  2.2040 -0.7243 -1.0040
 1061SOL     OW 4856   1.103   0.749   0.296  0.2277  0.1175  0.6607
 1061SOL    HW1 4857   1.150   0.832   0.293  1.3738 -0.5374 -0.1809
 1061SOL    HW2 4858   1.132   0.708   0.377  0.8276 -0.1115  0.3365
 1062SOL     OW 4859   4.643   3.301   7.082  0.0705  0.8498 -0.0418
 1062SOL    HW1 4860   4.732   3.333   7.065  0.4645  0.6764  1.5240
 1062SOL    HW2 4861   4.632   3.310   7.177 -0.1868 -2.6093  0.3750
 1063SOL     OW 4862   1.490   0.514   8.790 -0.3926 -0.1352 -0.0168
 1063SOL    HW1 4863   1.576   0.556   8.795  0.1676 -1.0343 -1.3920
 1063SOL    HW2 4864   1.441   0.568   8.727 -0.5368 -0.1032  0.1237
 1064SOL     OW 4865   0.039   5.311   5.232 -0.2363 -0.2321  0.6591
 1064SOL    HW1 4866   0.066   5.240   5.291 -1.0169 -0.3940  0.8245
 1064SOL    HW2 4867   0.082   5.289   5.149  0.4185 -0.3025  1.0070
 1065SOL     OW 4868   8.776   6.434   4.388 -0.1444 -0.5202 -0.0230
 1065SOL    HW1 4869   8.693   6.479   4.372 -0.1095 -0.9001 -1.3342
 1065SOL    HW2 4870   8.787   6.376   4.313  1.1057 -0.7835  0.3420
 1066SOL     OW 4871   6.913   1.105   4.141 -0.3231  0.8518 -0.1002
 1066SOL    HW1 4872   6.992   1.052   4.141  0.2837  1.7254 -0.3814
 1066SOL    HW2 4873   6.841   1.043   4.157  0.2843 -0.1360 -1.1040
 1067SOL     OW 4874   4.553   3.772   2.345 -0.0611 -0.2548 -0.0196
 1067SOL    HW1 4875   4.464   3.737   2.343  0.4152 -1.4709 -1.7217
 1067SOL    HW2 4876   4.608   3.702   2.310  1.2783  1.2415 -1.0935
 1068SOL     OW 4877   4.248   3.977   4.102  0.0611  0.8177  0.3027
 1068SOL    HW1 4878   4.339   3.948   4.112  0.6000  2.3097  0.0346
 1068SOL    HW2 4879   4.210   3.917   4.039  1.0264  0.4719  0.0298
 1069SOL     OW 4880   7.301   0.311   2.714 -0.8122 -0.5162 -0.1048
 1069SOL    HW1 4881   7.312   0.387   2.770  0.2944 -0.3866 -0.4633
 1069SOL    HW2 4882   7.340   0.239   2.764 -0.5635 -0.5579 -0.3530
 1070SOL     OW 4883   3.840   9.221   9.024 -0.0365 -0.1915 -0.3605
 1070SOL    HW1 4884   3.878   9.139   9.054  1.5383  1.1435  1.5315
 1070SOL    HW2 4885   3.819   9.268   9.104 -1.0920  1.2033 -1.4031
 1071SOL     OW 4886   4.349   8.060   9.345  0.1282  0.2215 -0.1565
 1071SOL    HW1 4887   4.295   8.029   9.272 -1.4529  1.9819  0.1818
 1071SOL    HW2 4888   4.300   8.034   9.423  0.5190  0.5642  0.2037
 1072SOL     OW 4889   0.220   5.756   0.774  0.0269  0.5288 -0.3246
 1072SOL    HW1 4890   0.175   5.758   0.690 -1.4143 -0.7318  0.3744
 1072SOL    HW2 4891   0.172   5.818   0.829  0.7029  1.0374 -0.2913
 1073SOL     OW 4892   9.374   3.563   7.539 -0.6846  0.1044  0.0744
 1073SOL    HW1 4893   9.383   3.631   7.473  1.5767  0.0902  0.2897
 1073SOL    HW2 4894   9.461   3.523   7.545 -1.2217 -0.9129  1.9639
 1074SOL     OW 4895   0.817   6.992   4.472  0.1281  0.6275 -0.0090
 1074SOL    HW1 4896   0.891   7.015   4.527  0.4532 -1.4113  0.4868
 1074SOL    HW2 4897   0.839   7.027   4.385  1.2350  0.8208  0.3425
 1075SOL     OW 4898   8.084   2.460   4.896  0.0936  0.1769 -0.0310
 1075SOL    HW1 4899   8.011   2.404   4.868  0.6262 -0.3023 -0.4675
 1075SOL    HW2 4900   8.121   2.494   4.815 -0.9961  2.2117  0.2368
 1076SOL     OW 4901   2.027   1.348   5.798 -0.0658 -0.6205  0.0507
 1076SOL    HW1 4902   2.061   1.415   5.856 -1.8764  0.4217 -0.0299
 1076SOL    HW2 4903   1.934   1.343   5.819 -0.8431 -0.0619 -2.8486
 1077SOL     OW 4904   3.393   3.466   6.302  0.4166  0.0636 -0.2772
 1077SOL    HW1 4905   3.478   3.430   6.277  0.1387  0.0535 -1.2524
 1077SOL    HW2 4906   3.392   3.554   6.265  0.4962  0.5350  0.8139
 1078SOL     OW 4907   1.488   1.239   7.226  0.3123 -0.7868 -0.0310
 1078SOL    HW1 4908   1.506   1.169   7.163 -2.9386 -1.6961 -0.1563
 1078SOL    HW2 4909   1.423   1.294   7.181 -0.2753 -0.0779  1.6176
 1079SOL     OW 4910   8.909   0.406   7.777 -0.1150  0.6385 -0.4999
 1079SOL    HW1 4911   8.870   0.470   7.718 -1.8443 -0.6752 -0.8538
 1079SOL    HW2 4912   8.835   0.367   7.823  1.1320  1.1831  2.1480
 1080SOL     OW 4913   8.382   1.681   8.813 -0.5970  0.2714  0.0183
 1080SOL    HW1 4914   8.315   1.651   8.752 -1.2732  0.8387  0.4633
 1080SOL    HW2 4915   8.405   1.603   8.863 -0.4630 -0.0655 -0.5568
 1081SOL     OW 4916   4.673   1.253   1.790 -0.6595  0.6903 -0.0006
 1081SOL    HW1 4917   4.713   1.306   1.859  0.8297 -0.5854  0.1761
 1081SOL    HW2 4918   4.715   1.167   1.799 -1.4739  0.0854 -1.6013
 1082SOL     OW 4919   2.972   8.084   8.256  0.2492 -0.0439  0.0273
 1082SOL    HW1 4920   2.958   8.091   8.161  0.5331 -0.0426 -0.0133
 1082SOL    HW2 4921   3.036   8.013   8.266  0.0472 -0.1992  0.2313
 1083SOL     OW 4922   1.179   0.192   4.990 -0.3123  0.3536 -0.0730
 1083SOL    HW1 4923   1.120   0.267   4.980 -0.2810  0.0851 -2.8436
 1083SOL    HW2 4924   1.126   0.116   4.966  0.6987 -0.0614 -1.0714
 1084SOL     OW 4925   0.745   6.149   4.187  0.5734 -0.0284 -0.4575
 1084SOL    HW1 4926   0.664   6.109   4.220  0.0794 -0.7035 -2.3827
 1084SOL    HW2 4927   0.812   6.083   4.202  0.3898 -0.2568 -0.6323
 1085SOL     OW 4928   8.239   9.227   6.395 -0.4000  0.0630  0.0440
 1085SOL    HW1 4929   8.267   9.273   6.316 -0.3230 -0.3489 -0.1675
 1085SOL    HW2 4930   8.259   9.135   6.379  1.7489  0.2155  1.4272
 1086SOL     OW 4931   2.626   2.250   9.329 -0.4789  0.3921  0.5576
 1086SOL    HW1 4932   2.703   2.266   9.384  0.8506  0.0447 -1.0877
 1086SOL    HW2 4933   2.561   2.214   9.388  1.1546 -0.7462  1.7700
 1087SOL     OW 4934   6.998   8.566   0.509 -0.6681  0.1646 -0.6133
 1087SOL    HW1 4935   7.072   8.518   0.544 -0.1931  1.2441 -0.0813
 1087SOL    HW2 4936   6.928   8.553   0.574  0.1576  2.0220  0.7371
 1088SOL     OW 4937   1.896   2.195   6.795 -0.6305 -0.2406 -0.1352
 1088SOL    HW1 4938   1.878   2.180   6.888  0.9137 -0.9749  0.0629
 1088SOL    HW2 4939   1.916   2.109   6.760  0.2347  0.2327 -0.8329
 1089SOL     OW 4940   3.072   8.463   4.201 -0.2869  0.3040 -0.0470
 1089SOL    HW1 4941   3.146   8.513   4.165  0.4155  1.2089  2.4071
 1089SOL    HW2 4942   2.997   8.521   4.191  0.0386  0.8383  0.4862
 1090SOL     OW 4943   6.909   1.826   1.836 -0.0994  0.4297  0.2315
 1090SOL    HW1 4944   6.866   1.889   1.895  0.0045  0.6396  0.0862
 1090SOL    HW2 4945   6.980   1.876   1.795  0.5185 -0.0137  0.7457
 1091SOL     OW 4946   8.971   1.749   2.080  0.5289 -0.4805  0.0963
 1091SOL    HW1 4947   8.999   1.665   2.043  0.3527 -0.8385  0.7525
 1091SOL    HW2 4948   8.915   1.788   2.013  1.8101 -0.1919 -0.8382
 1092SOL     OW 4949   2.679   4.179   6.392 -0.3130  0.1522  0.4528
 1092SOL    HW1 4950   2.751   4.180   6.329  0.7359 -1.5698  1.5482
 1092SOL    HW2 4951   2.689   4.096   6.439 -1.1909  1.2441  2.7165
 1093SOL     OW 4952   0.870   0.278   0.054  0.1286  0.0012 -0.8300
 1093SOL    HW1 4953   0.788   0.311   0.090  0.6661  0.6393 -0.1743
 1093SOL    HW2 4954   0.938   0.317   0.108  0.9194  0.2871 -1.9925
 1094SOL     OW 4955   0.636   7.580   4.452  0.5010 -0.0464 -0.0408
 1094SOL    HW1 4956   0.674   7.498   4.421  1.7843  0.8788 -1.0094
 1094SOL    HW2 4957   0.711   7.638   4.463 -0.4126  1.0856  0.3819
 1095SOL     OW 4958   3.818   5.745   4.921  0.5521  0.2903  0.1189
 1095SOL    HW1 4959   3.737   5.797   4.927  1.0015  1.2503 -1.4312
 1095SOL    HW2 4960   3.818   5.692   5.000 -1.4536  0.4736  0.3026
 1096SOL     OW 4961   2.821   9.037   1.592  0.2521  0.6461 -0.0827
 1096SOL    HW1 4962   2.847   9.049   1.684  1.6499  3.2742 -0.7093
 1096SOL    HW2 4963   2.726   9.029   1.595  0.2611  0.7057  1.5956
 1097SOL     OW 4964   0.067   4.347   8.913 -0.1972  0.1115 -0.1315
 1097SOL    HW1 4965   0.054   4.441   8.900  0.6468  0.0992 -1.1757
 1097SOL    HW2 4966  -0.003   4.306   8.862  1.8062  0.1208 -3.1682
 1098SOL     OW 4967   8.454   1.997   3.959  0.0527  0.0558 -0.1760
 1098SOL    HW1 4968   8.381   1.965   4.013  0.4435  0.5534  0.6808
 1098SOL    HW2 4969   8.440   2.092   3.955 -0.1353 -0.0025 -1.2274
 1099SOL     OW 4970   4.901   3.318   8.240 -0.1355 -0.1438 -0.4731
 1099SOL    HW1 4971   4.964   3.285   8.176  0.1669 -0.2127 -0.1377
 1099SOL    HW2 4972   4.948   3.385   8.289 -0.8623  1.1257 -1.4158
 1100SOL     OW 4973   4.819   2.825   5.419  0.5751 -0.0914  0.3076
 1100SOL    HW1 4974   4.852   2.901   5.466  0.8078 -0.0009  0.0011
 1100SOL    HW2 4975   4.729   2.848   5.397  0.6215  0.0678  0.2811
 1101SOL     OW 4976   8.621   1.216   0.978  0.3122  0.6333  0.0468
 1101SOL    HW1 4977   8.713   1.237   0.962  0.1445  1.1888 -0.2001
 1101SOL    HW2 4978   8.586   1.195   0.892 -0.3419  2.6282 -0.2211
 1102SOL     OW 4979   8.276   8.959   6.886  0.0789 -0.0114 -0.3887
 1102SOL    HW1 4980   8.355   9.014   6.892  1.2353 -1.6037 -0.3921
 1102SOL    HW2 4981   8.205   9.016   6.916  1.5689  0.7471  2.0373
 1103SOL     OW 4982   5.832   2.777   3.827  0.0451  0.2019 -0.0698
 1103SOL    HW1 4983   5.771   2.751   3.897  0.9879  0.3003  0.8044
 1103SOL    HW2 4984   5.806   2.866   3.804 -2.1213 -0.7876 -1.9012
 1104SOL     OW 4985   5.841   6.228   5.528 -0.3163 -0.0293  0.2796
 1104SOL    HW1 4986   5.817   6.135   5.523 -2.3479  0.4868 -0.4609
 1104SOL    HW2 4987   5.818   6.254   5.617  0.7809 -0.3481  0.6688
 1105SOL     OW 4988   9.326   3.312   4.972 -0.2500 -0.1214 -0.4674
 1105SOL    HW1 4989   9.377   3.392   4.957 -0.2399 -0.2560 -1.1900
 1105SOL    HW2 4990   9.235   3.340   4.966 -0.2440 -0.2132 -1.0043
 1106SOL     OW 4991   1.459   4.422   3.284 -0.2790 -0.3357 -0.7593
 1106SOL    HW1 4992   1.367   4.430   3.309  0.1527 -0.4882  1.0857
 1106SOL    HW2 4993   1.489   4.344   3.332  1.1000  0.4425 -0.3137
 1107SOL     OW 4994   0.291   0.868   0.913  0.3830  0.0874  0.3285
 1107SOL    HW1 4995   0.241   0.795   0.879  0.9761 -0.5119  0.7088
 1107SOL    HW2 4996   0.327   0.911   0.835 -0.7200  0.5376  0.0556
 1108SOL     OW 4997   0.794   7.401   8.926 -0.3171 -0.1106 -0.1668
 1108SOL    HW1 4998   0.706   7.373   8.949  0.1996 -0.2345  1.9321
 1108SOL    HW2 4999   0.810   7.478   8.981  2.1144 -2.2022  2.3737
 1109SOL     OW 5000   3.191   8.104   4.259 -0.6898  0.0013  0.3466
 1109SOL    HW1 5001   3.283   8.115   4.283 -0.1564 -0.7693 -1.2232
 1109SOL    HW2 5002   3.170   8.181   4.206 -1.2225  0.6007  1.3885
 1110SOL     OW 5003   7.248   9.073   1.441 -0.3398 -0.5417  0.6098
 1110SOL    HW1 5004   7.202   9.081   1.525 -0.9958 -0.2504  0.2351
 1110SOL    HW2 5005   7.340   9.067   1.464 -0.5466 -0.9594  1.3808
 1111SOL     OW 5006   9.339   4.583   9.163 -0.4630 -0.3397  0.0618
 1111SOL    HW1 5007   9.373   4.593   9.252  1.1978 -2.5976 -0.2258
 1111SOL    HW2 5008   9.360   4.665   9.119 -0.4132  0.4187  1.4581
 1112SOL     OW 5009   5.349   1.511   7.140  0.5800 -0.8814  0.5212
 1112SOL    HW1 5010   5.356   1.422   7.106 -2.4885 -1.0857  0.0584
 1112SOL    HW2 5011   5.260   1.515   7.177  1.3588  1.3822  2.3916
 1113SOL     OW 5012   0.051   8.106   1.352 -0.1638 -0.4209  0.1410
 1113SOL    HW1 5013   0.103   8.149   1.420  1.2514  0.8363 -1.6157
 1113SOL    HW2 5014  -0.005   8.176   1.317  1.5375 -0.0679 -2.1688
 1114SOL     OW 5015   9.081   7.210   2.521 -0.1013  0.2706 -0.2534
 1114SOL    HW1 5016   9.079   7.123   2.482 -1.9894 -0.0183  0.4170
 1114SOL    HW2 5017   9.131   7.263   2.458  2.6309 -1.6033  0.1520
 1115SOL     OW 5018   0.907   1.749   0.643 -0.4467  0.0848 -0.0406
 1115SOL    HW1 5019   0.887   1.682   0.577  0.3716  0.2761 -0.4948
 1115SOL    HW2 5020   0.968   1.707   0.703  0.1572  0.4507 -0.3904
 1116SOL     OW 5021   9.135   8.392   4.501 -0.7791 -0.3087 -0.0003
 1116SOL    HW1 5022   9.104   8.430   4.583 -1.7670  0.1390 -0.5717
 1116SOL    HW2 5023   9.096   8.305   4.499 -1.0188 -0.1972 -0.1528
 1117SOL     OW 5024   0.887   0.411   6.062  0.1597  0.0460  0.3830
 1117SOL    HW1 5025   0.831   0.475   6.106  1.4732  1.2241  0.4038
 1117SOL    HW2 5026   0.851   0.326   6.087 -1.9603  0.7609 -0.0789
 1118SOL     OW 5027   7.460   5.407   3.716  0.6817  0.9409  0.2942
 1118SOL    HW1 5028   7.433   5.406   3.808 -3.6076  0.1267 -0.7522
 1118SOL    HW2 5029   7.390   5.454   3.672  1.7523 -0.1536 -2.7975
 1119SOL     OW 5030   9.641   9.570   6.316 -0.6776  0.4616 -0.2360
 1119SOL    HW1 5031   9.622   9.577   6.222  1.5990  1.7479 -0.6463
 1119SOL    HW2 5032   9.727   9.609   6.327 -0.1662 -1.1181  2.1669
 1120SOL     OW 5033   6.690   4.545   3.044  0.4348 -0.7068  0.0886
 1120SOL    HW1 5034   6.601   4.577   3.030  0.9026 -0.1840 -2.0672
 1120SOL    HW2 5035   6.733   4.612   3.097  0.1788  0.1854 -0.8114
 1121SOL     OW 5036   4.242   9.288   5.622 -0.1694  0.1373 -0.1248
 1121SOL    HW1 5037   4.209   9.318   5.707  1.2102 -1.2689  0.9544
 1121SOL    HW2 5038   4.164   9.269   5.571 -1.0448 -0.6097  1.4338
 1122SOL     OW 5039   6.032   8.327   8.502  0.1146  0.4617  0.1797
 1122SOL    HW1 5040   6.108   8.362   8.456 -0.4174  0.3958 -0.7712
 1122SOL    HW2 5041   5.957   8.361   8.454 -0.4520 -0.0830  0.6569
 1123SOL     OW 5042   1.649   3.219   7.341  0.1080  0.6203  0.4284
 1123SOL    HW1 5043   1.692   3.150   7.290 -0.2733 -0.2146  1.1972
 1123SOL    HW2 5044   1.631   3.178   7.426 -1.8571  1.0618  0.2641
 1124SOL     OW 5045   8.319   7.494   7.181  0.1212 -0.9239  0.3287
 1124SOL    HW1 5046   8.285   7.565   7.127  2.0972  0.1019  0.3250
 1124SOL    HW2 5047   8.268   7.499   7.262  0.2524  0.5500  0.3457
 1125SOL     OW 5048   4.976   8.484   7.682 -0.2266 -0.0049 -0.0289
 1125SOL    HW1 5049   4.946   8.553   7.622  0.5710 -0.9362 -1.5667
 1125SOL    HW2 5050   4.923   8.408   7.658  0.4262 -0.5160  0.1342
 1126SOL     OW 5051   4.498   0.450   6.036 -0.3953 -0.1933  0.5954
 1126SOL    HW1 5052   4.529   0.381   5.977  0.2221 -1.9442  2.8453
 1126SOL    HW2 5053   4.543   0.529   6.005  0.2461 -1.1257 -0.9894
 1127SOL     OW 5054   6.390   4.759   2.590  0.1717  0.3274  0.2025
 1127SOL    HW1 5055   6.480   4.726   2.588  0.0728  0.0553  0.2127
 1127SOL    HW2 5056   6.357   4.746   2.501 -0.1117 -0.2977  0.3882
 1128SOL     OW 5057   0.169   1.192   3.815  0.6552 -0.0187 -0.1582
 1128SOL    HW1 5058   0.181   1.133   3.889  0.8084 -0.2079 -0.3318
 1128SOL    HW2 5059   0.258   1.214   3.787  0.5975  0.0175 -0.3156
 1129SOL     OW 5060   0.381   6.412   2.404  0.9143  0.4187 -0.1016
 1129SOL    HW1 5061   0.356   6.438   2.492  0.7928 -0.3013  0.0844
 1129SOL    HW2 5062   0.465   6.366   2.416  0.8211  0.1849 -0.3351
 1130SOL     OW 5063   5.043   9.278   2.695 -0.3260  0.0709 -0.5706
 1130SOL    HW1 5064   4.996   9.251   2.616  0.2777 -1.1101 -0.5479
 1130SOL    HW2 5065   5.021   9.211   2.760  0.0982  0.4002 -0.0834
 1131SOL     OW 5066   2.430   1.028   1.475 -0.0978 -0.2133 -0.9080
 1131SOL    HW1 5067   2.383   0.946   1.485 -0.9319  0.3168 -0.2905
 1131SOL    HW2 5068   2.506   1.020   1.532 -2.4936  1.0866  2.8773
 1132SOL     OW 5069   4.919   3.613   6.906 -0.3741 -0.3498  0.3833
 1132SOL    HW1 5070   4.937   3.691   6.958 -1.4167  0.6261 -0.6684
 1132SOL    HW2 5071   4.957   3.632   6.820 -1.6146 -0.5027 -0.2196
 1133SOL     OW 5072   8.605   7.632   4.104  0.2278 -0.4748 -0.5789
 1133SOL    HW1 5073   8.681   7.648   4.048  1.3192  1.9056  1.3718
 1133SOL    HW2 5074   8.546   7.704   4.084  1.3687  1.4420  2.3093
 1134SOL     OW 5075   8.009   8.191   9.663 -0.0100  0.3050 -0.1080
 1134SOL    HW1 5076   8.013   8.286   9.675 -1.0621  0.4171 -0.4693
 1134SOL    HW2 5077   8.058   8.176   9.582 -2.3905  0.9682 -1.7976
 1135SOL     OW 5078   3.930   0.837   1.177  0.3983 -0.0966 -0.1316
 1135SOL    HW1 5079   3.924   0.919   1.227 -0.6129 -2.0538  3.3208
 1135SOL    HW2 5080   3.958   0.772   1.242  0.3004 -2.6699 -2.4913
 1136SOL     OW 5081   8.093   9.217   5.545 -0.2375 -0.3294 -0.4378
 1136SOL    HW1 5082   8.131   9.151   5.487  0.1808 -0.4508 -0.0368
 1136SOL    HW2 5083   8.041   9.273   5.488 -1.5092 -1.6489 -0.6445
 1137SOL     OW 5084   5.699   3.124   9.307  0.0094  0.2133  0.3045
 1137SOL    HW1 5085   5.626   3.182   9.328  1.0863  0.8637  2.5455
 1137SOL    HW2 5086   5.677   3.088   9.221 -2.8860  0.4146  0.8737
 1138SOL     OW 5087   0.702   6.821   8.890 -0.1026  0.4493  0.3711
 1138SOL    HW1 5088   0.634   6.874   8.930  0.1839 -0.4709  2.1551
 1138SOL    HW2 5089   0.715   6.861   8.804 -1.0274  2.2388  1.0037
 1139SOL     OW 5090   1.738   5.749   6.311  0.2627 -0.4259  0.3200
 1139SOL    HW1 5091   1.723   5.823   6.252  1.4754 -1.5417 -1.4774
 1139SOL    HW2 5092   1.833   5.745   6.320  0.1898 -1.5982  0.6290
 1140SOL     OW 5093   4.505   9.523   1.775  0.1484 -0.1566 -0.4760
 1140SOL    HW1 5094   4.540   9.530   1.864 -0.6659 -1.9494  0.0213
 1140SOL    HW2 5095   4.487   9.430   1.763  1.1883 -0.1086 -2.9150
 1141SOL     OW 5096   5.480   3.096   2.778 -0.8154 -0.1632 -0.2639
 1141SOL    HW1 5097   5.467   3.010   2.737  0.1499 -0.7025  0.5175
 1141SOL    HW2 5098   5.574   3.113   2.767 -0.9670  0.7066 -0.2376
 1142SOL     OW 5099   5.044   5.173   4.121  0.3756 -0.2950  0.2336
 1142SOL    HW1 5100   4.959   5.142   4.092  0.8674  0.6517 -2.4481
 1142SOL    HW2 5101   5.103   5.099   4.106  0.4255 -0.2028 -0.0176
 1143SOL     OW 5102   1.876   0.958   5.669 -0.1835  0.3805  0.0722
 1143SOL    HW1 5103   1.949   0.995   5.620  0.8230 -2.1037 -0.4582
 1143SOL    HW2 5104   1.918   0.906   5.738 -1.4384 -1.0864 -0.2323
 1144SOL     OW 5105   6.644   0.682   6.938  0.2967  0.6184  0.5730
 1144SOL    HW1 5106   6.730   0.655   6.907 -0.7404 -0.9695 -1.0704
 1144SOL    HW2 5107   6.609   0.737   6.868 -1.7870 -2.4414 -1.0380
 1145SOL     OW 5108   5.573   7.771   3.941  0.0906  0.4440  0.3161
 1145SOL    HW1 5109   5.517   7.822   3.883  0.2801  0.3218  0.0214
 1145SOL    HW2 5110   5.624   7.715   3.882 -0.6854 -0.6686  0.6691
 1146SOL     OW 5111   9.062   6.547   8.772 -0.4185  0.9280 -0.1793
 1146SOL    HW1 5112   9.051   6.642   8.776  0.7947  1.0273  2.4925
 1146SOL    HW2 5113   9.156   6.533   8.778 -0.5636 -0.4610 -0.7741
 1147SOL     OW 5114   3.167   0.873   1.094  0.2549  0.0758  0.3858
 1147SOL    HW1 5115   3.082   0.854   1.055  0.4119  0.9729 -0.4276
 1147SOL    HW2 5116   3.224   0.889   1.019 -0.0893  4.8314  0.8636
 1148SOL     OW 5117   9.199   3.791   3.090  0.4246  0.1029  0.2926
 1148SOL    HW1 5118   9.197   3.859   3.023  0.5211 -0.8075 -0.6566
 1148SOL    HW2 5119   9.291   3.786   3.117  0.7383 -0.8013 -0.8683
 1149SOL     OW 5120   2.713   8.841   5.889 -0.1673  0.5167 -0.5013
 1149SOL    HW1 5121   2.649   8.912   5.899 -1.2613 -0.4987  0.0087
 1149SOL    HW2 5122   2.721   8.803   5.977 -0.3769 -0.6191 -0.9499
 1150SOL     OW 5123   3.713   6.376   6.550  0.7544 -0.6526  0.1780
 1150SOL    HW1 5124   3.707   6.281   6.537  2.3072 -0.5591 -1.6842
 1150SOL    HW2 5125   3.679   6.413   6.469  0.0526  0.4193  0.9346
 1151SOL     OW 5126   6.337   5.651   1.097 -0.8646 -0.3572 -0.0961
 1151SOL    HW1 5127   6.318   5.717   1.030 -0.1877 -1.4330 -1.3931
 1151SOL    HW2 5128   6.255   5.604   1.109 -0.1736 -2.6099 -3.0107
 1152SOL     OW 5129   3.839   3.030   1.752  1.0094 -0.0779 -0.1752
 1152SOL    HW1 5130   3.887   3.042   1.670  1.1128  0.3414 -0.0554
 1152SOL    HW2 5131   3.867   2.944   1.784 -0.1144 -0.9089 -1.3061
 1153SOL     OW 5132   6.456   3.428   4.351 -0.1706  0.1939  0.5977
 1153SOL    HW1 5133   6.485   3.341   4.323 -1.5764 -0.8502  2.1995
 1153SOL    HW2 5134   6.535   3.482   4.349  0.8545 -1.2755  0.1524
 1154SOL     OW 5135   1.202   4.548   3.346 -0.0096 -0.0629  0.5081
 1154SOL    HW1 5136   1.126   4.514   3.297 -0.7932  0.7197  1.1436
 1154SOL    HW2 5137   1.172   4.631   3.381  1.9148  1.4212 -1.1528
 1155SOL     OW 5138   6.888   7.813   0.512  0.5879 -0.3067 -0.4695
 1155SOL    HW1 5139   6.909   7.895   0.556  0.7099  0.0277 -1.1387
 1155SOL    HW2 5140   6.971   7.785   0.472  0.5716 -0.8098 -0.1647
 1156SOL     OW 5141   5.993   9.031   8.993 -0.1022 -0.1571  0.1917
 1156SOL    HW1 5142   5.937   8.956   8.972 -1.2705  1.1058 -1.3920
 1156SOL    HW2 5143   5.977   9.094   8.923 -0.4914  2.3433  2.3669
 1157SOL     OW 5144   3.760   3.465   2.337  0.1979 -0.0596 -0.7757
 1157SOL    HW1 5145   3.854   3.461   2.353  0.6340  1.4009 -2.5437
 1157SOL    HW2 5146   3.750   3.533   2.270 -2.3888  1.9250  1.3785
 1158SOL     OW 5147   2.096   0.597   5.376 -0.2627  0.0540  0.2958
 1158SOL    HW1 5148   2.103   0.503   5.394  1.1686  0.2144  0.6698
 1158SOL    HW2 5149   2.005   0.618   5.395 -0.4570 -1.1439  0.7707
 1159SOL     OW 5150   2.428   5.697   8.891  0.4091 -0.1487  0.1696
 1159SOL    HW1 5151   2.427   5.761   8.962  0.5128 -0.0994  0.1255
 1159SOL    HW2 5152   2.344   5.652   8.898  0.7899 -0.7610  0.8863
 1160SOL     OW 5153   0.524   8.856   4.781 -0.2135  0.3602  0.0862
 1160SOL    HW1 5154   0.557   8.769   4.802  0.5813  0.7189  0.3930
 1160SOL    HW2 5155   0.500   8.894   4.866  0.7714  0.9421  0.1266
 1161SOL     OW 5156   0.347   3.285   0.894  0.3256  0.2902  0.3208
 1161SOL    HW1 5157   0.317   3.194   0.888 -0.8780  0.6450  0.6461
 1161SOL    HW2 5158   0.282   3.335   0.844  1.1642  0.9327 -0.1344
 1162SOL     OW 5159   5.754   4.174   7.616  0.2031  0.0436 -0.1479
 1162SOL    HW1 5160   5.666   4.156   7.582  0.1574  1.1349 -0.6330
 1162SOL    HW2 5161   5.808   4.103   7.581 -0.7664 -1.6579  1.5532
 1163SOL     OW 5162   7.999   0.396   8.066  0.1994 -0.2895  0.6059
 1163SOL    HW1 5163   7.961   0.471   8.022  0.0665 -0.7293 -0.0469
 1163SOL    HW2 5164   8.051   0.352   7.998  0.2103 -0.8275  0.9521
 1164SOL     OW 5165   3.669   1.281   6.516 -0.0449  0.0179 -0.5598
 1164SOL    HW1 5166   3.711   1.367   6.517  0.6082 -0.2883 -1.0943
 1164SOL    HW2 5167   3.691   1.244   6.431  0.3445 -0.9914 -0.0447
 1165SOL     OW 5168   1.989   2.735   3.894  0.3679  0.2280  0.0157
 1165SOL    HW1 5169   1.928   2.776   3.956 -0.4756 -1.4058  0.3195
 1165SOL    HW2 5170   1.973   2.780   3.811 -2.4046 -1.1343 -0.2988
 1166SOL     OW 5171   9.093   5.719   7.189  0.1245 -0.3506  0.2417
 1166SOL    HW1 5172   9.069   5.726   7.097 -0.3968  0.8789  0.4509
 1166SOL    HW2 5173   9.032   5.655   7.226 -1.4691  1.1394  0.2980
 1167SOL     OW 5174   1.946   5.201   2.443  0.4938 -0.2912  0.3050
 1167SOL    HW1 5175   1.882   5.250   2.496 -0.3783 -0.4786 -0.5485
 1167SOL    HW2 5176   1.898   5.178   2.363  1.5744 -0.6342 -0.2555
 1168SOL     OW 5177   2.255   7.266   4.419  0.2497 -0.0838 -0.0425
 1168SOL    HW1 5178   2.279   7.197   4.357  0.4615 -0.4620  0.4535
 1168SOL    HW2 5179   2.282   7.347   4.376 -0.8330 -0.2287 -1.0316
 1169SOL     OW 5180   4.353   4.500   1.613 -0.0896 -0.0306 -0.8025
 1169SOL    HW1 5181   4.348   4.523   1.520 -1.5177  0.6893 -0.5666
 1169SOL    HW2 5182   4.332   4.407   1.616  0.4325 -0.1710 -1.2390
 1170SOL     OW 5183   3.519   8.180   5.009 -0.5475  0.4916 -0.3917
 1170SOL    HW1 5184   3.491   8.166   4.919  0.6801 -0.8102 -0.6084
 1170SOL    HW2 5185   3.614   8.174   5.006 -0.5202 -0.3923  1.0987
 1171SOL     OW 5186   9.476   5.574   9.604 -0.1485 -1.0700  0.0719
 1171SOL    HW1 5187   9.458   5.668   9.605 -1.7540 -1.3592 -0.2045
 1171SOL    HW2 5188   9.454   5.544   9.692 -0.9233 -1.4071 -0.2312
 1172SOL     OW 5189   7.679   5.894   9.551 -0.3258 -0.5078 -0.5750
 1172SOL    HW1 5190   7.624   5.831   9.505 -0.2198 -0.9234 -0.1377
 1172SOL    HW2 5191   7.697   5.962   9.486  0.3378 -1.3942 -1.3609
 1173SOL     OW 5192   6.863   1.540   2.974 -0.6920 -0.4530 -0.4663
 1173SOL    HW1 5193   6.940   1.596   2.971 -0.4708 -0.7949 -1.9916
 1173SOL    HW2 5194   6.816   1.559   2.892 -1.7153 -0.9614 -0.0230
 1174SOL     OW 5195   4.201   6.047   9.580 -0.2501  0.0128 -0.1603
 1174SOL    HW1 5196   4.221   6.104   9.506  1.1722 -0.6399 -0.3097
 1174SOL    HW2 5197   4.286   6.022   9.615 -0.8807  0.0038  1.4773
 1175SOL     OW 5198   0.204   6.759   4.758 -0.3034 -0.2903  0.4078
 1175SOL    HW1 5199   0.167   6.834   4.805 -1.3332 -0.2068 -0.4835
 1175SOL    HW2 5200   0.240   6.703   4.826 -3.6400 -1.2216  1.5836
 1176SOL     OW 5201   4.144   3.024   2.512  0.0737 -0.1949  0.0086
 1176SOL    HW1 5202   4.145   3.076   2.592 -0.4290  1.1228 -0.8133
 1176SOL    HW2 5203   4.109   2.939   2.539 -0.3082  0.3019  1.1324
 1177SOL     OW 5204   6.275   9.107   7.460  0.2412 -0.1447 -0.2389
 1177SOL    HW1 5205   6.270   9.181   7.399  1.2190  0.3995  0.3209
 1177SOL    HW2 5206   6.292   9.032   7.403 -1.7935 -0.1494 -0.9217
 1178SOL     OW 5207   7.980   3.324   7.494  0.3335 -0.0957 -0.2952
 1178SOL    HW1 5208   8.069   3.290   7.489 -0.0471 -1.1798  0.1684
 1178SOL    HW2 5209   7.990   3.419   7.482  1.5516 -0.1966 -0.1616
 1179SOL     OW 5210   4.481   2.382   8.443 -0.0857 -0.1687  0.8093
 1179SOL    HW1 5211   4.564   2.396   8.490  1.0164 -1.2095 -0.7223
 1179SOL    HW2 5212   4.470   2.287   8.441 -0.1713 -0.1545 -0.8599
 1180SOL     OW 5213   7.235   4.285   6.622 -0.3725  0.1033 -0.0695
 1180SOL    HW1 5214   7.262   4.362   6.572 -3.3187  1.3900  0.1799
 1180SOL    HW2 5215   7.195   4.227   6.557 -0.2798 -0.1885  0.1309
 1181SOL     OW 5216   0.536   2.071   1.166 -0.2311  0.4471  0.5230
 1181SOL    HW1 5217   0.534   2.129   1.090 -0.4727  1.5656  1.3418
 1181SOL    HW2 5218   0.488   1.993   1.139 -1.2112  1.2581 -0.1443
 1182SOL     OW 5219   1.490   0.650   5.457 -0.6084 -0.3380 -0.2414
 1182SOL    HW1 5220   1.461   0.736   5.488 -2.2908 -0.9027 -0.1467
 1182SOL    HW2 5221   1.525   0.666   5.369 -0.5291  0.4860 -0.0649
 1183SOL     OW 5222   9.137   5.461   3.341  0.1577 -0.0037 -0.2232
 1183SOL    HW1 5223   9.161   5.553   3.328  0.8684  0.0859  1.4462
 1183SOL    HW2 5224   9.067   5.463   3.405 -0.1158 -0.6164 -0.4969
 1184SOL     OW 5225   9.525   1.106   2.784 -0.7675  0.4083 -0.1279
 1184SOL    HW1 5226   9.477   1.024   2.789 -0.4327  0.2574  0.6771
 1184SOL    HW2 5227   9.617   1.079   2.778 -0.4053  0.7065  2.7741
 1185SOL     OW 5228   1.421   2.263   0.244  0.5354  0.2956 -0.1004
 1185SOL    HW1 5229   1.476   2.185   0.242  0.6067  0.3353 -2.0461
 1185SOL    HW2 5230   1.388   2.271   0.154 -1.2823  1.2372  0.5904
 1186SOL     OW 5231   3.299   6.952   9.517  0.3999 -0.0346 -0.6770
 1186SOL    HW1 5232   3.340   6.888   9.459  1.0677 -0.0219 -0.2382
 1186SOL    HW2 5233   3.340   6.937   9.602 -2.1472 -1.5424  0.3753
 1187SOL     OW 5234   2.098   0.935   1.399 -0.3400 -0.3412 -0.3823
 1187SOL    HW1 5235   2.054   1.016   1.426 -0.7693  0.4032 -3.0111
 1187SOL    HW2 5236   2.159   0.915   1.470 -0.6379  1.9600  0.5932
 1188SOL     OW 5237   1.815   7.701   3.998 -0.1513 -0.0478  0.2959
 1188SOL    HW1 5238   1.875   7.641   3.953  0.5146  0.0025  1.0970
 1188SOL    HW2 5239   1.872   7.770   4.032 -0.4646 -0.7246  2.2952
 1189SOL     OW 5240   2.937   8.800   2.128  0.3553  0.6458  0.2226
 1189SOL    HW1 5241   2.856   8.839   2.095  1.0078  1.8391 -0.0172
 1189SOL    HW2 5242   2.945   8.718   2.079 -1.1895  0.0017  0.9500
 1190SOL     OW 5243   4.692   5.211   2.477 -0.1124  0.8902 -0.1933
 1190SOL    HW1 5244   4.601   5.191   2.454 -0.1035 -0.2330  0.6571
 1190SOL    HW2 5245   4.742   5.188   2.399 -0.5414  1.4340 -0.6365
 1191SOL     OW 5246   1.931   5.368   8.620 -0.0033  0.4365 -0.3794
 1191SOL    HW1 5247   1.852   5.346   8.670  1.7155 -3.2073  1.0825
 1191SOL    HW2 5248   1.927   5.312   8.542  0.2384  1.6898 -1.3266
 1192SOL     OW 5249   9.048   6.051   9.511 -0.0626  0.0811  0.4358
 1192SOL    HW1 5250   9.013   5.993   9.579  1.5268 -1.1550  0.2491
 1192SOL    HW2 5251   9.034   6.002   9.429 -0.2982  0.7545  0.0698
 1193SOL     OW 5252   1.015   6.997   4.682  0.2525 -0.0981 -0.7706
 1193SOL    HW1 5253   0.976   6.979   4.767 -0.9193  0.9374 -1.0709
 1193SOL    HW2 5254   1.035   7.090   4.684 -0.3163  0.0567 -1.8443
 1194SOL     OW 5255   1.331   6.587   1.279 -0.1588  0.5060 -0.0194
 1194SOL    HW1 5256   1.263   6.654   1.284 -0.3441  0.2477  1.3556
 1194SOL    HW2 5257   1.361   6.590   1.188 -1.2755  1.3376 -0.3851
 1195SOL     OW 5258   4.154   3.801   7.824 -0.2453 -0.3569 -0.3781
 1195SOL    HW1 5259   4.116   3.761   7.902 -0.0271  1.3396  0.6396
 1195SOL    HW2 5260   4.239   3.834   7.854  0.7419 -1.4048 -1.8512
 1196SOL     OW 5261   0.708   5.075   1.233  0.4823 -0.2452 -0.7882
 1196SOL    HW1 5262   0.673   5.027   1.158 -3.3981 -1.2784  1.4136
 1196SOL    HW2 5263   0.681   5.165   1.218 -0.5200 -0.4950 -0.5513
 1197SOL     OW 5264   2.726   2.213   6.448  0.7893 -0.4799  0.2924
 1197SOL    HW1 5265   2.720   2.197   6.354 -1.8440  0.2610  0.2522
 1197SOL    HW2 5266   2.785   2.289   6.456  0.9910 -0.5124 -0.7526
 1198SOL     OW 5267   5.316   3.272   2.593 -0.2239 -0.3553 -0.4987
 1198SOL    HW1 5268   5.385   3.335   2.615 -1.0316  0.2074  0.5244
 1198SOL    HW2 5269   5.347   3.189   2.628  0.3651 -0.3088 -0.8969
 1199SOL     OW 5270   6.954   9.284   8.915  0.0177 -0.0539  0.0547
 1199SOL    HW1 5271   6.966   9.379   8.911 -0.9591  0.0530 -0.5841
 1199SOL    HW2 5272   6.948   9.265   9.009  3.6588  0.0067  0.4575
 1200SOL     OW 5273   3.535   6.848   6.755  0.0849  0.3344  0.0895
 1200SOL    HW1 5274   3.520   6.938   6.726  0.6688  0.2561 -0.4773
 1200SOL    HW2 5275   3.612   6.853   6.811  1.6853 -0.1447 -1.9388
 1201SOL     OW 5276   1.694   6.620   4.061 -0.2449 -0.1691  0.6605
 1201SOL    HW1 5277   1.767   6.642   4.118  0.6641 -0.1462 -0.4777
 1201SOL    HW2 5278   1.718   6.537   4.020 -0.2521  0.4626 -0.6795
 1202SOL     OW 5279   8.717   5.782   2.622  0.2015  0.6828  0.3819
 1202SOL    HW1 5280   8.698   5.781   2.529 -0.4921  1.1924  0.5142
 1202SOL    HW2 5281   8.687   5.697   2.654 -1.5477  1.3061  0.5113
 1203SOL     OW 5282   9.438   7.732   2.936 -0.6557  0.7920  0.3686
 1203SOL    HW1 5283   9.458   7.755   2.845 -0.0003  1.7239  0.7312
 1203SOL    HW2 5284   9.380   7.802   2.966 -0.0751  1.0227  0.9619
 1204SOL     OW 5285   6.141   3.196   7.012  0.1345  0.0610 -0.3345
 1204SOL    HW1 5286   6.201   3.251   6.960 -1.1347  1.2818 -0.5845
 1204SOL    HW2 5287   6.068   3.178   6.952 -0.1582 -0.6614  0.2354
 1205SOL     OW 5288   6.697   1.488   3.400 -0.0539  0.0397 -0.1407
 1205SOL    HW1 5289   6.650   1.405   3.389 -0.4787  0.0652  1.2315
 1205SOL    HW2 5290   6.646   1.535   3.466  1.3652  0.4873  0.6774
 1206SOL     OW 5291   5.330   4.526   8.704 -0.7974  0.4068  0.3468
 1206SOL    HW1 5292   5.361   4.615   8.722 -0.7100  0.9615 -2.0720
 1206SOL    HW2 5293   5.270   4.537   8.630 -0.0587 -1.6316 -0.6272
 1207SOL     OW 5294   8.281   5.923   4.790 -0.0835  0.5505  0.2811
 1207SOL    HW1 5295   8.288   5.903   4.883 -1.7315  0.7670  0.4770
 1207SOL    HW2 5296   8.362   5.889   4.752 -0.1327 -1.0671  1.5334
 1208SOL     OW 5297   0.189   7.712   2.742  0.3085 -0.1218  0.1631
 1208SOL    HW1 5298   0.229   7.799   2.742  0.7367 -0.3118  0.7966
 1208SOL    HW2 5299   0.205   7.678   2.830 -0.1926 -0.6885  0.0397
 1209SOL     OW 5300   5.561   4.395   2.735 -0.5172 -0.0752  0.5894
 1209SOL    HW1 5301   5.631   4.380   2.671 -0.3806 -1.7753  1.0752
 1209SOL    HW2 5302   5.564   4.489   2.753  1.0747  0.0185 -0.0335
 1210SOL     OW 5303   2.205   4.558   7.689 -0.3250  0.6177  0.0903
 1210SOL    HW1 5304   2.115   4.584   7.705 -1.7311 -2.0105 -2.6079
 1210SOL    HW2 5305   2.218   4.572   7.595  1.1413 -1.4684 -0.0923
 1211SOL     OW 5306   6.274   0.628   6.342  0.1923 -0.1677  0.5450
 1211SOL    HW1 5307   6.197   0.682   6.357  0.7281  0.3382  1.5880
 1211SOL    HW2 5308   6.294   0.639   6.249 -0.4077  0.4800  0.4869
 1212SOL     OW 5309   2.443   6.787   6.693 -0.5570  0.8178  0.2899
 1212SOL    HW1 5310   2.448   6.748   6.606  3.7374 -1.4599  1.2413
 1212SOL    HW2 5311   2.382   6.731   6.741 -2.3253  1.6114 -0.9321
 1213SOL     OW 5312   2.857   2.350   6.756  0.0969 -1.0882 -0.4490
 1213SOL    HW1 5313   2.851   2.261   6.722 -0.4755 -0.8502 -0.9823
 1213SOL    HW2 5314   2.865   2.405   6.679 -0.7636 -0.5782 -0.1836
 1214SOL     OW 5315   7.729   9.464   1.930 -0.0315 -0.1287 -0.4704
 1214SOL    HW1 5316   7.742   9.485   2.023  1.8391  0.8650 -0.8964
 1214SOL    HW2 5317   7.704   9.547   1.890  0.8274 -0.1648 -1.1120
 1215SOL     OW 5318   6.852   4.276   7.135 -0.3492 -0.2676  0.0102
 1215SOL    HW1 5319   6.932   4.283   7.082  0.7718 -0.1759  1.6224
 1215SOL    HW2 5320   6.818   4.365   7.138 -0.5322 -0.3066 -0.6957
 1216SOL     OW 5321   6.148   7.856   4.114 -0.3234  0.2760  0.2832
 1216SOL    HW1 5322   6.193   7.915   4.175  0.7588 -0.5741  0.3555
 1216SOL    HW2 5323   6.184   7.770   4.135  1.7331  0.1932 -2.9697
 1217SOL     OW 5324   6.357   3.272   3.787 -0.2610 -0.0995  0.4619
 1217SOL    HW1 5325   6.350   3.292   3.694  0.3959 -0.6198  0.2936
 1217SOL    HW2 5326   6.428   3.329   3.818 -2.0476  1.8833  1.1968
 1218SOL     OW 5327   7.403   3.460   5.675 -0.1252 -0.6308  0.4460
 1218SOL    HW1 5328   7.363   3.418   5.751 -2.2181  0.3993 -0.0092
 1218SOL    HW2 5329   7.351   3.539   5.661  0.4405 -0.5807 -1.8239
 1219SOL     OW 5330   2.250   5.790   6.478 -0.4412  0.1995 -0.5365
 1219SOL    HW1 5331   2.272   5.883   6.492 -1.9749  0.4231  0.7272
 1219SOL    HW2 5332   2.291   5.745   6.552 -2.3067  0.3347  0.6296
 1220SOL     OW 5333   5.878   9.300   7.730  0.1830  0.4322  0.3950
 1220SOL    HW1 5334   5.940   9.335   7.795 -0.1401  0.7261  0.5460
 1220SOL    HW2 5335   5.934   9.256   7.666  0.7602  2.4997 -0.6157
 1221SOL     OW 5336   8.671   4.297   2.117  0.6856 -0.0943 -0.1293
 1221SOL    HW1 5337   8.729   4.233   2.157  0.1567 -0.1664  0.5351
 1221SOL    HW2 5338   8.635   4.347   2.191  0.3191  0.3012 -0.5654
 1222SOL     OW 5339   2.756   4.464   3.701 -0.0788 -0.1436  0.5993
 1222SOL    HW1 5340   2.770   4.545   3.750 -0.0221 -1.0074  2.0737
 1222SOL    HW2 5341   2.728   4.493   3.614  0.5875  1.4556  0.8813
 1223SOL     OW 5342   5.218   7.278   6.950 -0.5270 -0.2848  0.0765
 1223SOL    HW1 5343   5.128   7.249   6.963 -0.2691 -1.1267  0.0575
 1223SOL    HW2 5344   5.264   7.248   7.028 -0.4092  0.8237  0.4537
 1224SOL     OW 5345   9.498   8.871   0.582 -0.1695  0.3740 -0.0542
 1224SOL    HW1 5346   9.486   8.810   0.655  0.4590  0.3787  0.0627
 1224SOL    HW2 5347   9.412   8.880   0.543 -0.6804  0.9386  1.1387
 1225SOL     OW 5348   4.406   2.633   6.822  0.1717 -0.4642 -0.2290
 1225SOL    HW1 5349   4.355   2.681   6.757 -0.5996 -0.1764  0.5839
 1225SOL    HW2 5350   4.345   2.570   6.859  0.6062 -0.6170  0.2326
 1226SOL     OW 5351   6.048   9.324   6.854 -0.2708 -0.2572  0.1361
 1226SOL    HW1 5352   6.030   9.316   6.760 -1.2212 -0.2916  0.3168
 1226SOL    HW2 5353   6.133   9.281   6.866 -0.9484 -1.8054 -0.4247
 1227SOL     OW 5354   1.875   5.770   7.654  0.2787 -0.1965  0.1930
 1227SOL    HW1 5355   1.845   5.692   7.701  1.9048 -1.0086 -0.0544
 1227SOL    HW2 5356   1.969   5.775   7.674  0.7218  0.2549 -1.7862
 1228SOL     OW 5357   0.212   8.286   1.459 -0.5161  0.4180 -0.0153
 1228SOL    HW1 5358   0.293   8.270   1.508 -0.9364  0.9813  0.8887
 1228SOL    HW2 5359   0.241   8.298   1.369  0.3375 -0.0917  0.1752
 1229SOL     OW 5360   8.629   1.396   2.092 -0.0979 -0.1493 -0.1366
 1229SOL    HW1 5361   8.714   1.356   2.075  0.2475 -0.0303  1.1891
 1229SOL    HW2 5362   8.647   1.464   2.158 -1.5034 -1.4759  1.7160
 1230SOL     OW 5363   0.209   1.832   4.906 -0.0051 -0.3846 -0.3750
 1230SOL    HW1 5364   0.263   1.754   4.891  2.4216  1.4671 -2.2228
 1230SOL    HW2 5365   0.147   1.833   4.833  0.5148 -0.1798 -0.8187
 1231SOL     OW 5366   7.999   8.704   5.984  0.5834  0.4708  0.2825
 1231SOL    HW1 5367   7.926   8.682   5.925  1.4511 -0.0251 -0.6491
 1231SOL    HW2 5368   7.957   8.728   6.066 -0.6995  1.5385 -0.6394
 1232SOL     OW 5369   4.504   3.863   7.178 -0.0064  0.0788 -0.3029
 1232SOL    HW1 5370   4.598   3.870   7.192 -0.1000  2.1971 -0.4215
 1232SOL    HW2 5371   4.495   3.799   7.107  1.3461 -0.0620 -0.3711
 1233SOL     OW 5372   0.076   7.968   1.121  0.4371  0.4136 -0.1287
 1233SOL    HW1 5373  -0.011   7.932   1.138  1.2629 -0.6950  2.2109
 1233SOL    HW2 5374   0.108   7.996   1.208  2.4244  0.7655 -0.9122
 1234SOL     OW 5375   0.992   7.441   7.674 -0.0812  0.1987 -0.0726
 1234SOL    HW1 5376   1.084   7.436   7.700 -0.1378  1.1822  0.3393
 1234SOL    HW2 5377   0.946   7.471   7.752 -0.7653 -0.2959 -0.2731
 1235SOL     OW 5378   1.251   9.271   6.338  0.0628  0.2253  0.9138
 1235SOL    HW1 5379   1.257   9.176   6.337  2.0960  0.3163  0.1922
 1235SOL    HW2 5380   1.206   9.293   6.256 -1.1999 -0.1126  1.4906
 1236SOL     OW 5381   1.519   6.888   6.574 -0.1363  0.3182 -0.1853
 1236SOL    HW1 5382   1.532   6.796   6.596 -1.6114  0.0004 -0.5240
 1236SOL    HW2 5383   1.425   6.895   6.557 -0.3193  2.2209  1.3686
 1237SOL     OW 5384   4.726   2.953   3.050  0.5989 -0.3286  1.0174
 1237SOL    HW1 5385   4.779   2.958   2.970 -0.2893 -1.2916  0.3324
 1237SOL    HW2 5386   4.784   2.982   3.120  0.9776  1.9245 -0.1499
 1238SOL     OW 5387   3.663   6.318   0.995 -0.1909  0.0832 -0.7503
 1238SOL    HW1 5388   3.577   6.359   0.995 -0.4675 -0.4535  0.5587
 1238SOL    HW2 5389   3.649   6.234   0.951 -0.0046  0.6166 -1.8516
 1239SOL     OW 5390   3.585   0.622   6.084  0.7683  0.3281  0.3065
 1239SOL    HW1 5391   3.634   0.548   6.120  1.0081 -0.5644 -1.6990
 1239SOL    HW2 5392   3.629   0.640   6.001 -0.9556  0.9578 -0.5011
 1240SOL     OW 5393   7.350   5.064   4.863  0.0010 -0.1619  0.1337
 1240SOL    HW1 5394   7.402   4.991   4.897  0.6001  0.7533  1.2753
 1240SOL    HW2 5395   7.414   5.123   4.823 -0.4184 -0.0331 -0.3569
 1241SOL     OW 5396   4.338   7.029   6.318 -0.4818 -0.7608 -0.1467
 1241SOL    HW1 5397   4.403   6.973   6.274  2.2256  1.8192  0.2016
 1241SOL    HW2 5398   4.341   7.002   6.410  1.0090  0.0253  0.0682
 1242SOL     OW 5399   6.654   3.657   7.129  0.2354  0.2842 -0.4992
 1242SOL    HW1 5400   6.624   3.663   7.038  0.3083 -0.4565 -0.5809
 1242SOL    HW2 5401   6.617   3.574   7.161  1.2295 -0.0712 -0.2431
 1243SOL     OW 5402   0.063   4.686   6.464 -0.0135 -0.1594  0.5038
 1243SOL    HW1 5403  -0.024   4.703   6.430 -0.3016 -1.0630  0.7401
 1243SOL    HW2 5404   0.104   4.630   6.398  0.1660 -0.2167  0.6622
 1244SOL     OW 5405   3.576   3.166   1.999  0.0737  0.4499  0.0775
 1244SOL    HW1 5406   3.566   3.071   1.996  2.0038  0.2255 -1.6590
 1244SOL    HW2 5407   3.568   3.193   1.908 -1.9410  2.2050  0.6939
 1245SOL     OW 5408   0.698   7.679   0.495  0.5433  0.1582  0.3859
 1245SOL    HW1 5409   0.758   7.748   0.525  0.9922 -1.3865  3.4062
 1245SOL    HW2 5410   0.629   7.678   0.561  0.5435 -2.2135  0.4273
 1246SOL     OW 5411   4.012   6.272   3.535  0.1379  0.2493  0.6012
 1246SOL    HW1 5412   3.944   6.205   3.539 -2.8077  3.0250  0.9463
 1246SOL    HW2 5413   4.055   6.267   3.621  0.4871 -1.5536  0.3764
 1247SOL     OW 5414   0.899   2.977   8.695 -0.5646 -0.3609  0.0302
 1247SOL    HW1 5415   0.900   2.956   8.788  1.1578 -3.1243 -0.4942
 1247SOL    HW2 5416   0.814   2.945   8.664 -1.4873  1.2961  0.7192
 1248SOL     OW 5417   8.018   6.162   8.030  0.5287  0.1276  0.0491
 1248SOL    HW1 5418   8.014   6.068   8.051 -1.1215  0.6593  2.6129
 1248SOL    HW2 5419   7.969   6.204   8.101 -0.3339  2.8092 -1.9864
 1249SOL     OW 5420   7.815   2.429   8.078 -0.2199  0.8071 -0.1252
 1249SOL    HW1 5421   7.745   2.386   8.128 -0.5615  0.9074 -0.5077
 1249SOL    HW2 5422   7.880   2.454   8.144  0.3561 -0.9719  0.0336
 1250SOL     OW 5423   4.200   5.644   5.467  0.2273 -0.0862 -0.0639
 1250SOL    HW1 5424   4.181   5.696   5.545  3.2477 -1.2409  1.6348
 1250SOL    HW2 5425   4.249   5.704   5.410 -1.6174  0.6349 -0.9507
 1251SOL     OW 5426   2.376   3.568   3.472  0.3441  0.1814 -0.3058
 1251SOL    HW1 5427   2.393   3.662   3.485 -1.4737  0.6638 -1.0805
 1251SOL    HW2 5428   2.453   3.525   3.507  1.8578  2.0314 -1.1884
 1252SOL     OW 5429   7.015   9.244   6.669 -0.1512  0.3224 -0.2567
 1252SOL    HW1 5430   7.096   9.206   6.635  0.3167 -0.3890  1.5318
 1252SOL    HW2 5431   7.042   9.290   6.748 -1.3217  1.1368 -0.3055
 1253SOL     OW 5432   6.642   5.222   6.063 -0.1056 -0.4528 -0.2276
 1253SOL    HW1 5433   6.684   5.258   6.142 -1.3447 -0.4464  0.4572
 1253SOL    HW2 5434   6.673   5.131   6.060  1.4943  0.0851 -0.8630
 1254SOL     OW 5435   3.164   6.421   0.171 -0.1599  0.1609 -0.0087
 1254SOL    HW1 5436   3.151   6.415   0.266 -0.6113  1.3723  0.0227
 1254SOL    HW2 5437   3.125   6.341   0.136 -1.2653  0.3673  0.7121
 1255SOL     OW 5438   1.175   6.037   6.426 -0.6069 -0.4360 -0.3228
 1255SOL    HW1 5439   1.235   6.096   6.381 -1.0049  0.3769  0.1927
 1255SOL    HW2 5440   1.196   5.950   6.392 -1.0118  0.1614 -2.1992
 1256SOL     OW 5441   0.555   7.824   4.803 -0.3903 -0.2797  0.0782
 1256SOL    HW1 5442   0.642   7.832   4.842  0.5261 -0.3014 -1.8520
 1256SOL    HW2 5443   0.566   7.854   4.713 -1.7661 -2.8273 -1.0343
 1257SOL     OW 5444   4.533   1.608   8.692  0.2035 -0.0450  0.1466
 1257SOL    HW1 5445   4.492   1.602   8.779 -2.1876 -0.4949 -0.9156
 1257SOL    HW2 5446   4.537   1.518   8.661 -0.3812  0.2263 -0.7785
 1258SOL     OW 5447   2.520   0.391   6.708 -0.0923  0.1589 -0.4635
 1258SOL    HW1 5448   2.612   0.409   6.726 -0.1851  0.5918 -0.4146
 1258SOL    HW2 5449   2.486   0.473   6.671 -1.2514  1.1057  2.4432
 1259SOL     OW 5450   6.680   8.146   3.432 -0.6293  0.6165  0.0824
 1259SOL    HW1 5451   6.681   8.066   3.483 -0.7352  0.7003  0.2149
 1259SOL    HW2 5452   6.650   8.119   3.345  0.0609  0.3837 -0.0943
 1260SOL     OW 5453   8.934   9.515   8.125 -0.3780  0.2539  0.3221
 1260SOL    HW1 5454   8.860   9.550   8.174 -2.6032 -1.2958 -1.6937
 1260SOL    HW2 5455   8.926   9.420   8.134  1.2516  0.0358 -0.1596
 1261SOL     OW 5456   6.196   8.581   3.077  0.2827  0.5884  0.1858
 1261SOL    HW1 5457   6.280   8.537   3.064  0.7264  0.8788  1.8423
 1261SOL    HW2 5458   6.130   8.516   3.054  0.9263 -0.8782  2.3075
 1262SOL     OW 5459   6.070   4.044   6.008 -0.0258 -0.1243 -0.4898
 1262SOL    HW1 5460   6.122   4.040   6.088  0.1180 -0.0357 -0.5793
 1262SOL    HW2 5461   5.982   4.015   6.035  0.5743 -2.4517 -0.7782
 1263SOL     OW 5462   0.787   3.231   5.832 -0.2238  0.3945  0.0720
 1263SOL    HW1 5463   0.785   3.311   5.885 -1.1741 -0.3856  1.2894
 1263SOL    HW2 5464   0.699   3.195   5.840  0.1621 -0.7326 -0.5265
 1264SOL     OW 5465   6.986   3.918   6.957 -0.5965 -0.7317  0.6726
 1264SOL    HW1 5466   7.068   3.877   6.926 -0.0319  1.2549 -0.6745
 1264SOL    HW2 5467   6.993   4.009   6.928 -2.4608 -0.0356  2.2293
 1265SOL     OW 5468   7.321   3.452   3.085 -0.0057 -0.5033  0.1895
 1265SOL    HW1 5469   7.388   3.384   3.080  0.0544 -0.6437  2.2195
 1265SOL    HW2 5470   7.364   3.525   3.129 -0.4013  0.4710 -0.9794
 1266SOL     OW 5471   9.360   8.345   3.615 -1.0589  0.4230 -0.1315
 1266SOL    HW1 5472   9.270   8.316   3.630 -1.0789  0.3442 -0.3986
 1266SOL    HW2 5473   9.412   8.265   3.618 -1.1107  0.3575 -0.8460
 1267SOL     OW 5474   0.312   6.422   6.357 -0.1731  0.3397 -0.2967
 1267SOL    HW1 5475   0.349   6.459   6.437  2.7052 -2.2268 -0.2679
 1267SOL    HW2 5476   0.362   6.463   6.286 -0.7598  0.5243 -0.6097
 1268SOL     OW 5477   7.796   7.062   1.552  0.0602  0.1199  0.6407
 1268SOL    HW1 5478   7.873   7.005   1.562  0.8658  0.9179 -0.7852
 1268SOL    HW2 5479   7.832   7.147   1.527 -1.2295  0.8493  1.1965
 1269SOL     OW 5480   1.975   2.204   7.611  0.5272  0.9459  0.1568
 1269SOL    HW1 5481   2.047   2.143   7.598 -0.8048 -0.6410 -0.1368
 1269SOL    HW2 5482   1.933   2.211   7.525 -1.3970 -0.4987  0.9087
 1270SOL     OW 5483   2.173   5.147   4.211 -0.0028 -0.0041  0.1091
 1270SOL    HW1 5484   2.237   5.136   4.282  0.9628 -0.7240 -0.8504
 1270SOL    HW2 5485   2.176   5.241   4.191  0.0814  0.1221  0.6773
 1271SOL     OW 5486   5.130   3.680   9.325  0.0172 -0.3829  0.4879
 1271SOL    HW1 5487   5.090   3.730   9.254 -0.7686 -1.8213 -0.1210
 1271SOL    HW2 5488   5.219   3.662   9.294 -0.1012 -0.4249  0.1706
 1272SOL     OW 5489   4.349   6.259   4.496 -0.3802  0.2298  0.0142
 1272SOL    HW1 5490   4.307   6.206   4.564 -0.3488 -0.3759 -0.4327
 1272SOL    HW2 5491   4.428   6.211   4.473  0.0390  0.8546  0.1314
 1273SOL     OW 5492   3.070   4.129   8.441  0.0129  0.0943 -0.1906
 1273SOL    HW1 5493   3.065   4.220   8.411 -1.4970 -0.0841 -0.5486
 1273SOL    HW2 5494   3.063   4.077   8.361  1.0456 -0.3597 -0.0059
 1274SOL     OW 5495   0.659   7.378   0.601  0.2598  0.2640  0.2394
 1274SOL    HW1 5496   0.659   7.326   0.521  0.5582 -0.3061  0.5951
 1274SOL    HW2 5497   0.708   7.457   0.578 -0.9699  0.8205 -0.5601
 1275SOL     OW 5498   0.469   9.195   8.576  0.4580 -0.5048  0.7616
 1275SOL    HW1 5499   0.493   9.121   8.521 -0.2596 -0.9020  0.9718
 1275SOL    HW2 5500   0.534   9.262   8.556 -1.2213  0.3757 -2.5540
 1276SOL     OW 5501   2.352   6.474   4.347 -0.3788 -0.0419  0.4643
 1276SOL    HW1 5502   2.317   6.440   4.429  0.3238  0.0801  0.8184
 1276SOL    HW2 5503   2.290   6.542   4.321 -0.3043  0.3132  1.1909
 1277SOL     OW 5504   0.772   4.218   7.334 -0.2774  0.3543 -0.2833
 1277SOL    HW1 5505   0.797   4.141   7.283  0.9766  0.3064  0.3605
 1277SOL    HW2 5506   0.740   4.184   7.417  0.0465  0.5063 -0.0913
 1278SOL     OW 5507   6.566   8.046   2.286  0.1557  0.6544 -0.1865
 1278SOL    HW1 5508   6.512   7.972   2.258 -1.9480  1.0847  2.3266
 1278SOL    HW2 5509   6.655   8.024   2.258 -0.4271 -2.7410  0.2669
 1279SOL     OW 5510   4.543   9.510   9.205  0.0090 -0.1191 -0.5291
 1279SOL    HW1 5511   4.480   9.464   9.260 -0.0368  0.6406  0.0767
 1279SOL    HW2 5512   4.627   9.469   9.225 -0.2140 -0.7865 -0.9517
 1280SOL     OW 5513   2.263   5.606   8.464 -0.1536  0.0360  0.2222
 1280SOL    HW1 5514   2.176   5.618   8.426 -0.7419 -2.5960  0.5340
 1280SOL    HW2 5515   2.272   5.678   8.527 -1.9742  0.5324 -0.0251
 1281SOL     OW 5516   7.948   3.486   4.797 -0.0366  0.3122  0.1762
 1281SOL    HW1 5517   7.986   3.557   4.744  1.2996 -0.8248 -0.4615
 1281SOL    HW2 5518   8.022   3.429   4.816 -1.0411 -0.7828  0.9016
 1282SOL     OW 5519   3.195   6.937   3.123  0.3485 -0.4064  0.0367
 1282SOL    HW1 5520   3.145   6.930   3.205  0.0253 -1.6165 -0.2421
 1282SOL    HW2 5521   3.141   6.992   3.066 -1.2448 -2.5270 -0.6300
 1283SOL     OW 5522   3.146   2.773   2.632 -0.1071 -0.2879  0.0734
 1283SOL    HW1 5523   3.161   2.708   2.564 -4.4699 -0.1551 -1.2957
 1283SOL    HW2 5524   3.084   2.732   2.692 -2.1763  2.1437 -0.2645
 1284SOL     OW 5525   4.320   7.792   1.922  0.1839  0.4546  0.0345
 1284SOL    HW1 5526   4.363   7.878   1.927  1.3801  0.0967 -2.3241
 1284SOL    HW2 5527   4.331   7.765   1.830  0.2298 -2.4028  0.7713
 1285SOL     OW 5528   1.995   8.736   2.693 -0.0359 -0.2792 -0.6747
 1285SOL    HW1 5529   2.083   8.764   2.717  0.3188 -0.2939 -1.9082
 1285SOL    HW2 5530   1.985   8.650   2.734  0.2497  0.0287  0.0557
 1286SOL     OW 5531   6.576   7.976   3.621 -0.1851  0.0179  0.2068
 1286SOL    HW1 5532   6.525   7.902   3.653  0.2177  0.1659  1.2411
 1286SOL    HW2 5533   6.629   8.003   3.696  2.7583 -1.2263 -1.2562
 1287SOL     OW 5534   0.403   6.408   8.613  0.7015 -0.5444  0.5498
 1287SOL    HW1 5535   0.391   6.463   8.535  0.6362  0.2035  1.0820
 1287SOL    HW2 5536   0.481   6.356   8.593  0.8980 -0.0972  0.1262
 1288SOL     OW 5537   2.454   8.786   5.638  0.8477  0.3000 -0.3272
 1288SOL    HW1 5538   2.545   8.764   5.659  1.0026  0.6872 -0.5920
 1288SOL    HW2 5539   2.412   8.798   5.724  0.3150 -2.6543 -0.0526
 1289SOL     OW 5540   5.767   1.604   8.460  0.1921  0.0853 -0.5536
 1289SOL    HW1 5541   5.856   1.571   8.450 -0.1971 -1.2526  0.0993
 1289SOL    HW2 5542   5.712   1.535   8.423 -0.6125  0.4574 -0.0738
 1290SOL     OW 5543   7.419   8.867   0.490 -0.2875  0.1803 -0.0838
 1290SOL    HW1 5544   7.487   8.877   0.557  0.7735 -0.7445 -0.9796
 1290SOL    HW2 5545   7.337   8.874   0.538  0.4382 -0.9906  1.4337
 1291SOL     OW 5546   8.711   5.466   8.316  0.3457  0.3117  0.4515
 1291SOL    HW1 5547   8.664   5.524   8.257  1.9922  0.9710 -0.2396
 1291SOL    HW2 5548   8.728   5.519   8.394 -3.2516 -1.0029  2.3905
 1292SOL     OW 5549   5.736   5.857   1.784 -0.3453  0.4445 -0.0283
 1292SOL    HW1 5550   5.798   5.834   1.715 -0.4811  0.2034 -0.0708
 1292SOL    HW2 5551   5.790   5.896   1.853  0.2069 -1.7811  0.8987
 1293SOL     OW 5552   6.169   2.977   0.809  0.2226  0.2345 -0.1074
 1293SOL    HW1 5553   6.190   3.061   0.770  2.9227 -0.6287 -0.7459
 1293SOL    HW2 5554   6.168   2.994   0.903 -0.7842  1.2437 -0.2817
 1294SOL     OW 5555   5.330   5.447   4.558  0.6743 -0.5862 -0.3982
 1294SOL    HW1 5556   5.320   5.352   4.561  0.4997 -0.5425  1.0619
 1294SOL    HW2 5557   5.281   5.474   4.480 -1.7507 -1.4287  0.7205
 1295SOL     OW 5558   6.911   2.214   4.539  0.0284 -0.0821  0.1864
 1295SOL    HW1 5559   6.899   2.127   4.577  0.4164 -0.5213 -0.6752
 1295SOL    HW2 5560   6.970   2.259   4.600  1.4406 -1.1145 -0.3600
 1296SOL     OW 5561   0.241   3.962   2.425 -0.2190 -0.3108  0.0209
 1296SOL    HW1 5562   0.250   3.909   2.505  0.0818  0.0309  0.2188
 1296SOL    HW2 5563   0.330   3.992   2.406 -0.6690  2.0017  1.2240
 1297SOL     OW 5564   4.607   0.027   7.845  0.6490  0.5768 -0.0185
 1297SOL    HW1 5565   4.540  -0.037   7.821  0.1374  1.6856 -1.6880
 1297SOL    HW2 5566   4.688  -0.024   7.848  0.2819 -0.1631 -1.4772
 1298SOL     OW 5567   4.936   2.316   9.267 -0.1261 -0.3436  0.1928
 1298SOL    HW1 5568   5.000   2.372   9.224  0.5084  0.4066  1.9987
 1298SOL    HW2 5569   4.930   2.239   9.212  2.9600 -0.8174  0.3333
 1299SOL     OW 5570   3.934   9.287   1.416 -0.0749  0.1523 -0.8415
 1299SOL    HW1 5571   3.929   9.238   1.498 -0.2370 -0.5060 -1.2426
 1299SOL    HW2 5572   3.984   9.366   1.439  0.7324 -0.4903 -0.3390
 1300SOL     OW 5573   9.136   5.046   9.216 -0.4412  0.0049  0.2951
 1300SOL    HW1 5574   9.117   4.953   9.201  1.1684 -0.6011  1.6367
 1300SOL    HW2 5575   9.145   5.083   9.128 -0.3557 -1.2830 -0.2614
 1301SOL     OW 5576   0.563   5.212   0.373 -0.3270 -0.0641 -0.0114
 1301SOL    HW1 5577   0.527   5.279   0.432  1.2759  0.6867  0.1570
 1301SOL    HW2 5578   0.638   5.254   0.331  1.4072 -2.0574  0.9123
 1302SOL     OW 5579   5.517   5.162   2.335 -0.2839 -0.0260 -0.6283
 1302SOL    HW1 5580   5.609   5.143   2.353 -0.2698  0.0157 -0.6556
 1302SOL    HW2 5581   5.515   5.184   2.242 -0.2793  0.2343 -0.5674
 1303SOL     OW 5582   9.105   4.346   2.892 -0.5045  0.1713 -0.3356
 1303SOL    HW1 5583   9.036   4.373   2.953  1.1031 -1.6859  2.4971
 1303SOL    HW2 5584   9.169   4.417   2.894 -1.1578  0.8011 -1.1036
 1304SOL     OW 5585   5.272   0.391   6.631 -0.4676  0.1094 -0.1432
 1304SOL    HW1 5586   5.230   0.429   6.708 -0.9129 -1.8944  0.6533
 1304SOL    HW2 5587   5.202   0.349   6.582  0.0698 -0.1132 -0.7480
 1305SOL     OW 5588   2.612   5.795   0.343  0.4885  0.0859  0.0528
 1305SOL    HW1 5589   2.592   5.702   0.354  2.6406 -0.4148  0.1765
 1305SOL    HW2 5590   2.536   5.840   0.380 -1.4018 -1.5662 -1.5286
 1306SOL     OW 5591   1.196   5.316   6.206 -0.5242 -0.3055  0.0795
 1306SOL    HW1 5592   1.172   5.254   6.137 -0.2499 -1.4186  0.9587
 1306SOL    HW2 5593   1.156   5.280   6.285  0.0962  0.3625  0.7084
 1307SOL     OW 5594   1.316   6.345   8.625 -1.0227 -0.0562 -0.2062
 1307SOL    HW1 5595   1.260   6.310   8.556  1.0004 -0.9625 -1.4940
 1307SOL    HW2 5596   1.399   6.364   8.581 -0.9658  3.4951  1.0838
 1308SOL     OW 5597   3.355   2.628   3.664 -0.1172 -0.3588  0.2885
 1308SOL    HW1 5598   3.365   2.723   3.664 -0.2334 -0.3366 -0.4561
 1308SOL    HW2 5599   3.417   2.598   3.597 -1.1154 -0.6819 -0.5154
 1309SOL     OW 5600   4.004   0.326   1.787 -0.0119 -0.0732 -0.5354
 1309SOL    HW1 5601   4.094   0.300   1.768 -0.0780 -0.3646 -0.4558
 1309SOL    HW2 5602   3.956   0.243   1.795 -0.2427  0.0752 -0.3672
 1310SOL     OW 5603   4.294   2.828   8.505 -0.0748 -0.1235  0.0668
 1310SOL    HW1 5604   4.273   2.843   8.597  1.1675 -1.0276  0.5385
 1310SOL    HW2 5605   4.264   2.739   8.488 -1.7118  0.5776 -0.8765
 1311SOL     OW 5606   2.724   1.119   8.197 -0.3698 -0.0825  0.4771
 1311SOL    HW1 5607   2.681   1.056   8.256 -1.2055 -0.2282 -0.2631
 1311SOL    HW2 5608   2.652   1.172   8.163 -0.2219 -1.3341 -2.0178
 1312SOL     OW 5609   2.147   7.067   1.034  0.1151 -0.0771  0.3496
 1312SOL    HW1 5610   2.053   7.081   1.043  0.3685  0.4350  2.9497
 1312SOL    HW2 5611   2.169   7.006   1.104  1.6661 -0.5993 -0.5393
 1313SOL     OW 5612   2.415   2.482   3.909  0.2571  0.5371 -0.5968
 1313SOL    HW1 5613   2.339   2.522   3.952  0.5286  0.7028 -0.2721
 1313SOL    HW2 5614   2.451   2.551   3.854  0.6903  0.7265 -0.0814
 1314SOL     OW 5615   3.704   8.196   0.085 -0.2502 -0.6727  1.0913
 1314SOL    HW1 5616   3.635   8.163   0.143 -0.9314 -0.1457  0.5889
 1314SOL    HW2 5617   3.675   8.172  -0.003  0.1661 -0.3760  0.8702
 1315SOL     OW 5618   5.997   6.108   0.948 -0.3107 -0.4277 -0.2139
 1315SOL    HW1 5619   5.952   6.161   0.883  3.6120  0.9054 -2.1466
 1315SOL    HW2 5620   6.009   6.168   1.023 -2.4027 -1.1117  0.7564
 1316SOL     OW 5621   5.300   5.107   9.310 -0.2848  0.6484 -0.0653
 1316SOL    HW1 5622   5.341   5.132   9.393  0.8233  2.0047 -0.9677
 1316SOL    HW2 5623   5.305   5.186   9.256 -1.6884  0.0269 -1.1633
 1317SOL     OW 5624   0.263   5.469   2.208  0.1892  0.0817 -0.1313
 1317SOL    HW1 5625   0.299   5.533   2.146 -0.1287 -0.9361 -1.4289
 1317SOL    HW2 5626   0.196   5.517   2.256  0.1962  0.8132 -0.8332
 1318SOL     OW 5627   2.838   8.255   1.367 -0.5876 -0.3345 -0.6648
 1318SOL    HW1 5628   2.860   8.334   1.415  0.2159  0.3065 -2.0345
 1318SOL    HW2 5629   2.776   8.209   1.424 -1.9825  1.8218 -0.3513
 1319SOL     OW 5630   3.001   2.239   6.316 -0.0091 -0.1814 -0.5878
 1319SOL    HW1 5631   3.095   2.226   6.331 -0.0583  0.6441  0.6291
 1319SOL    HW2 5632   2.991   2.235   6.221  1.4134  0.6202 -0.8120
 1320SOL     OW 5633   0.353   9.523   6.158  0.0335  0.0190  0.6779
 1320SOL    HW1 5634   0.294   9.481   6.220 -1.1818 -0.7412 -0.8988
 1320SOL    HW2 5635   0.411   9.452   6.129  0.5139  0.3384  0.8531
 1321SOL     OW 5636   6.843   5.212   7.964  0.0594 -0.6124 -0.2524
 1321SOL    HW1 5637   6.877   5.174   7.883  0.7432 -2.4453  0.8275
 1321SOL    HW2 5638   6.897   5.290   7.978  1.6283 -1.6318 -0.3194
 1322SOL     OW 5639   3.050   1.525   0.140  0.6605  0.2784  0.0753
 1322SOL    HW1 5640   2.997   1.445   0.148  0.9155  0.1304  0.2913
 1322SOL    HW2 5641   3.048   1.546   0.047 -0.7324  0.9203  0.2167
 1323SOL     OW 5642   1.983   4.929   7.677 -0.0874  0.6262  0.6312
 1323SOL    HW1 5643   1.972   4.834   7.680 -0.2462  0.6256  0.1672
 1323SOL    HW2 5644   2.064   4.946   7.725  1.4582  0.0030 -1.5850
 1324SOL     OW 5645   3.319   2.554   5.011  0.8620 -0.0425  0.1551
 1324SOL    HW1 5646   3.350   2.639   4.979 -1.2326  0.8115  0.2394
 1324SOL    HW2 5647   3.367   2.490   4.958  1.0229  1.2351 -1.3119
 1325SOL     OW 5648   2.236   3.824   9.181 -0.1146 -0.0910  0.3095
 1325SOL    HW1 5649   2.192   3.898   9.221  0.8857 -0.6551  2.6471
 1325SOL    HW2 5650   2.321   3.859   9.153 -0.5886  0.1712 -0.8370
 1326SOL     OW 5651   0.921   5.979   1.550 -0.6425 -0.2108  0.5618
 1326SOL    HW1 5652   0.841   5.971   1.498 -0.2706 -0.4028  0.0123
 1326SOL    HW2 5653   0.894   6.028   1.628 -0.9325  1.2290 -0.4053
 1327SOL     OW 5654   1.048   1.569   3.216 -0.0330  0.2982 -0.2268
 1327SOL    HW1 5655   0.996   1.645   3.188  1.9795  1.7025 -0.3608
 1327SOL    HW2 5656   1.092   1.539   3.137  0.9861  0.4924  0.2445
 1328SOL     OW 5657   3.060   7.568   3.364  0.0760 -0.0368 -0.0408
 1328SOL    HW1 5658   3.062   7.573   3.459 -1.0309 -0.5105  0.0260
 1328SOL    HW2 5659   3.150   7.551   3.338 -0.0114 -2.5779  1.1014
 1329SOL     OW 5660   4.301   3.515   7.251 -0.4245 -0.2206  0.1600
 1329SOL    HW1 5661   4.298   3.463   7.171  0.1630 -0.3156  0.2010
 1329SOL    HW2 5662   4.393   3.514   7.277 -0.4725  0.5404  0.3589
 1330SOL     OW 5663   5.746   4.804   1.846  0.0284  0.2123  0.4737
 1330SOL    HW1 5664   5.667   4.813   1.793 -0.7979 -0.9235  1.4630
 1330SOL    HW2 5665   5.803   4.876   1.817 -0.7184  0.1333 -1.3401
 1331SOL     OW 5666   0.872   4.091   5.168 -0.2032  0.0030 -0.1343
 1331SOL    HW1 5667   0.871   4.057   5.258 -0.7629 -2.8421 -1.1001
 1331SOL    HW2 5668   0.862   4.185   5.178 -1.6955 -0.3312  2.7401
 1332SOL     OW 5669   8.068   4.097   3.876  0.0111 -0.4289  0.4252
 1332SOL    HW1 5670   8.002   4.028   3.880 -1.7811  1.0820 -0.9239
 1332SOL    HW2 5671   8.053   4.148   3.956 -0.9179  0.2542 -0.1611
 1333SOL     OW 5672   8.184   4.952   1.532 -0.0505 -0.1580 -0.5038
 1333SOL    HW1 5673   8.200   4.870   1.579  1.5465  0.8718  0.8457
 1333SOL    HW2 5674   8.144   5.010   1.596  0.3870  0.6562 -0.9440
 1334SOL     OW 5675   6.187   7.719   0.394 -0.5238  0.0748 -0.2761
 1334SOL    HW1 5676   6.104   7.682   0.363 -1.3724  1.1067  0.7034
 1334SOL    HW2 5677   6.185   7.810   0.366  0.2209  0.1462 -0.1144
 1335SOL     OW 5678   8.996   8.120   7.026 -0.1614  0.1304  0.3006
 1335SOL    HW1 5679   8.960   8.081   7.106  0.4951  0.1478  0.6161
 1335SOL    HW2 5680   8.969   8.061   6.956 -0.0400 -0.3395  0.6460
 1336SOL     OW 5681   1.795   4.730   8.566  0.2236  0.0764 -0.3146
 1336SOL    HW1 5682   1.849   4.651   8.568 -0.7196 -0.5785  0.4646
 1336SOL    HW2 5683   1.714   4.703   8.522  0.2359  0.8375 -0.8111
 1337SOL     OW 5684   9.437   0.822   5.916  0.5177 -0.1078  0.5734
 1337SOL    HW1 5685   9.422   0.876   5.994  0.6656 -0.3285  0.7522
 1337SOL    HW2 5686   9.501   0.757   5.943  0.2176 -0.4778  0.4032
 1338SOL     OW 5687   6.728   2.282   2.169  0.1988  0.1481  0.6023
 1338SOL    HW1 5688   6.716   2.371   2.204 -2.5241 -0.1110  0.6078
 1338SOL    HW2 5689   6.640   2.256   2.142  1.2110 -1.9657 -0.8926
 1339SOL     OW 5690   6.874   0.084   0.215 -0.4084  0.1694 -0.3538
 1339SOL    HW1 5691   6.954   0.048   0.177 -0.5514  0.6444 -1.1193
 1339SOL    HW2 5692   6.809   0.014   0.204 -0.6711  0.6044 -1.7842
 1340SOL     OW 5693   2.438   1.981   9.034  0.3491 -0.7197 -0.1435
 1340SOL    HW1 5694   2.433   2.060   9.088  1.0384 -0.7261 -0.0622
 1340SOL    HW2 5695   2.456   2.014   8.946  1.1589 -0.8030 -0.0180
 1341SOL     OW 5696   2.596   7.637   8.217  1.1030  0.0288 -0.3072
 1341SOL    HW1 5697   2.555   7.717   8.252  1.5679  0.5201 -0.8582
 1341SOL    HW2 5698   2.601   7.578   8.292 -1.5453 -0.4599 -0.4076
 1342SOL     OW 5699   8.801   6.675   4.692  0.0898 -0.1561 -0.0062
 1342SOL    HW1 5700   8.867   6.628   4.641  0.7273  1.8206 -1.1026
 1342SOL    HW2 5701   8.850   6.717   4.762  0.2276  1.9981 -1.2965
 1343SOL     OW 5702   3.109   1.708   5.959  0.2247  0.2798 -0.0336
 1343SOL    HW1 5703   3.130   1.784   5.905  0.6660  0.7779  0.8187
 1343SOL    HW2 5704   3.128   1.633   5.903 -0.8847  0.7891 -1.1297
 1344SOL     OW 5705   1.216   0.194   8.583  0.0713 -0.2056 -0.0030
 1344SOL    HW1 5706   1.287   0.250   8.616  0.9718 -1.6358  0.5610
 1344SOL    HW2 5707   1.250   0.158   8.501 -0.5779  0.1851 -0.4547
 1345SOL     OW 5708   4.282   0.056   6.140  1.1052 -0.1037 -0.4814
 1345SOL    HW1 5709   4.317  -0.010   6.080  0.2355 -0.9023 -0.1416
 1345SOL    HW2 5710   4.349   0.125   6.143  2.4515 -1.3839 -0.1280
 1346SOL     OW 5711   3.935   7.654   3.816  0.5591  0.1105  0.1577
 1346SOL    HW1 5712   4.008   7.678   3.759 -0.5920  0.9228 -1.0408
 1346SOL    HW2 5713   3.937   7.720   3.886  1.8534 -0.7690  0.9936
 1347SOL     OW 5714   4.401   4.840   5.259  0.0408 -0.2258  0.0031
 1347SOL    HW1 5715   4.481   4.790   5.241 -1.2796 -1.6461 -2.7049
 1347SOL    HW2 5716   4.376   4.875   5.173 -0.4319  3.1642  1.3937
 1348SOL     OW 5717   7.744   9.657   2.870  0.3771 -0.4713  0.0712
 1348SOL    HW1 5718   7.783   9.690   2.951  0.2993 -0.4924  0.1169
 1348SOL    HW2 5719   7.809   9.596   2.836 -0.6903 -2.4983  1.4780
 1349SOL     OW 5720   7.813   1.946   3.233  0.2561 -0.3238  0.3675
 1349SOL    HW1 5721   7.790   2.034   3.263 -0.6627 -0.7726  1.0310
 1349SOL    HW2 5722   7.765   1.887   3.292  3.6570 -1.3927  2.3328
 1350SOL     OW 5723   3.678   4.300   8.323  0.2150  0.1952  0.3208
 1350SOL    HW1 5724   3.660   4.332   8.235  0.5193  0.6007  0.4059
 1350SOL    HW2 5725   3.743   4.361   8.359 -0.6121  0.5931  1.1799
 1351SOL     OW 5726   7.404   2.390   2.157 -0.2961  0.2593 -0.1704
 1351SOL    HW1 5727   7.460   2.448   2.106  2.0491 -0.5071  1.3317
 1351SOL    HW2 5728   7.342   2.449   2.200  2.0695  1.8270  1.4016
 1352SOL     OW 5729   6.397   6.401   8.348 -0.4136  0.3281  0.0723
 1352SOL    HW1 5730   6.338   6.398   8.424  0.8172  0.7993  1.0753
 1352SOL    HW2 5731   6.470   6.344   8.372  0.0660  0.6088 -0.6913
 1353SOL     OW 5732   5.607   3.214   2.421  0.3093 -0.1584  0.0379
 1353SOL    HW1 5733   5.522   3.170   2.413 -0.6311  1.8131 -2.0512
 1353SOL    HW2 5734   5.595   3.274   2.495 -0.1459  0.1389 -0.2732
 1354SOL     OW 5735   2.732   8.190   5.956 -0.3888  0.4553  0.3557
 1354SOL    HW1 5736   2.641   8.160   5.951 -0.2520  0.1831 -0.8199
 1354SOL    HW2 5737   2.781   8.122   5.910  0.2106  1.3611 -0.3644
 1355SOL     OW 5738   9.454   8.301   3.257  0.4831  0.1679 -0.0615
 1355SOL    HW1 5739   9.484   8.339   3.340  0.8542 -2.1626  0.9514
 1355SOL    HW2 5740   9.429   8.211   3.280  1.1448 -0.7320 -2.5719
 1356SOL     OW 5741   1.463   6.465   3.507 -0.0388 -0.0430 -0.0930
 1356SOL    HW1 5742   1.519   6.450   3.431  0.5883 -1.5176  0.6197
 1356SOL    HW2 5743   1.374   6.469   3.471  0.2559 -0.6164 -0.9157
 1357SOL     OW 5744   4.096   8.455   3.948 -0.5804  0.7826  0.2384
 1357SOL    HW1 5745   4.183   8.414   3.952 -0.2559  1.2805 -1.2407
 1357SOL    HW2 5746   4.110   8.543   3.982 -0.8986  0.3115  1.6667
 1358SOL     OW 5747   1.923   2.912   2.500 -0.2536 -0.1438  0.3573
 1358SOL    HW1 5748   1.919   2.857   2.578  0.5177 -1.1053 -0.2549
 1358SOL    HW2 5749   1.981   2.865   2.440 -2.5408 -0.5764 -1.6760
 1359SOL     OW 5750   5.115   4.616   0.762  0.6489 -0.4676  0.5421
 1359SOL    HW1 5751   5.159   4.700   0.778 -0.1871  0.0663  0.0832
 1359SOL    HW2 5752   5.055   4.633   0.690  0.2343 -1.3807  0.6556
 1360SOL     OW 5753   2.450   0.154   6.847 -0.4920  0.1027 -0.0198
 1360SOL    HW1 5754   2.377   0.125   6.793  1.0052 -1.5278 -1.2880
 1360SOL    HW2 5755   2.463   0.246   6.824 -1.7560  0.2563 -0.1788
 1361SOL     OW 5756   4.618   1.983   4.242 -0.1280  0.2123 -0.1309
 1361SOL    HW1 5757   4.622   1.898   4.286 -0.9545 -0.0150 -0.4694
 1361SOL    HW2 5758   4.535   2.021   4.270  0.8081  1.5136  1.0593
 1362SOL     OW 5759   4.013   3.196   1.140  0.3653  0.4954 -0.1123
 1362SOL    HW1 5760   4.074   3.200   1.066 -0.0555  1.5795 -0.4190
 1362SOL    HW2 5761   4.062   3.233   1.213 -0.6633  3.7784 -0.9291
 1363SOL     OW 5762   3.785   3.336   7.762 -0.8499  0.2453  0.4838
 1363SOL    HW1 5763   3.756   3.364   7.848 -2.0987 -2.2001  0.9439
 1363SOL    HW2 5764   3.826   3.250   7.777 -0.1103  0.2529 -1.2256
 1364SOL     OW 5765   2.159   0.075   9.410 -0.0115 -0.1052  0.0501
 1364SOL    HW1 5766   2.093   0.020   9.451 -2.8890  2.3698 -0.9133
 1364SOL    HW2 5767   2.109   0.141   9.362  3.1959  1.4018 -1.5239
 1365SOL     OW 5768   7.360   7.691   9.591 -0.0144 -0.7422  0.0860
 1365SOL    HW1 5769   7.284   7.716   9.643 -0.7856  0.1762 -1.4117
 1365SOL    HW2 5770   7.413   7.770   9.586 -0.4136 -0.5403 -1.2641
 1366SOL     OW 5771   6.058   5.910   7.011  0.6646  0.5398  0.1280
 1366SOL    HW1 5772   6.038   5.998   7.045 -0.3631 -0.4860  2.4318
 1366SOL    HW2 5773   6.142   5.888   7.051  0.4022  0.0804  0.4376
 1367SOL     OW 5774   4.695   2.804   7.360 -0.1399 -0.4291  0.2322
 1367SOL    HW1 5775   4.680   2.711   7.381  1.5864 -0.7916 -0.0069
 1367SOL    HW2 5776   4.717   2.844   7.444  0.8663 -0.6263  0.0742
 1368SOL     OW 5777   8.849   4.305   8.296  0.1495  0.4350  0.6106
 1368SOL    HW1 5778   8.764   4.272   8.324  0.2442  0.2187  0.6477
 1368SOL    HW2 5779   8.904   4.227   8.289 -0.9330 -0.2160 -4.1934
 1369SOL     OW 5780   2.011   2.335   3.675 -0.0042  0.4376  0.0956
 1369SOL    HW1 5781   1.926   2.367   3.706  0.1531  1.3838 -0.4092
 1369SOL    HW2 5782   2.025   2.381   3.592  0.4235 -0.6660 -0.4630
 1370SOL     OW 5783   0.326   2.557   1.588 -0.2986 -0.2203  0.0641
 1370SOL    HW1 5784   0.263   2.557   1.660  0.5665 -0.6502  0.8356
 1370SOL    HW2 5785   0.287   2.500   1.522  0.6140 -3.0380  1.7766
 1371SOL     OW 5786   8.500   4.594   7.340  0.0887  0.3335  0.3005
 1371SOL    HW1 5787   8.520   4.674   7.291 -1.1647  0.8274  0.5544
 1371SOL    HW2 5788   8.406   4.579   7.323  0.0794 -0.5243  1.0595
 1372SOL     OW 5789   0.321   5.874   1.810  0.4704 -0.5415  0.8889
 1372SOL    HW1 5790   0.383   5.937   1.774 -0.0301 -0.1579  0.6947
 1372SOL    HW2 5791   0.373   5.819   1.869  1.3334 -1.2134 -0.4511
 1373SOL     OW 5792   4.599   0.550   4.835  0.2489  0.0654  0.1024
 1373SOL    HW1 5793   4.580   0.518   4.747 -1.3956  0.0321  0.4480
 1373SOL    HW2 5794   4.566   0.640   4.835  1.3477  0.4828  0.3291
 1374SOL     OW 5795   5.306   4.783   6.200 -0.1020  0.0055  0.0488
 1374SOL    HW1 5796   5.303   4.737   6.116 -1.5463  0.0540  0.0446
 1374SOL    HW2 5797   5.288   4.714   6.265  1.8973 -0.2087  0.4265
 1375SOL     OW 5798   1.143   8.931   6.026 -0.0422 -0.1628  0.8563
 1375SOL    HW1 5799   1.174   8.841   6.034  1.3639  0.1535 -0.5277
 1375SOL    HW2 5800   1.175   8.975   6.104  1.4792 -0.3025  0.3541
 1376SOL     OW 5801   4.622   1.144   2.846  0.2110  0.1215 -0.2201
 1376SOL    HW1 5802   4.617   1.221   2.903 -0.0354 -1.7721  2.5004
 1376SOL    HW2 5803   4.715   1.122   2.842  0.0949 -0.6907  0.9120
 1377SOL     OW 5804   2.171   8.619   4.050 -0.1493  0.4777 -0.0818
 1377SOL    HW1 5805   2.235   8.613   4.121  0.3962  1.9660 -0.4078
 1377SOL    HW2 5806   2.205   8.562   3.981 -0.3570 -0.4799  0.5880
 1378SOL     OW 5807   2.308   7.618   6.864 -0.0861  0.1386 -0.5878
 1378SOL    HW1 5808   2.350   7.676   6.927 -1.6882 -1.7392  2.4300
 1378SOL    HW2 5809   2.217   7.649   6.859 -0.3394 -0.6177 -0.8469
 1379SOL     OW 5810   7.731   7.628   9.103 -0.0811 -0.0728  0.0455
 1379SOL    HW1 5811   7.705   7.661   9.017 -0.3975  1.3254  0.6561
 1379SOL    HW2 5812   7.711   7.534   9.099  2.1073 -0.5834 -2.2362
 1380SOL     OW 5813   7.469   0.872   4.500  0.0480  0.4590  0.2388
 1380SOL    HW1 5814   7.388   0.922   4.490 -0.2742 -0.3754 -1.7033
 1380SOL    HW2 5815   7.538   0.934   4.477 -0.1014  0.8569  0.8239
 1381SOL     OW 5816   3.475   9.635   6.766  0.0962 -0.0801 -0.6006
 1381SOL    HW1 5817   3.528   9.667   6.840  0.1159  2.7401 -1.7267
 1381SOL    HW2 5818   3.386   9.637   6.799  0.3236 -1.2873  0.1300
 1382SOL     OW 5819   2.596   4.698   9.431 -0.2084  0.1756 -0.3815
 1382SOL    HW1 5820   2.622   4.652   9.352  0.4588  1.5929 -1.0110
 1382SOL    HW2 5821   2.678   4.727   9.471 -0.5854  0.3765  0.2613
 1383SOL     OW 5822   4.369   2.474   2.103 -0.5503  0.2354  0.7376
 1383SOL    HW1 5823   4.459   2.459   2.074 -0.8661 -0.5470  0.1154
 1383SOL    HW2 5824   4.319   2.482   2.022 -1.5294 -2.4878  0.9613
 1384SOL     OW 5825   1.055   5.195   5.152  0.4106  0.2769  0.1931
 1384SOL    HW1 5826   1.104   5.240   5.221  3.1122 -1.4741 -0.4178
 1384SOL    HW2 5827   0.987   5.257   5.127  1.4381  2.3309  2.0939
 1385SOL     OW 5828   5.843   8.463   5.344  0.0144  0.0064 -0.1804
 1385SOL    HW1 5829   5.847   8.545   5.295 -2.1276  0.6880  0.6702
 1385SOL    HW2 5830   5.867   8.487   5.433  0.8867 -0.6104 -0.2447
 1386SOL     OW 5831   5.919   4.230   5.366  0.0913 -0.6171  0.1704
 1386SOL    HW1 5832   5.910   4.147   5.413 -0.2684 -0.8949 -0.3878
 1386SOL    HW2 5833   5.857   4.289   5.410 -0.5904 -1.0124 -0.2476
 1387SOL     OW 5834   0.571   5.192   9.388 -0.0749  0.1686  0.1658
 1387SOL    HW1 5835   0.659   5.164   9.364 -0.4499 -0.2349 -0.7631
 1387SOL    HW2 5836   0.527   5.210   9.304 -0.8288  0.5062  0.6191
 1388SOL     OW 5837   9.020   6.370   5.728  0.0207  0.2038  0.1245
 1388SOL    HW1 5838   8.927   6.376   5.749  0.1039  1.0685  0.3022
 1388SOL    HW2 5839   9.032   6.429   5.654  1.0944  3.3847  2.5711
 1389SOL     OW 5840   2.919   7.125   1.668 -0.2850  0.3943  0.0077
 1389SOL    HW1 5841   2.856   7.060   1.637 -0.3032  0.8589 -0.9623
 1389SOL    HW2 5842   3.004   7.080   1.662 -0.3192  0.3930 -0.4726
 1390SOL     OW 5843   1.357   7.892   5.356 -0.2394 -0.2761 -0.5363
 1390SOL    HW1 5844   1.315   7.812   5.386  0.4115 -0.6600 -0.6181
 1390SOL    HW2 5845   1.301   7.925   5.286 -0.8457 -0.3136 -0.0718
 1391SOL     OW 5846   6.855   3.637   5.890 -0.0372  0.3404 -0.6539
 1391SOL    HW1 5847   6.803   3.558   5.875  1.6704 -0.9641 -0.0589
 1391SOL    HW2 5848   6.811   3.681   5.963  0.8613 -1.9259  1.4111
 1392SOL     OW 5849   4.071   9.572   8.987  0.3475 -0.0660  0.4747
 1392SOL    HW1 5850   4.160   9.583   8.954 -0.0238 -0.8496 -0.8711
 1392SOL    HW2 5851   4.053   9.652   9.037  0.8192  1.3659 -1.5426
 1393SOL     OW 5852   5.315   1.587   2.442 -0.5905  0.4515 -0.0500
 1393SOL    HW1 5853   5.355   1.605   2.526 -1.5664 -0.0863  0.5488
 1393SOL    HW2 5854   5.388   1.580   2.381  0.1058  1.1510  0.6915
 1394SOL     OW 5855   9.570   8.742   6.398 -0.6122 -0.2371  0.1558
 1394SOL    HW1 5856   9.579   8.832   6.366  0.5201 -0.6884 -0.9170
 1394SOL    HW2 5857   9.596   8.688   6.323  2.2516 -1.3650  1.7929
 1395SOL     OW 5858   0.841   6.955   0.919 -0.2611 -0.0461 -0.7166
 1395SOL    HW1 5859   0.869   6.993   1.002 -0.8912 -0.7555 -0.1597
 1395SOL    HW2 5860   0.911   6.975   0.858  0.9576 -0.8443  0.3743
 1396SOL     OW 5861   3.539   9.587   7.634  0.6022 -0.2050  0.5107
 1396SOL    HW1 5862   3.499   9.507   7.668 -0.1608  0.7098  1.8468
 1396SOL    HW2 5863   3.631   9.563   7.621  0.3340 -1.3713  0.6294
 1397SOL     OW 5864   5.188   6.475   0.941  0.2627  0.0168 -0.3674
 1397SOL    HW1 5865   5.140   6.494   1.021 -0.1276 -2.7080  0.1273
 1397SOL    HW2 5866   5.130   6.505   0.871 -0.0945  0.9632  0.3061
 1398SOL     OW 5867   4.392   6.947   4.923 -0.6164 -0.7665 -0.9724
 1398SOL    HW1 5868   4.375   6.876   4.985 -1.3302 -0.8000 -1.1979
 1398SOL    HW2 5869   4.317   7.006   4.933 -0.5032 -0.5356 -1.4683
 1399SOL     OW 5870   4.888   2.039   3.481 -0.3394  0.0740  0.1922
 1399SOL    HW1 5871   4.930   1.965   3.525  0.3901 -0.0912 -0.7367
 1399SOL    HW2 5872   4.907   2.114   3.537  0.1545 -0.2114  0.4158
 1400SOL     OW 5873   4.778   3.910   7.354  0.0961  0.0146 -0.0421
 1400SOL    HW1 5874   4.796   3.823   7.318 -0.4576 -0.1497  0.0630
 1400SOL    HW2 5875   4.803   3.970   7.284  1.2630 -0.1804  0.1893
 1401SOL     OW 5876   5.672   6.848   6.378 -0.3816  0.0038  0.8954
 1401SOL    HW1 5877   5.600   6.864   6.317 -0.4781 -0.3582  0.9093
 1401SOL    HW2 5878   5.715   6.933   6.388  1.7200 -0.5076 -2.3132
 1402SOL     OW 5879   5.239   1.006   5.499 -0.8525 -0.6004  0.3096
 1402SOL    HW1 5880   5.183   0.992   5.575 -0.4111  1.5488  1.1076
 1402SOL    HW2 5881   5.182   0.988   5.424 -1.7713 -1.1870  1.1148
 1403SOL     OW 5882   2.929   8.974   6.113 -0.0488 -0.0840 -0.1892
 1403SOL    HW1 5883   2.878   9.038   6.162  1.2320  0.3196  0.6560
 1403SOL    HW2 5884   2.892   8.889   6.139 -0.4006  0.2048  0.2687
 1404SOL     OW 5885   3.527   6.032   2.148  0.1887  0.2340 -0.1841
 1404SOL    HW1 5886   3.499   6.122   2.169 -0.0107  0.0649  0.2934
 1404SOL    HW2 5887   3.485   5.978   2.215 -1.6692 -0.5085 -1.8224
 1405SOL     OW 5888   5.443   5.153   6.710  0.1024 -0.5275 -0.3147
 1405SOL    HW1 5889   5.414   5.192   6.793 -1.5740 -1.7080 -0.3009
 1405SOL    HW2 5890   5.448   5.228   6.650  0.9621  0.2873  0.7223
 1406SOL     OW 5891   5.231   7.375   9.509  0.7563  0.8393  0.0627
 1406SOL    HW1 5892   5.154   7.415   9.549  1.7273  1.2368  1.6159
 1406SOL    HW2 5893   5.260   7.310   9.573  1.2010  0.0440 -0.9080
 1407SOL     OW 5894   8.336   3.751   6.183 -0.0370  0.0837  0.5543
 1407SOL    HW1 5895   8.383   3.716   6.259  0.5643  0.9884  0.6024
 1407SOL    HW2 5896   8.286   3.676   6.150  0.8166 -0.6906  0.9765
 1408SOL     OW 5897   1.454   0.892   2.091 -0.7950  0.3196 -0.0992
 1408SOL    HW1 5898   1.394   0.942   2.146 -3.6975 -2.0187 -0.8619
 1408SOL    HW2 5899   1.478   0.816   2.145  1.0701  0.8765 -0.0570
 1409SOL     OW 5900   8.014   8.929   9.049  0.2321  0.9223  0.3558
 1409SOL    HW1 5901   7.926   8.958   9.073 -0.1731 -0.7057  1.0157
 1409SOL    HW2 5902   8.024   8.845   9.094  2.3719  1.3619  0.7943
 1410SOL     OW 5903   6.193   4.454   5.644 -0.2887 -0.2190  0.2960
 1410SOL    HW1 5904   6.261   4.517   5.620 -0.1057 -0.0051  1.3338
 1410SOL    HW2 5905   6.113   4.506   5.649 -0.3756 -0.3113 -0.0697
 1411SOL     OW 5906   8.395   5.817   3.978 -0.3133 -0.5002  0.3150
 1411SOL    HW1 5907   8.473   5.765   3.994 -0.2196 -0.0734  1.3014
 1411SOL    HW2 5908   8.337   5.758   3.930  1.0182 -0.4752 -1.4231
 1412SOL     OW 5909   2.036   2.774   9.334  0.0313  0.2922 -0.1640
 1412SOL    HW1 5910   2.038   2.684   9.301  0.3764  0.2046  0.0858
 1412SOL    HW2 5911   1.973   2.819   9.277 -0.7892 -0.3141  0.2361
 1413SOL     OW 5912   6.795   9.307   4.493  0.4289 -0.4527 -0.1031
 1413SOL    HW1 5913   6.742   9.355   4.556  0.7180 -1.2869  0.8018
 1413SOL    HW2 5914   6.733   9.279   4.426  0.0400  0.0916  0.0266
 1414SOL     OW 5915   4.205   3.881   5.603 -0.4343  0.1622 -0.6717
 1414SOL    HW1 5916   4.295   3.848   5.605 -0.3431  0.3987 -0.7819
 1414SOL    HW2 5917   4.215   3.976   5.602 -0.6573  0.1877 -1.7574
 1415SOL     OW 5918   0.909   5.117   5.483 -0.4586 -0.0986  0.5379
 1415SOL    HW1 5919   0.918   5.025   5.459  0.6845  0.5987 -2.0794
 1415SOL    HW2 5920   0.820   5.140   5.458 -0.1749 -0.0876 -0.5053
 1416SOL     OW 5921   9.079   5.498   8.786 -0.3654  0.1616 -0.8014
 1416SOL    HW1 5922   9.119   5.584   8.774  0.9757 -0.4679 -1.0902
 1416SOL    HW2 5923   9.063   5.466   8.697  2.0042 -1.1202 -0.8547
 1417SOL     OW 5924   2.556   3.171   0.095 -0.3374 -0.6743  0.3200
 1417SOL    HW1 5925   2.615   3.148   0.167 -1.0312 -1.2024  0.7244
 1417SOL    HW2 5926   2.469   3.175   0.135 -0.4782  1.0771 -0.0603
 1418SOL     OW 5927   7.625   7.439   2.560 -0.2188  0.0829  0.1219
 1418SOL    HW1 5928   7.693   7.459   2.495 -0.2128 -1.6424 -0.4559
 1418SOL    HW2 5929   7.666   7.458   2.644  1.4917 -2.1225 -0.1323
 1419SOL     OW 5930   5.098   3.664   0.427  0.9099 -0.0923 -0.2304
 1419SOL    HW1 5931   5.162   3.649   0.358  1.4268  1.1109 -0.0405
 1419SOL    HW2 5932   5.133   3.618   0.503  1.3697  0.2482 -0.2304
 1420SOL     OW 5933   2.890   3.120   1.435 -0.0988 -0.0213  0.0033
 1420SOL    HW1 5934   2.894   3.158   1.522 -0.0802  0.4018 -0.1823
 1420SOL    HW2 5935   2.821   3.169   1.390  0.4821  0.3531 -0.5006
 1421SOL     OW 5936   9.088   4.094   7.723 -0.3076  0.2049 -0.0303
 1421SOL    HW1 5937   9.087   4.028   7.654  0.4236 -2.1878  2.0618
 1421SOL    HW2 5938   8.998   4.127   7.727 -1.5519 -2.8611  0.6668
 1422SOL     OW 5939   7.598   0.983   1.393 -0.5070  0.1824  0.0727
 1422SOL    HW1 5940   7.540   0.921   1.349 -0.7001 -0.0532  0.6473
 1422SOL    HW2 5941   7.578   0.972   1.486  0.5470  0.0056  0.2859
 1423SOL     OW 5942   0.906   7.712   4.537 -0.0248 -0.0728 -0.0410
 1423SOL    HW1 5943   0.894   7.807   4.538  2.1085  0.2624  2.5321
 1423SOL    HW2 5944   0.926   7.692   4.445 -1.5061  1.7680 -0.8368
 1424SOL     OW 5945   0.137   6.002   6.033  0.2306  0.1669 -0.0172
 1424SOL    HW1 5946   0.074   5.983   5.964  0.7550 -0.7495 -0.2481
 1424SOL    HW2 5947   0.090   6.062   6.091 -1.1589 -1.1291  0.2559
 1425SOL     OW 5948   9.347   6.620   7.622 -0.1487  0.6981 -0.2801
 1425SOL    HW1 5949   9.279   6.560   7.592  0.4362 -0.5252  0.7257
 1425SOL    HW2 5950   9.320   6.706   7.590 -0.7467 -0.1658 -2.2333
 1426SOL     OW 5951   7.832   2.014   1.304 -0.3682 -0.3153  0.1828
 1426SOL    HW1 5952   7.830   2.103   1.268  0.4476 -0.3881 -0.0608
 1426SOL    HW2 5953   7.752   2.007   1.356 -0.6784  0.3984 -0.1871
 1427SOL     OW 5954   0.288   6.835   8.788 -0.3494 -0.8035 -0.4230
 1427SOL    HW1 5955   0.336   6.910   8.754  1.9161 -1.9365  0.0736
 1427SOL    HW2 5956   0.205   6.836   8.740  0.9708  0.1013 -2.8818
 1428SOL     OW 5957   5.402   3.455   4.721 -0.4595  0.8688  0.0681
 1428SOL    HW1 5958   5.417   3.496   4.636  2.8978  1.3020  0.7353
 1428SOL    HW2 5959   5.395   3.361   4.701  0.3011  0.9638 -0.6885
 1429SOL     OW 5960   8.445   0.234   8.686  0.1956  0.4127  0.0672
 1429SOL    HW1 5961   8.511   0.175   8.650  0.4156  1.1926 -0.8359
 1429SOL    HW2 5962   8.364   0.209   8.641 -0.8561 -2.3998  3.0867
 1430SOL     OW 5963   1.520   3.726   3.173 -0.1076 -0.1500 -0.0560
 1430SOL    HW1 5964   1.512   3.667   3.248  0.0541 -0.4358 -0.2600
 1430SOL    HW2 5965   1.476   3.680   3.102  1.3249 -0.7285 -0.6156
 1431SOL     OW 5966   4.319   0.284   1.757  0.0721 -0.8333  0.2957
 1431SOL    HW1 5967   4.306   0.196   1.722 -0.1635 -0.6430 -0.1028
 1431SOL    HW2 5968   4.413   0.302   1.744 -0.1903 -0.3982 -1.1293
 1432SOL     OW 5969   3.617   9.662   9.348 -1.3196  0.0178  0.0144
 1432SOL    HW1 5970   3.650   9.692   9.433 -0.0777 -0.6649 -0.2072
 1432SOL    HW2 5971   3.666   9.713   9.284 -1.8321  0.1064 -0.3143
 1433SOL     OW 5972   6.698   8.481   5.787 -0.4099  0.6285 -0.0554
 1433SOL    HW1 5973   6.606   8.507   5.783  0.0376  2.3005 -0.0607
 1433SOL    HW2 5974   6.704   8.426   5.865 -1.2739  1.1157  0.3599
 1434SOL     OW 5975   8.543   3.164   4.953 -0.4837  0.7105  0.1242
 1434SOL    HW1 5976   8.481   3.175   5.024 -0.0849  0.3293  0.5361
 1434SOL    HW2 5977   8.522   3.079   4.916  0.9818 -0.2866  1.4675
 1435SOL     OW 5978   1.566   8.372   0.539  0.6423  0.1774 -0.5741
 1435SOL    HW1 5979   1.491   8.346   0.485 -0.7593 -0.2909  1.5105
 1435SOL    HW2 5980   1.531   8.384   0.627  3.3385 -2.1344  1.0035
 1436SOL     OW 5981   9.180   6.350   5.340 -0.2356 -0.4781  0.1615
 1436SOL    HW1 5982   9.171   6.384   5.251  0.1751  0.3996  0.4402
 1436SOL    HW2 5983   9.259   6.392   5.374  0.2535 -1.6748  0.5609
 1437SOL     OW 5984   1.614   0.236   9.027 -0.2896  0.0022  0.5254
 1437SOL    HW1 5985   1.627   0.292   9.103  1.1914 -0.4064  0.6053
 1437SOL    HW2 5986   1.648   0.288   8.954 -2.6497  0.8221 -0.0738
 1438SOL     OW 5987   5.840   3.257   4.042  0.3526  0.0998 -0.2450
 1438SOL    HW1 5988   5.861   3.293   3.956  1.2329  3.2809  1.1553
 1438SOL    HW2 5989   5.922   3.262   4.091 -0.7606  1.1068  1.6163
 1439SOL     OW 5990   3.868   5.175   2.020  0.2334 -0.0581 -0.3252
 1439SOL    HW1 5991   3.832   5.260   1.992 -0.1817 -0.5716 -1.4320
 1439SOL    HW2 5992   3.960   5.193   2.039 -0.4304  1.1990  2.1280
 1440SOL     OW 5993   4.720   8.400   5.756  0.5115  0.3108 -0.2631
 1440SOL    HW1 5994   4.769   8.327   5.718  1.9078  0.1752  1.6418
 1440SOL    HW2 5995   4.686   8.366   5.838  0.9555  1.7103  0.5287
 1441SOL     OW 5996   8.379   6.628   5.794  0.4941  0.0298 -0.2064
 1441SOL    HW1 5997   8.371   6.698   5.729 -0.3117  0.4126  0.2869
 1441SOL    HW2 5998   8.340   6.551   5.753 -0.6535  0.4470  0.0574
 1442SOL     OW 5999   5.672   0.921   4.954 -0.4631  0.3674  0.3436
 1442SOL    HW1 6000   5.761   0.955   4.961 -0.2683  0.0452 -0.4573
 1442SOL    HW2 6001   5.653   0.885   5.041 -0.8031  2.7519  1.3246
 1443SOL     OW 6002   2.098   2.118   3.818 -0.0842  0.1700 -0.2081
 1443SOL    HW1 6003   2.082   2.186   3.752  1.9540 -1.9412 -3.1057
 1443SOL    HW2 6004   2.193   2.119   3.831 -0.3827  0.2971  2.6050
 1444SOL     OW 6005   9.180   8.578   7.865  0.4092 -0.5355  0.5345
 1444SOL    HW1 6006   9.180   8.524   7.786 -0.4321  0.7256 -0.3583
 1444SOL    HW2 6007   9.099   8.554   7.910  0.5129 -0.6992  0.6376
 1445SOL     OW 6008   0.772   9.410   6.778 -0.7625  0.1140  0.2156
 1445SOL    HW1 6009   0.734   9.496   6.792  0.1520  0.3123  1.7704
 1445SOL    HW2 6010   0.867   9.424   6.782 -0.6004 -0.9644  0.6533
 1446SOL     OW 6011   4.888   1.396   3.068  0.0350  0.1043 -0.0338
 1446SOL    HW1 6012   4.796   1.373   3.086 -0.1347  0.4948 -0.3901
 1446SOL    HW2 6013   4.886   1.433   2.980  0.3714  1.0702  0.3536
 1447SOL     OW 6014   0.729   1.925   2.431 -0.1014 -0.0936  0.1060
 1447SOL    HW1 6015   0.634   1.941   2.428 -0.2711  0.2887  3.7001
 1447SOL    HW2 6016   0.738   1.830   2.420 -0.7348  0.0130 -1.6096
 1448SOL     OW 6017   7.492   3.667   4.579  0.5497  0.2507  0.5092
 1448SOL    HW1 6018   7.507   3.596   4.515  0.5212  0.5761  0.1379
 1448SOL    HW2 6019   7.572   3.720   4.575  0.4126  0.4549  0.5122
 1449SOL     OW 6020   9.218   0.199   6.003 -0.4208  0.1772 -0.4335
 1449SOL    HW1 6021   9.150   0.265   6.015  0.2891  0.8592 -0.0551
 1449SOL    HW2 6022   9.226   0.157   6.089 -0.7414 -0.2752 -0.6237
 1450SOL     OW 6023   1.137   2.669   8.415  0.8531  0.1400 -0.0018
 1450SOL    HW1 6024   1.119   2.601   8.350  0.4828  0.2499 -0.0170
 1450SOL    HW2 6025   1.051   2.693   8.450  1.1519 -0.8144  1.4586
 1451SOL     OW 6026   9.447   6.870   2.811 -0.1738  0.4185  0.2097
 1451SOL    HW1 6027   9.399   6.894   2.732 -2.3262 -0.6341  1.1327
 1451SOL    HW2 6028   9.539   6.889   2.790 -0.7781  0.9274 -2.2159
 1452SOL     OW 6029   7.779   1.698   4.628 -0.0781 -0.5436 -0.5687
 1452SOL    HW1 6030   7.793   1.614   4.584 -3.8715 -1.7486  0.1464
 1452SOL    HW2 6031   7.740   1.754   4.562 -1.1598 -0.6908 -0.0768
 1453SOL     OW 6032   4.435   8.603   6.778  0.1819 -0.1395  0.5950
 1453SOL    HW1 6033   4.370   8.667   6.807 -0.4225  0.4935 -1.9414
 1453SOL    HW2 6034   4.502   8.654   6.734  0.4640 -1.1300 -0.1663
 1454SOL     OW 6035   1.861   5.251   4.418 -0.4623  0.4174  0.1393
 1454SOL    HW1 6036   1.909   5.170   4.434 -0.9599  0.2141  0.6796
 1454SOL    HW2 6037   1.819   5.270   4.502  0.9697  2.1325  0.5031
 1455SOL     OW 6038   3.136   2.370   9.618 -0.4704  0.3641 -0.2324
 1455SOL    HW1 6039   3.225   2.397   9.640 -0.7203  0.6309  0.4669
 1455SOL    HW2 6040   3.135   2.276   9.635 -0.7590  0.6173  1.3018
 1456SOL     OW 6041   8.313   6.429   0.697  0.2696 -0.0877  0.4940
 1456SOL    HW1 6042   8.247   6.359   0.692  1.3789 -1.1898  0.8399
 1456SOL    HW2 6043   8.380   6.403   0.633  2.3391 -1.1478  2.9476
 1457SOL     OW 6044   1.113   2.943   4.885  0.0642 -0.4422  0.0137
 1457SOL    HW1 6045   1.207   2.955   4.871 -0.3837  1.9043 -1.7811
 1457SOL    HW2 6046   1.082   2.904   4.803 -0.8032  1.1111 -0.4443
 1458SOL     OW 6047   9.180   8.904   7.139 -0.1263 -0.3553 -0.0923
 1458SOL    HW1 6048   9.207   8.974   7.081  2.7692 -1.0207  0.3314
 1458SOL    HW2 6049   9.090   8.928   7.165 -0.2182  1.7280 -2.0428
 1459SOL     OW 6050   4.019   2.414   1.907  0.2248 -0.4979 -0.0955
 1459SOL    HW1 6051   4.012   2.325   1.873 -0.2228  0.2776 -2.1908
 1459SOL    HW2 6052   3.961   2.466   1.850  1.9025  1.4388 -0.1474
 1460SOL     OW 6053   2.266   4.625   9.305  0.3010 -0.0881 -0.3350
 1460SOL    HW1 6054   2.313   4.580   9.236  0.1168 -0.0554 -0.4831
 1460SOL    HW2 6055   2.194   4.671   9.260  0.5184  0.4014 -0.1958
 1461SOL     OW 6056   0.218   2.081   1.540  0.0585  0.2869  0.6605
 1461SOL    HW1 6057   0.256   2.166   1.515  0.1690 -0.1789 -0.8903
 1461SOL    HW2 6058   0.126   2.087   1.514 -0.3341  0.4796  2.0203
 1462SOL     OW 6059   3.667   2.549   6.008  0.0272 -0.4902 -0.5318
 1462SOL    HW1 6060   3.749   2.575   5.965 -0.0334 -0.4729 -0.6369
 1462SOL    HW2 6061   3.657   2.456   5.988 -0.5129 -0.2616 -1.4059
 1463SOL     OW 6062   8.943   7.177   6.313 -0.8305  0.4856 -0.3577
 1463SOL    HW1 6063   8.919   7.178   6.405  0.9105 -0.1506  0.1488
 1463SOL    HW2 6064   9.014   7.113   6.307  1.0861  2.5559 -1.5975
 1464SOL     OW 6065   7.679   1.291   0.156  0.0792  0.1259 -0.4554
 1464SOL    HW1 6066   7.601   1.326   0.115  1.7508  0.4524 -3.6810
 1464SOL    HW2 6067   7.736   1.266   0.083  2.3669 -1.5686  1.7068
 1465SOL     OW 6068   4.289   7.755   0.179  0.2299 -0.2322  0.0200
 1465SOL    HW1 6069   4.253   7.789   0.261  1.5192  0.1561  0.4491
 1465SOL    HW2 6070   4.294   7.660   0.192 -1.8263 -0.4618 -0.5525
 1466SOL     OW 6071   8.023   6.032   6.469 -0.1430 -0.1835 -0.2626
 1466SOL    HW1 6072   8.028   5.972   6.394  0.6253 -0.7995  0.2660
 1466SOL    HW2 6073   8.021   5.975   6.545 -0.7512  0.4447  0.2022
 1467SOL     OW 6074   4.639   5.944   1.056 -0.2687  0.0322 -0.8278
 1467SOL    HW1 6075   4.579   6.005   1.098  0.7875  1.1248 -0.8773
 1467SOL    HW2 6076   4.597   5.924   0.972 -2.1164 -1.7483  0.4107
 1468SOL     OW 6077   3.620   5.908   6.636  0.9362 -0.4538  0.2500
 1468SOL    HW1 6078   3.566   5.829   6.645  0.4708 -0.1032  0.6081
 1468SOL    HW2 6079   3.647   5.928   6.726  0.7414  0.0049  0.2084
 1469SOL     OW 6080   3.117   3.870   4.746  0.1913  0.3512 -0.0529
 1469SOL    HW1 6081   3.177   3.923   4.798  0.1073 -0.0508  0.4629
 1469SOL    HW2 6082   3.104   3.920   4.665  0.8088  0.6847  0.0518
 1470SOL     OW 6083   6.642   0.081   6.540 -0.1830  0.5652 -1.0936
 1470SOL    HW1 6084   6.714   0.083   6.477 -1.1262 -1.3044 -2.3239
 1470SOL    HW2 6085   6.565   0.057   6.488 -1.3272  0.5554  0.5117
 1471SOL     OW 6086   5.034   1.593   2.454 -0.5957  0.0875  0.4016
 1471SOL    HW1 6087   5.129   1.584   2.443 -0.8519 -1.9107 -0.7262
 1471SOL    HW2 6088   5.002   1.618   2.367 -1.2597 -1.1547  0.2615
 1472SOL     OW 6089   6.382   0.568   0.126 -0.3501  0.0470 -0.4880
 1472SOL    HW1 6090   6.389   0.627   0.051 -1.6502  0.4709 -0.2899
 1472SOL    HW2 6091   6.392   0.625   0.203  0.2532 -0.2764 -0.3191
 1473SOL     OW 6092   8.603   2.919   2.747  0.2459  0.2760  0.0293
 1473SOL    HW1 6093   8.618   3.008   2.779  0.5103 -0.5860  2.4999
 1473SOL    HW2 6094   8.658   2.864   2.803 -1.3573 -1.6126 -0.1584
 1474SOL     OW 6095   3.691   8.856   0.203 -0.1511  0.5880 -0.5845
 1474SOL    HW1 6096   3.751   8.931   0.199 -0.2377  0.6578 -0.5927
 1474SOL    HW2 6097   3.675   8.834   0.111 -0.2909  0.6938 -0.5857
 1475SOL     OW 6098   6.022   2.125   8.831 -0.3780 -0.2396  0.2629
 1475SOL    HW1 6099   6.089   2.057   8.835 -1.5613 -1.5339 -0.9687
 1475SOL    HW2 6100   6.017   2.148   8.738 -0.1865  1.3566  0.6248
 1476SOL     OW 6101   3.148   7.195   3.265 -0.5632 -0.1185  0.4027
 1476SOL    HW1 6102   3.097   7.233   3.336 -1.3005 -0.3038 -0.0177
 1476SOL    HW2 6103   3.239   7.209   3.291 -0.7946 -1.0682  1.8718
 1477SOL     OW 6104   8.838   7.280   8.862  0.0012  0.0920 -0.1560
 1477SOL    HW1 6105   8.892   7.231   8.925 -0.8637  0.3467  0.8194
 1477SOL    HW2 6106   8.767   7.220   8.840  0.2074  0.0699 -0.7733
 1478SOL     OW 6107   6.805   9.537   8.826  0.2738 -0.2036  0.3913
 1478SOL    HW1 6108   6.872   9.599   8.857  0.4926 -0.3320  0.1781
 1478SOL    HW2 6109   6.742   9.532   8.898 -0.0143  0.6536  0.2105
 1479SOL     OW 6110   5.559   9.580   3.565  0.4834 -0.0225  0.2438
 1479SOL    HW1 6111   5.604   9.659   3.594  1.4188 -0.4070 -0.1286
 1479SOL    HW2 6112   5.626   9.512   3.567  0.4858 -0.1934 -2.2590
 1480SOL     OW 6113   2.589   4.469   1.952  0.0692  0.2142  0.0143
 1480SOL    HW1 6114   2.653   4.505   2.013 -1.0594 -0.0362  1.4182
 1480SOL    HW2 6115   2.598   4.374   1.962  0.1152  0.1631 -0.4847
 1481SOL     OW 6116   1.530   0.155   2.804  0.6802  0.5182  0.1070
 1481SOL    HW1 6117   1.514   0.062   2.789 -0.1433  0.9526 -2.1070
 1481SOL    HW2 6118   1.445   0.190   2.832 -0.0228  1.1563 -2.5154
 1482SOL     OW 6119   2.674   2.550   2.954  0.3568 -0.2062  0.2962
 1482SOL    HW1 6120   2.715   2.512   3.031 -3.0916 -1.7451  1.5704
 1482SOL    HW2 6121   2.604   2.606   2.988  0.0150  0.6965 -1.7057
 1483SOL     OW 6122   5.174   2.189   6.802 -0.3871  0.5179 -0.5427
 1483SOL    HW1 6123   5.097   2.139   6.828  1.1398 -1.3602  0.7471
 1483SOL    HW2 6124   5.192   2.245   6.878 -0.4557  0.9028 -0.8116
 1484SOL     OW 6125   8.185   1.887   8.882  0.1996  0.1279  0.6114
 1484SOL    HW1 6126   8.104   1.839   8.898  0.3208  0.6823  3.3955
 1484SOL    HW2 6127   8.252   1.819   8.877  0.0289 -0.1616  1.9745
 1485SOL     OW 6128   0.435   5.765   6.278 -0.8719 -0.8259  0.1490
 1485SOL    HW1 6129   0.451   5.856   6.305 -1.4907 -1.0903  1.4774
 1485SOL    HW2 6130   0.518   5.735   6.242 -0.8284  0.4633 -0.9093
 1486SOL     OW 6131   4.372   6.052   0.558 -0.2994  0.2462  0.3865
 1486SOL    HW1 6132   4.325   5.975   0.526 -2.0299  0.5189  2.0854
 1486SOL    HW2 6133   4.352   6.055   0.651  3.9814 -0.1554  1.4978
 1487SOL     OW 6134   0.561   2.045   5.105 -0.4017 -0.3528  0.0731
 1487SOL    HW1 6135   0.504   2.075   5.176  0.5221 -0.5896  0.9351
 1487SOL    HW2 6136   0.511   2.063   5.025 -1.1542  0.6258  0.7335
 1488SOL     OW 6137   5.053   8.952   6.724 -0.0014 -0.2436  0.0881
 1488SOL    HW1 6138   5.083   8.990   6.642  0.5891  0.4782  0.6285
 1488SOL    HW2 6139   5.128   8.961   6.784 -0.6486 -0.1600  0.8992
 1489SOL     OW 6140   1.738   0.358   4.297 -0.4747  0.2293  0.5249
 1489SOL    HW1 6141   1.719   0.286   4.236  1.1401 -0.6282  0.9708
 1489SOL    HW2 6142   1.831   0.377   4.283 -0.3372  0.7414  1.9509
 1490SOL     OW 6143   4.758   1.082   8.894  0.2829 -0.5470  0.1760
 1490SOL    HW1 6144   4.817   1.084   8.969 -0.9101 -2.0525  1.2069
 1490SOL    HW2 6145   4.733   1.173   8.880  1.3501 -0.1212  0.9254
 1491SOL     OW 6146   6.263   6.585   3.299 -0.8058  0.1914 -0.1345
 1491SOL    HW1 6147   6.169   6.578   3.316 -1.0903  2.6420 -0.3195
 1491SOL    HW2 6148   6.269   6.622   3.211  0.3657 -0.5036 -0.3690
 1492SOL     OW 6149   7.233   3.331   7.154 -0.8289  0.0970  0.1238
 1492SOL    HW1 6150   7.232   3.377   7.237  1.1700  0.9235 -0.2445
 1492SOL    HW2 6151   7.225   3.400   7.088 -0.7938 -0.3816 -0.3890
 1493SOL     OW 6152   4.227   6.301   5.593 -0.6053  0.6468 -0.0085
 1493SOL    HW1 6153   4.320   6.316   5.612 -0.7534  0.6795  0.7510
 1493SOL    HW2 6154   4.222   6.292   5.498  0.1470  0.8455 -0.0705
 1494SOL     OW 6155   9.179   6.279   2.438  0.2311 -0.0769 -0.3817
 1494SOL    HW1 6156   9.131   6.352   2.397  1.1478  0.5720 -0.3352
 1494SOL    HW2 6157   9.123   6.252   2.510  0.5741  1.6772  0.6164
 1495SOL     OW 6158   2.650   8.517   9.191 -0.0941 -0.4930  0.3493
 1495SOL    HW1 6159   2.655   8.455   9.118 -1.1565 -0.6495  0.3899
 1495SOL    HW2 6160   2.605   8.593   9.154 -1.4152 -0.9069  1.0404
 1496SOL     OW 6161   2.306   6.398   7.440  0.1672 -0.7017  0.0728
 1496SOL    HW1 6162   2.225   6.357   7.468  0.8544 -1.3145  1.2264
 1496SOL    HW2 6163   2.342   6.339   7.374 -0.3292 -0.4079 -0.4719
 1497SOL     OW 6164   2.322   5.447   1.448 -0.2018 -0.1670  0.1741
 1497SOL    HW1 6165   2.233   5.438   1.416  0.2390  1.8512 -1.7890
 1497SOL    HW2 6166   2.331   5.376   1.512 -2.3946 -1.9624 -1.3501
 1498SOL     OW 6167   6.395   6.328   3.804  0.0314  0.0802 -0.3931
 1498SOL    HW1 6168   6.439   6.407   3.834  0.4206  1.4123 -3.9258
 1498SOL    HW2 6169   6.302   6.350   3.805 -0.2515 -0.9171  2.2730
 1499SOL     OW 6170   2.832   5.759   3.540 -0.3372 -0.2872  0.1402
 1499SOL    HW1 6171   2.877   5.694   3.486  1.7990  1.4902 -0.3723
 1499SOL    HW2 6172   2.756   5.785   3.488  0.5326 -0.1268 -1.0961
 1500SOL     OW 6173   2.849   0.847   6.549  0.3959  0.4091  0.2917
 1500SOL    HW1 6174   2.893   0.880   6.471  0.1069 -0.5815 -0.3043
 1500SOL    HW2 6175   2.917   0.847   6.617  0.7729  0.8087 -0.0858
 1501SOL     OW 6176   9.073   3.844   8.369  0.3828  0.1847 -0.1824
 1501SOL    HW1 6177   9.096   3.806   8.285 -1.7830  0.3635 -0.9307
 1501SOL    HW2 6178   9.020   3.778   8.412 -2.1390  1.6212 -0.8554
 1502SOL     OW 6179   4.509   2.352   6.756  0.1896  0.7742  1.0008
 1502SOL    HW1 6180   4.490   2.445   6.742 -0.5102  0.6975  1.3789
 1502SOL    HW2 6181   4.430   2.307   6.726  0.9540  0.2126 -0.2306
 1503SOL     OW 6182   1.596   3.648   3.454 -0.8628 -0.5213 -0.5819
 1503SOL    HW1 6183   1.567   3.665   3.544 -0.3094 -2.1634 -0.0552
 1503SOL    HW2 6184   1.657   3.719   3.436  1.0960 -1.5556  1.3816
 1504SOL     OW 6185   6.750   7.839   3.311  0.4509 -0.2260  0.6894
 1504SOL    HW1 6186   6.736   7.845   3.217 -1.1500 -0.1242  0.9122
 1504SOL    HW2 6187   6.663   7.826   3.348  1.0260 -0.0699  2.1733
 1505SOL     OW 6188   3.531   2.971   5.705 -0.4781  0.5119 -0.1666
 1505SOL    HW1 6189   3.621   2.981   5.736 -0.1731  1.5291 -1.2883
 1505SOL    HW2 6190   3.498   3.061   5.698 -1.0629  0.2398 -1.1877
 1506SOL     OW 6191   2.735   8.532   5.056  0.0076  0.1746 -0.5434
 1506SOL    HW1 6192   2.745   8.598   5.125  0.6058  0.7379 -1.1543
 1506SOL    HW2 6193   2.656   8.484   5.080  1.0273 -0.6625  1.3760
 1507SOL     OW 6194   0.671   7.007   6.859 -0.0625  0.1803 -0.9075
 1507SOL    HW1 6195   0.583   6.971   6.870  1.3595 -3.0786  1.4003
 1507SOL    HW2 6196   0.663   7.100   6.881 -2.5674 -0.4964  1.5175
 1508SOL     OW 6197   7.077   4.378   8.104 -0.6362  0.5343  0.6563
 1508SOL    HW1 6198   7.090   4.337   8.189 -0.9012  1.8502  1.3546
 1508SOL    HW2 6199   7.139   4.334   8.046  0.8047  0.8156  1.9387
 1509SOL     OW 6200   6.312   8.755   5.638  0.2178 -0.1436 -0.3004
 1509SOL    HW1 6201   6.219   8.741   5.622 -0.0059  0.8765  0.0757
 1509SOL    HW2 6202   6.350   8.768   5.552 -0.3815  1.7351 -0.3107
 1510SOL     OW 6203   1.841   6.292   2.721 -0.0313  0.4084  0.7670
 1510SOL    HW1 6204   1.848   6.243   2.803 -1.6672  0.5851  1.0582
 1510SOL    HW2 6205   1.853   6.226   2.653 -1.1015 -0.2206  1.1562
 1511SOL     OW 6206   7.447   4.347   0.455  0.0068  0.2042 -0.1242
 1511SOL    HW1 6207   7.364   4.343   0.408  0.4120 -0.1768 -0.8143
 1511SOL    HW2 6208   7.422   4.341   0.547 -0.8166  1.2499 -0.2611
 1512SOL     OW 6209   1.679   1.950   3.671 -0.3493  0.3709 -0.0146
 1512SOL    HW1 6210   1.612   1.912   3.727  0.7678 -1.3101  0.2514
 1512SOL    HW2 6211   1.747   1.980   3.731  0.3827 -0.4938 -0.3821
 1513SOL     OW 6212   2.240   3.742   9.546  0.0497 -0.1067 -0.2435
 1513SOL    HW1 6213   2.329   3.766   9.521  0.2650  0.8129  1.2513
 1513SOL    HW2 6214   2.251   3.684   9.622 -0.6060 -1.1115 -0.8943
 1514SOL     OW 6215   8.862   8.023   5.874 -0.8109  0.7142 -0.2248
 1514SOL    HW1 6216   8.770   8.040   5.895 -0.6179  0.5955  0.7703
 1514SOL    HW2 6217   8.894   7.972   5.948  0.2891  1.5087 -0.1209
 1515SOL     OW 6218   4.614   5.461   1.933  0.3213  0.6971 -0.5147
 1515SOL    HW1 6219   4.519   5.450   1.937  0.4750 -0.5562  0.1534
 1515SOL    HW2 6220   4.632   5.479   1.841 -0.6815  2.3786 -0.4215
 1516SOL     OW 6221   8.079   3.345   0.043 -0.1532  0.0386 -0.0569
 1516SOL    HW1 6222   8.042   3.354   0.131  0.6634  1.1566  0.2057
 1516SOL    HW2 6223   8.045   3.261   0.011 -1.0054 -0.0709  1.0542
 1517SOL     OW 6224   7.062   5.376   7.947 -0.0538 -0.2126  0.1636
 1517SOL    HW1 6225   7.104   5.291   7.934 -0.1986 -0.3634  0.6795
 1517SOL    HW2 6226   7.128   5.429   7.992 -0.6487 -0.6711  1.6150
 1518SOL     OW 6227   1.401   3.302   3.345 -0.3625  0.3901  0.4358
 1518SOL    HW1 6228   1.473   3.364   3.337  0.3143 -0.4590 -0.3276
 1518SOL    HW2 6229   1.442   3.216   3.332 -1.5259 -0.1041 -0.1279
 1519SOL     OW 6230   1.717   5.136   0.436 -0.6745  0.3338 -0.1521
 1519SOL    HW1 6231   1.690   5.080   0.363 -1.2860  1.7902 -1.0973
 1519SOL    HW2 6232   1.783   5.085   0.482 -1.5912 -1.3707 -0.6363
 1520SOL     OW 6233   2.262   3.787   6.422  0.0871  0.3963  0.8227
 1520SOL    HW1 6234   2.181   3.740   6.445 -1.0490  1.3683 -1.0010
 1520SOL    HW2 6235   2.320   3.720   6.386 -0.9940  0.1209 -0.4613
 1521SOL     OW 6236   6.458   4.560   3.677  1.1611 -0.0692  0.0759
 1521SOL    HW1 6237   6.454   4.568   3.772 -1.1291 -0.2652  0.0429
 1521SOL    HW2 6238   6.530   4.618   3.651 -0.1717  2.4794  1.6762
 1522SOL     OW 6239   5.779   7.109   5.446 -0.3970  0.3583  0.5766
 1522SOL    HW1 6240   5.748   7.197   5.426  1.4919  0.8693 -0.3744
 1522SOL    HW2 6241   5.867   7.122   5.483  0.2248 -1.1278 -0.2857
 1523SOL     OW 6242   7.270   3.243   3.988  0.7068 -0.1595 -0.2815
 1523SOL    HW1 6243   7.304   3.325   3.952 -0.3214  0.3348 -0.1417
 1523SOL    HW2 6244   7.296   3.245   4.080  1.2501 -0.3009 -0.4290
 1524SOL     OW 6245   3.551   1.192   5.028 -0.2597  0.0160 -0.2460
 1524SOL    HW1 6246   3.526   1.261   5.089  1.5371  0.0192  0.5517
 1524SOL    HW2 6247   3.510   1.217   4.945 -1.8325  0.5941  0.6540
 1525SOL     OW 6248   2.240   2.988   7.467 -0.9178 -0.1672 -0.0601
 1525SOL    HW1 6249   2.301   3.061   7.482 -1.4230  0.6903 -1.9354
 1525SOL    HW2 6250   2.162   3.011   7.518 -0.3014 -0.4915  1.0733
 1526SOL     OW 6251   7.842   6.488   3.621 -0.3569 -0.0005  0.3374
 1526SOL    HW1 6252   7.875   6.486   3.711  0.8299 -0.1786 -0.0761
 1526SOL    HW2 6253   7.914   6.451   3.569 -0.7897  0.6452 -0.7469
 1527SOL     OW 6254   4.739   7.509   3.078 -0.6559  0.2474  0.3998
 1527SOL    HW1 6255   4.770   7.459   3.153  2.3880 -1.8506 -1.9871
 1527SOL    HW2 6256   4.690   7.446   3.026  1.1729  0.2574 -1.4933
 1528SOL     OW 6257   3.383   1.624   3.514  0.2230 -0.4231  0.0086
 1528SOL    HW1 6258   3.383   1.717   3.538 -0.3757 -0.9181  2.1178
 1528SOL    HW2 6259   3.296   1.593   3.538  0.4582 -1.5705 -0.5589
 1529SOL     OW 6260   4.536   5.845   8.193  0.2892  0.1378  0.9807
 1529SOL    HW1 6261   4.557   5.752   8.204 -0.3268  0.0089  1.1174
 1529SOL    HW2 6262   4.440   5.847   8.189  0.3287  0.6724  0.0953
 1530SOL     OW 6263   8.579   0.356   3.906 -0.2734  0.5713  0.3789
 1530SOL    HW1 6264   8.558   0.427   3.846  0.5878  0.8324  0.3694
 1530SOL    HW2 6265   8.671   0.369   3.927 -0.3221 -0.0682  1.0222
 1531SOL     OW 6266   2.900   2.516   3.229 -0.1367 -0.3524  0.2142
 1531SOL    HW1 6267   2.920   2.464   3.307 -0.1718 -1.7541 -0.6750
 1531SOL    HW2 6268   2.901   2.607   3.259  3.1170 -0.6023  1.1999
 1532SOL     OW 6269   5.298   0.777   2.807  0.1227  0.4126 -0.1652
 1532SOL    HW1 6270   5.372   0.831   2.778  1.8357 -1.0429  1.2382
 1532SOL    HW2 6271   5.300   0.700   2.750  0.1178  0.0695  0.2857
 1533SOL     OW 6272   0.733   2.594   6.877 -0.5592  0.2601  0.2616
 1533SOL    HW1 6273   0.639   2.588   6.891 -0.5690 -0.2786  0.0078
 1533SOL    HW2 6274   0.751   2.688   6.875 -1.4345  0.4490 -1.7678
 1534SOL     OW 6275   9.144   7.548   0.584  0.2983 -0.4570  0.4135
 1534SOL    HW1 6276   9.053   7.553   0.555  0.4251  0.9101  0.2331
 1534SOL    HW2 6277   9.160   7.454   0.595 -1.0122 -0.7343  0.0834
 1535SOL     OW 6278   1.389   6.105   8.414  0.0785  0.7536  0.7872
 1535SOL    HW1 6279   1.419   6.042   8.480 -0.2107 -0.4550 -0.1963
 1535SOL    HW2 6280   1.428   6.188   8.441  0.6218  0.1268  2.0245
 1536SOL     OW 6281   5.598   3.799   2.815 -0.0043 -0.5581 -0.6338
 1536SOL    HW1 6282   5.611   3.862   2.887  0.3058 -2.3213  0.9403
 1536SOL    HW2 6283   5.503   3.788   2.810  0.0138 -1.1314  0.1670
 1537SOL     OW 6284   4.277   2.327   0.633 -0.0074 -0.7820  0.2900
 1537SOL    HW1 6285   4.272   2.236   0.603  0.1804 -0.1828 -1.7172
 1537SOL    HW2 6286   4.368   2.353   0.615 -0.2905  0.0484  0.0210
 1538SOL     OW 6287   4.611   3.566   1.067  0.5792  0.4444  0.1660
 1538SOL    HW1 6288   4.683   3.576   1.004  1.5542 -0.2909  1.1467
 1538SOL    HW2 6289   4.624   3.637   1.129 -0.2330  1.0092 -0.2942
 1539SOL     OW 6290   0.011   0.609   7.103  0.4080  0.0864 -0.7595
 1539SOL    HW1 6291   0.009   0.693   7.148  0.3633  0.1326 -0.8472
 1539SOL    HW2 6292  -0.012   0.545   7.170 -0.3132  0.2236 -0.8728
 1540SOL     OW 6293   0.447   4.149   9.646 -0.0028  0.3229  0.4490
 1540SOL    HW1 6294   0.496   4.156   9.564 -0.8305  0.0478 -0.0786
 1540SOL    HW2 6295   0.502   4.195   9.710  0.0658  1.6695 -0.5160
 1541SOL     OW 6296   1.497   4.095   1.590 -0.1645  0.0186 -0.4919
 1541SOL    HW1 6297   1.515   4.023   1.650 -0.9266 -0.1937 -0.5096
 1541SOL    HW2 6298   1.461   4.164   1.645 -0.3510  0.0265 -0.6242
 1542SOL     OW 6299   1.047   4.078   1.771 -0.0916  0.0319 -0.0519
 1542SOL    HW1 6300   0.986   4.012   1.740 -1.6119  0.9960  0.7850
 1542SOL    HW2 6301   0.993   4.154   1.792  1.2288  0.5596  1.7480
 1543SOL     OW 6302   3.855   1.874   4.032  0.4308  0.1214 -0.2622
 1543SOL    HW1 6303   3.863   1.906   4.122 -0.0359  0.5485 -0.3678
 1543SOL    HW2 6304   3.763   1.852   4.022  0.5862 -0.4695 -0.4607
 1544SOL     OW 6305   0.771   5.282   5.926 -0.4152 -0.2487  0.0029
 1544SOL    HW1 6306   0.693   5.321   5.885 -1.3697 -1.0398  0.9851
 1544SOL    HW2 6307   0.768   5.190   5.899  0.8353 -0.0406 -0.8820
 1545SOL     OW 6308   5.239   1.192   9.169  0.4894 -0.2463 -0.3785
 1545SOL    HW1 6309   5.222   1.261   9.233 -1.6302 -0.2887 -0.8155
 1545SOL    HW2 6310   5.328   1.208   9.139  0.5409  1.4351  0.5536
 1546SOL     OW 6311   2.809   1.108   2.474 -0.3188 -0.5564 -0.0461
 1546SOL    HW1 6312   2.850   1.145   2.396 -0.0601  0.3704  0.5144
 1546SOL    HW2 6313   2.880   1.066   2.522 -0.7508 -2.6989 -1.1316
 1547SOL     OW 6314   8.253   6.188   7.222  0.3482  0.5792  0.7711
 1547SOL    HW1 6315   8.307   6.155   7.151 -0.6618  0.8133 -0.1449
 1547SOL    HW2 6316   8.301   6.167   7.302  1.7186  0.6996 -0.0022
 1548SOL     OW 6317   0.000   3.590   1.019  0.1503  0.0017 -0.0991
 1548SOL    HW1 6318   0.018   3.640   0.939 -0.4473 -0.3061 -0.4323
 1548SOL    HW2 6319  -0.065   3.643   1.065 -1.9292 -1.3272 -1.3532
 1549SOL     OW 6320   7.910   0.993   2.261  0.4347 -0.0313 -0.5029
 1549SOL    HW1 6321   7.927   1.085   2.283 -0.7939  0.1010 -0.0678
 1549SOL    HW2 6322   7.911   0.991   2.165 -1.1437  0.7730 -0.5582
 1550SOL     OW 6323   7.077   5.246   6.244  0.3235 -0.1004  0.0888
 1550SOL    HW1 6324   7.056   5.272   6.333 -1.0287  0.3456 -0.3212
 1550SOL    HW2 6325   7.036   5.160   6.234  1.2438 -0.5551  0.1678
 1551SOL     OW 6326   6.596   1.757   8.394  0.2492 -0.1253 -0.1063
 1551SOL    HW1 6327   6.618   1.756   8.487  1.3520  0.0587 -0.3520
 1551SOL    HW2 6328   6.654   1.692   8.354 -0.1951 -0.1894 -0.6729
 1552SOL     OW 6329   5.160   4.270   2.218 -0.2878 -0.5079  0.2686
 1552SOL    HW1 6330   5.121   4.302   2.299  1.3113  0.4463  0.7141
 1552SOL    HW2 6331   5.183   4.179   2.238 -1.4577 -0.8158  0.2810
 1553SOL     OW 6332   5.575   3.730   4.620  0.1058 -0.0024 -0.4433
 1553SOL    HW1 6333   5.631   3.683   4.558  0.1436 -0.3906 -0.1168
 1553SOL    HW2 6334   5.584   3.822   4.595 -0.0582 -0.1707 -1.1654
 1554SOL     OW 6335   8.596   0.299   8.347  0.3360 -0.5271  0.3345
 1554SOL    HW1 6336   8.631   0.221   8.389 -0.4216 -0.5885  0.8599
 1554SOL    HW2 6337   8.589   0.364   8.417  0.9982  0.0363 -0.1033
 1555SOL     OW 6338   7.186   0.060   3.430  0.1315  0.0169 -0.6803
 1555SOL    HW1 6339   7.238   0.030   3.356  1.1393 -0.5522  0.2378
 1555SOL    HW2 6340   7.180  -0.016   3.488  0.4338  0.8068  0.4167
 1556SOL     OW 6341   6.655   5.054   3.768  0.2886  0.1958  0.2055
 1556SOL    HW1 6342   6.561   5.049   3.751  0.5419  0.3748 -1.3804
 1556SOL    HW2 6343   6.665   5.015   3.855 -1.3152  0.7405  0.6898
 1557SOL     OW 6344   0.769   8.345   7.245 -0.3988 -0.1666 -0.3671
 1557SOL    HW1 6345   0.851   8.308   7.213  0.8951  1.1296  1.2690
 1557SOL    HW2 6346   0.705   8.326   7.176  0.8567 -2.6373 -0.9582
 1558SOL     OW 6347   0.386   7.115   0.563  0.2440  0.4660 -0.1645
 1558SOL    HW1 6348   0.429   7.044   0.611  0.8137  0.4600 -0.6776
 1558SOL    HW2 6349   0.456   7.178   0.545 -0.5059  1.8256  1.4624
 1559SOL     OW 6350   3.616   1.056   1.279 -0.4685  0.2431  0.0209
 1559SOL    HW1 6351   3.522   1.046   1.292 -0.6179  1.0470 -0.3972
 1559SOL    HW2 6352   3.652   0.968   1.296 -1.5392 -0.6446 -2.0148
 1560SOL     OW 6353   3.689   0.848   2.313 -0.3476  0.3000 -0.8335
 1560SOL    HW1 6354   3.759   0.790   2.344 -0.3267 -0.3285 -1.9919
 1560SOL    HW2 6355   3.735   0.920   2.270 -0.3661  1.3535  0.8175
 1561SOL     OW 6356   6.077   5.068   0.348  0.0829 -0.1791 -0.2197
 1561SOL    HW1 6357   6.161   5.080   0.304  0.2147  0.0218  0.0873
 1561SOL    HW2 6358   6.062   4.974   0.345 -0.8787 -0.0416 -2.4972
 1562SOL     OW 6359   2.900   0.280   1.397 -0.3713  0.3184  0.2794
 1562SOL    HW1 6360   2.912   0.219   1.324 -2.5478  2.4825 -2.1008
 1562SOL    HW2 6361   2.891   0.224   1.474 -0.0033 -2.2122 -1.4103
 1563SOL     OW 6362   0.390   5.747   4.833  0.4438  0.6803 -0.4396
 1563SOL    HW1 6363   0.400   5.839   4.806 -2.6813  1.3267  0.1840
 1563SOL    HW2 6364   0.380   5.751   4.928 -1.4055 -0.0407 -0.5553
 1564SOL     OW 6365   0.530   6.945   0.722  0.2886 -0.2526  0.1116
 1564SOL    HW1 6366   0.597   6.877   0.725 -0.9564 -1.5665 -0.6995
 1564SOL    HW2 6367   0.570   7.020   0.766  2.6238 -0.6646 -1.1831
 1565SOL     OW 6368   7.556   1.006   7.732 -0.2843  0.5977  0.0760
 1565SOL    HW1 6369   7.492   1.041   7.669 -1.0332  0.5650  0.8060
 1565SOL    HW2 6370   7.555   0.912   7.716  0.0179  0.6584 -0.3115
 1566SOL     OW 6371   4.542   3.389   3.423  0.4190  0.5087  0.2985
 1566SOL    HW1 6372   4.472   3.384   3.487  0.7870 -0.6891  0.6229
 1566SOL    HW2 6373   4.560   3.298   3.399  1.6282  0.8140 -0.0264
 1567SOL     OW 6374   6.705   2.844   0.276 -0.4832  0.0444  0.0239
 1567SOL    HW1 6375   6.768   2.776   0.250 -0.5338  0.2092 -0.5440
 1567SOL    HW2 6376   6.758   2.909   0.322 -0.8389 -1.7427  3.3140
 1568SOL     OW 6377   7.786   3.159   2.191  0.2625 -0.5013 -0.2427
 1568SOL    HW1 6378   7.759   3.069   2.174 -1.8869  0.3359 -1.7442
 1568SOL    HW2 6379   7.756   3.208   2.114  0.7827  1.6024  0.8106
 1569SOL     OW 6380   2.851   9.170   0.498 -0.4788  0.1130  0.0026
 1569SOL    HW1 6381   2.877   9.101   0.437 -0.1055  0.9066 -0.7417
 1569SOL    HW2 6382   2.909   9.158   0.574  0.9001  0.7783 -0.9144
 1570SOL     OW 6383   5.891   5.411   4.365 -0.1019  0.4132 -0.5314
 1570SOL    HW1 6384   5.877   5.327   4.410  0.0954  0.1185 -1.0207
 1570SOL    HW2 6385   5.805   5.433   4.329  0.4402 -1.0143 -2.8709
 1571SOL     OW 6386   6.367   0.386   8.787  0.0116  0.2087  0.4938
 1571SOL    HW1 6387   6.274   0.406   8.796  0.4632  2.3751  0.9275
 1571SOL    HW2 6388   6.387   0.330   8.863 -1.4156 -2.5873 -1.0271
 1572SOL     OW 6389   8.256   2.881   5.380  0.4823 -0.7793 -0.5418
 1572SOL    HW1 6390   8.329   2.910   5.325  0.3688 -0.7243 -0.6660
 1572SOL    HW2 6391   8.278   2.912   5.468  0.3507 -0.2907 -0.6780
 1573SOL     OW 6392   7.272   0.423   3.663 -0.7866  0.1604 -0.7239
 1573SOL    HW1 6393   7.224   0.501   3.634 -1.1144  0.3166  0.1898
 1573SOL    HW2 6394   7.204   0.363   3.692 -0.4951 -0.2025 -0.7873
 1574SOL     OW 6395   4.044   2.938   9.599  0.0955  0.2123 -0.0946
 1574SOL    HW1 6396   3.999   2.867   9.645  0.5759 -0.6941 -0.9775
 1574SOL    HW2 6397   3.976   3.004   9.586 -0.7724 -0.7355 -0.5916
 1575SOL     OW 6398   3.071   6.377   0.435  0.4538  0.4017 -0.4452
 1575SOL    HW1 6399   3.102   6.423   0.513  0.0357  0.7366 -0.4744
 1575SOL    HW2 6400   3.038   6.293   0.469 -0.0669  0.6997 -0.2160
 1576SOL     OW 6401   2.065   8.237   5.578 -0.3128 -0.2655 -0.0097
 1576SOL    HW1 6402   2.105   8.291   5.510 -2.4926  0.2644 -0.9573
 1576SOL    HW2 6403   2.104   8.269   5.659  0.2385  1.0584 -0.7522
 1577SOL     OW 6404   8.344   1.187   0.813  0.1925  0.3873  0.1826
 1577SOL    HW1 6405   8.339   1.095   0.839 -0.5879  0.5269  0.5559
 1577SOL    HW2 6406   8.327   1.236   0.893 -0.1419  0.8514 -0.1661
 1578SOL     OW 6407   6.117   0.365   0.444 -0.0816 -0.1741 -0.1078
 1578SOL    HW1 6408   6.156   0.385   0.358 -2.1618 -0.0015 -1.0775
 1578SOL    HW2 6409   6.075   0.280   0.432 -0.1739 -0.2655  0.8312
 1579SOL     OW 6410   2.878   7.189   4.743  0.2804 -0.3319 -0.1122
 1579SOL    HW1 6411   2.833   7.266   4.777  1.6562  0.1408  0.7370
 1579SOL    HW2 6412   2.852   7.184   4.651 -2.0616 -0.5497  0.4910
 1580SOL     OW 6413   1.734   4.556   3.314 -0.0964  0.4488 -0.4480
 1580SOL    HW1 6414   1.639   4.541   3.312  0.0765 -0.8209 -0.0074
 1580SOL    HW2 6415   1.760   4.532   3.403  0.9781 -1.6106 -1.2454
 1581SOL     OW 6416   0.810   7.602   4.902  0.3538 -0.2873  0.4556
 1581SOL    HW1 6417   0.803   7.667   4.972 -1.8950 -0.9468  0.9485
 1581SOL    HW2 6418   0.719   7.584   4.877  1.0603  1.0927 -3.8468
 1582SOL     OW 6419   5.716   5.844   7.348  0.3681 -0.2212  0.3488
 1582SOL    HW1 6420   5.736   5.928   7.389  0.8062 -0.0799 -0.1484
 1582SOL    HW2 6421   5.670   5.866   7.267  1.1157 -0.4255 -0.1414
 1583SOL     OW 6422   5.774   4.702   8.343 -0.0488 -0.2682  0.4956
 1583SOL    HW1 6423   5.688   4.713   8.303  0.4767 -0.8082 -0.8412
 1583SOL    HW2 6424   5.758   4.710   8.437 -1.4186  0.4751  0.2246
 1584SOL     OW 6425   1.319   3.717   0.247  0.2919 -0.0651  0.1872
 1584SOL    HW1 6426   1.286   3.806   0.235 -2.0830 -1.0267 -1.0851
 1584SOL    HW2 6427   1.244   3.661   0.231  1.7811 -2.3446  0.6844
 1585SOL     OW 6428   0.724   6.519   3.452 -0.2517  0.0300  0.0268
 1585SOL    HW1 6429   0.750   6.437   3.494 -1.9935 -0.1293  0.8835
 1585SOL    HW2 6430   0.723   6.583   3.523 -0.0252  0.5360 -0.4209
 1586SOL     OW 6431   6.527   8.323   0.908 -0.8752  0.0356 -0.0503
 1586SOL    HW1 6432   6.438   8.323   0.874 -0.9701  1.6158  0.1201
 1586SOL    HW2 6433   6.518   8.355   0.998  0.1079  3.2082 -0.9408
 1587SOL     OW 6434   6.414   3.693   5.140  0.2781 -0.5136 -0.1504
 1587SOL    HW1 6435   6.405   3.629   5.069 -1.5010 -0.2922 -0.1550
 1587SOL    HW2 6436   6.387   3.776   5.101 -0.6666 -0.3808  0.7648
 1588SOL     OW 6437   2.084   1.133   4.774 -0.3194  0.0705 -0.0111
 1588SOL    HW1 6438   2.086   1.203   4.840  0.3911 -0.4175  0.4968
 1588SOL    HW2 6439   2.126   1.059   4.817  0.2691 -0.2185 -1.0594
 1589SOL     OW 6440   1.012   6.225   3.195 -0.1524 -0.7665  0.3619
 1589SOL    HW1 6441   0.921   6.240   3.221 -0.6482  0.4972 -1.8724
 1589SOL    HW2 6442   1.026   6.283   3.120  1.9146 -2.3182 -0.5556
 1590SOL     OW 6443   5.258   4.128   0.237  0.3132  0.3904  0.2697
 1590SOL    HW1 6444   5.257   4.187   0.312 -0.6991 -0.9530  1.3562
 1590SOL    HW2 6445   5.348   4.095   0.234  0.6848  1.3913  0.1145
 1591SOL     OW 6446   2.448   4.460   9.465  0.1442  0.3727  0.2026
 1591SOL    HW1 6447   2.489   4.544   9.484 -1.6172  1.4757 -0.6243
 1591SOL    HW2 6448   2.354   4.477   9.472 -0.2975 -1.2209 -1.1326
 1592SOL     OW 6449   3.197   5.797   3.108  0.1197 -0.5837  0.2747
 1592SOL    HW1 6450   3.161   5.875   3.150  2.4916  1.9753 -2.0829
 1592SOL    HW2 6451   3.289   5.795   3.136  0.7588 -0.9990 -1.6863
 1593SOL     OW 6452   0.435   4.951   1.100  0.1459 -0.1428 -0.4974
 1593SOL    HW1 6453   0.520   4.941   1.055  0.6915 -1.4296  0.7366
 1593SOL    HW2 6454   0.393   5.024   1.055  1.4928 -0.1061 -1.7963
 1594SOL     OW 6455   5.556   4.608   3.883 -0.2518  0.4705 -0.2827
 1594SOL    HW1 6456   5.602   4.663   3.947 -0.7339  1.3035 -0.6354
 1594SOL    HW2 6457   5.472   4.589   3.924  0.0796 -0.4172  0.0324
 1595SOL     OW 6458   1.330   4.743   5.635 -0.1211 -0.7309 -0.1171
 1595SOL    HW1 6459   1.286   4.815   5.590  0.1638  1.5399  2.9260
 1595SOL    HW2 6460   1.260   4.691   5.673 -0.3763  0.7382  1.5770
 1596SOL     OW 6461   6.304   7.911   1.213  0.0522 -0.1286 -0.0384
 1596SOL    HW1 6462   6.278   7.876   1.128  0.6955 -2.0445  0.4983
 1596SOL    HW2 6463   6.359   7.986   1.193  0.2651 -0.6081 -1.3216
 1597SOL     OW 6464   2.542   2.125   3.963 -0.0808 -0.0010 -0.5687
 1597SOL    HW1 6465   2.493   2.053   4.003  1.3159 -0.5470  0.2548
 1597SOL    HW2 6466   2.628   2.087   3.944  0.5074  1.3045 -0.6033
 1598SOL     OW 6467   6.965   2.432   3.351 -0.0609  0.6128  0.1030
 1598SOL    HW1 6468   7.056   2.414   3.373  0.3627  1.9605 -0.3848
 1598SOL    HW2 6469   6.917   2.424   3.433  0.3967 -0.6806  0.2518
 1599SOL     OW 6470   0.654   8.669   5.381 -0.8229  0.1337  0.2640
 1599SOL    HW1 6471   0.728   8.724   5.407  1.0555 -1.8478 -0.5410
 1599SOL    HW2 6472   0.645   8.684   5.287  0.2948 -1.4719 -0.1478
 1600SOL     OW 6473   6.780   2.165   9.621  0.4742  0.1003  0.0442
 1600SOL    HW1 6474   6.796   2.082   9.575  1.7221  0.2852  0.0992
 1600SOL    HW2 6475   6.711   2.207   9.571 -1.0844 -1.5197  0.7263
 1601SOL     OW 6476   5.439   4.408   4.995 -0.1101  0.3430  0.2496
 1601SOL    HW1 6477   5.437   4.332   5.054  0.4213 -0.5106 -0.7972
 1601SOL    HW2 6478   5.511   4.390   4.935 -1.6874  0.3543 -1.7349
 1602SOL     OW 6479   8.442   3.069   6.262 -0.8302  0.7598 -0.2066
 1602SOL    HW1 6480   8.429   3.079   6.167  1.5578  0.1609 -0.6828
 1602SOL    HW2 6481   8.529   3.106   6.278 -1.3373  1.1756  1.8487
 1603SOL     OW 6482   8.146   1.345   1.811 -0.7090  0.1972  0.0491
 1603SOL    HW1 6483   8.095   1.278   1.856 -1.3861  0.8731  0.3046
 1603SOL    HW2 6484   8.209   1.296   1.758 -1.9442 -0.6772 -0.6633
 1604SOL     OW 6485   3.953   5.423   5.069 -0.1317 -0.0689 -0.1374
 1604SOL    HW1 6486   4.048   5.414   5.082  0.2682  1.3936 -1.7574
 1604SOL    HW2 6487   3.933   5.513   5.095 -0.6685  0.3435 -1.9016
 1605SOL     OW 6488   5.358   6.831   7.715  0.3899  0.2142 -0.6724
 1605SOL    HW1 6489   5.435   6.888   7.707  0.7961 -0.2642 -0.2346
 1605SOL    HW2 6490   5.387   6.748   7.677  0.4513 -0.3010  0.4859
 1606SOL     OW 6491   3.254   3.175   5.312  0.4033 -0.4295 -0.0934
 1606SOL    HW1 6492   3.207   3.174   5.395  0.2315 -1.1560 -0.1901
 1606SOL    HW2 6493   3.192   3.137   5.250 -0.1556  1.6981 -0.9469
 1607SOL     OW 6494   8.985   6.663   6.355 -0.3829 -0.6133  0.7772
 1607SOL    HW1 6495   8.945   6.586   6.396  0.7063 -1.1859  0.7959
 1607SOL    HW2 6496   8.917   6.731   6.359 -1.6898 -1.8306 -0.0706
 1608SOL     OW 6497   9.368   0.372   4.848 -0.4921 -0.1777 -0.2515
 1608SOL    HW1 6498   9.369   0.333   4.936 -2.4226 -0.9979 -0.5423
 1608SOL    HW2 6499   9.324   0.307   4.794 -1.4971  1.3478 -1.3253
 1609SOL     OW 6500   3.537   5.331   3.535 -0.1751  0.4776  0.5674
 1609SOL    HW1 6501   3.624   5.335   3.577 -0.0362 -0.5870  0.4047
 1609SOL    HW2 6502   3.485   5.276   3.594  0.3387 -1.9796 -1.1395
 1610SOL     OW 6503   6.233   2.330   9.422 -0.2695  0.1184 -0.6585
 1610SOL    HW1 6504   6.195   2.280   9.494  0.1550 -0.2975 -0.7141
 1610SOL    HW2 6505   6.232   2.269   9.348  1.5801 -0.3170 -0.3614
 1611SOL     OW 6506   1.651   4.024   9.103  0.2650 -0.3682  0.0357
 1611SOL    HW1 6507   1.636   3.964   9.175  1.9726 -0.3135  0.4691
 1611SOL    HW2 6508   1.589   4.096   9.119  0.3649 -0.5292  1.2339
 1612SOL     OW 6509   3.333   7.144   6.901 -0.1711 -0.0253  0.1484
 1612SOL    HW1 6510   3.345   7.055   6.933 -1.8735 -0.4640 -0.3614
 1612SOL    HW2 6511   3.276   7.186   6.965  0.4326  0.6325  0.2674
 1613SOL     OW 6512   6.039   4.675   2.095  0.8274 -0.3438  0.2617
 1613SOL    HW1 6513   6.010   4.765   2.079  2.1331  0.4470  2.0049
 1613SOL    HW2 6514   6.094   4.654   2.020  0.5611  0.3296 -0.1291
 1614SOL     OW 6515   0.469   8.251   1.554  0.1319  0.3473  0.3408
 1614SOL    HW1 6516   0.511   8.285   1.633  0.1381 -2.2873  1.5600
 1614SOL    HW2 6517   0.535   8.193   1.515  0.1979  1.7077 -1.7699
 1615SOL     OW 6518   5.949   4.813   5.891 -0.2454 -0.4476 -0.0982
 1615SOL    HW1 6519   5.956   4.749   5.962 -0.4981  0.2781  0.5981
 1615SOL    HW2 6520   6.037   4.819   5.855 -0.0399 -0.5820  0.3715
 1616SOL     OW 6521   6.284   6.590   0.070 -0.4431 -0.3845  0.7950
 1616SOL    HW1 6522   6.343   6.638   0.128 -0.2600 -1.2966  1.3781
 1616SOL    HW2 6523   6.255   6.656   0.007  1.5598 -0.0121  0.1788
 1617SOL     OW 6524   8.026   2.499   5.153  0.2136  0.3955 -0.8089
 1617SOL    HW1 6525   8.098   2.539   5.203 -0.2633 -0.5809  0.7591
 1617SOL    HW2 6526   8.069   2.461   5.077  1.6951 -1.4681  0.8295
 1618SOL     OW 6527   5.945   0.789   8.683  0.2393 -0.2592  0.6262
 1618SOL    HW1 6528   5.959   0.720   8.619  1.4426 -0.5786  1.1949
 1618SOL    HW2 6529   6.029   0.797   8.729  0.1392  1.5734  0.5827
 1619SOL     OW 6530   2.950   1.388   2.012 -0.4203 -0.8860  0.2674
 1619SOL    HW1 6531   2.876   1.427   2.059  0.2920  0.9115 -0.0289
 1619SOL    HW2 6532   3.024   1.399   2.071 -0.1610 -1.6588  0.0953
 1620SOL     OW 6533   6.096   2.228   3.128 -0.6142 -0.0381 -0.4719
 1620SOL    HW1 6534   6.110   2.300   3.067  2.3824 -0.9070 -0.9982
 1620SOL    HW2 6535   6.154   2.159   3.096 -1.5592 -1.7951  1.4146
 1621SOL     OW 6536   6.047   8.097   7.219 -0.5200 -0.0800 -0.3765
 1621SOL    HW1 6537   5.986   8.058   7.283 -0.8518 -0.6625 -1.0372
 1621SOL    HW2 6538   6.102   8.025   7.191  0.7068  0.5004  0.4303
 1622SOL     OW 6539   2.077   6.809   6.932  0.5494  0.2248 -0.7964
 1622SOL    HW1 6540   2.027   6.755   6.871  1.2322 -0.7276 -0.5486
 1622SOL    HW2 6541   2.010   6.853   6.986 -0.0339  0.3649 -1.6172
 1623SOL     OW 6542   5.277   3.859   0.129  0.0302 -0.0332  0.0718
 1623SOL    HW1 6543   5.220   3.830   0.057  0.0470  0.8508 -0.3147
 1623SOL    HW2 6544   5.250   3.950   0.145  0.9308  0.2073  0.2799
 1624SOL     OW 6545   6.117   3.188   1.060  0.1239  0.7386  0.3591
 1624SOL    HW1 6546   6.168   3.108   1.047 -0.6534  0.1604  0.7654
 1624SOL    HW2 6547   6.182   3.256   1.075  0.9052  0.6347 -2.0786
 1625SOL     OW 6548   0.423   0.866   4.765 -0.3218  0.4309 -0.4812
 1625SOL    HW1 6549   0.402   0.819   4.684 -1.0140 -0.5414  0.2308
 1625SOL    HW2 6550   0.391   0.955   4.751 -0.8938  0.1341 -1.0922
 1626SOL     OW 6551   7.964   0.856   7.531 -0.3769 -0.1388  0.6132
 1626SOL    HW1 6552   7.968   0.948   7.506 -1.8241 -0.1915  0.0759
 1626SOL    HW2 6553   8.018   0.850   7.610  0.3705  0.9978  0.2128
 1627SOL     OW 6554   0.665   0.972   2.503 -0.0505 -0.6023 -0.5958
 1627SOL    HW1 6555   0.741   0.941   2.552 -0.0681  0.4581  0.1311
 1627SOL    HW2 6556   0.604   0.899   2.505  0.6051 -1.1584 -0.4482
 1628SOL     OW 6557   5.926   0.230   2.749 -0.0675 -0.4723 -0.3891
 1628SOL    HW1 6558   5.886   0.144   2.755  0.2965 -0.5852  0.5683
 1628SOL    HW2 6559   6.001   0.218   2.691 -0.2156 -0.7168 -0.5314
 1629SOL     OW 6560   1.629   1.762   1.522  0.2780 -0.1223  0.1145
 1629SOL    HW1 6561   1.571   1.802   1.588  0.0300 -0.6542  0.2235
 1629SOL    HW2 6562   1.712   1.749   1.568  0.0564 -0.6369  0.3674
 1630SOL     OW 6563   7.375   0.723   7.113  0.6090  0.0638  0.0458
 1630SOL    HW1 6564   7.443   0.689   7.172  0.5855 -1.4213 -0.7252
 1630SOL    HW2 6565   7.417   0.724   7.027  0.0745  0.4414 -0.2153
 1631SOL     OW 6566   7.723   0.332   6.335 -0.1078 -0.4648  0.4540
 1631SOL    HW1 6567   7.695   0.251   6.292 -1.0095 -0.4773  1.0463
 1631SOL    HW2 6568   7.661   0.398   6.306  2.2920  0.7534 -2.3476
 1632SOL     OW 6569   1.646   3.338   6.157  0.2402  0.2744  0.0999
 1632SOL    HW1 6570   1.698   3.308   6.082  0.2389  0.6584 -0.0563
 1632SOL    HW2 6571   1.648   3.433   6.151 -0.4254  0.2957  0.1338
 1633SOL     OW 6572   6.698   7.526   4.258 -0.7007 -0.2336 -0.3871
 1633SOL    HW1 6573   6.687   7.431   4.254 -1.8916 -0.0842 -1.2264
 1633SOL    HW2 6574   6.674   7.550   4.348 -1.2307 -0.6367 -0.4199
 1634SOL     OW 6575   8.612   7.799   1.801  0.4328 -0.0108  0.1009
 1634SOL    HW1 6576   8.567   7.769   1.722  1.3874  0.6023 -0.7074
 1634SOL    HW2 6577   8.628   7.892   1.785  0.6309  0.1200  1.0224
 1635SOL     OW 6578   0.480   9.639   1.485 -0.0632  0.2015 -0.3089
 1635SOL    HW1 6579   0.451   9.676   1.401 -0.2939  1.0058  0.1187
 1635SOL    HW2 6580   0.477   9.545   1.471  0.7701  0.3283 -1.5025
 1636SOL     OW 6581   5.696   9.423   9.662 -0.3518  0.0897  0.1873
 1636SOL    HW1 6582   5.736   9.427   9.575  0.1090 -0.2624  0.3825
 1636SOL    HW2 6583   5.629   9.354   9.654  0.5617 -0.8532  0.4568
 1637SOL     OW 6584   5.931   7.048   7.662  0.2193 -0.0184  0.0454
 1637SOL    HW1 6585   6.003   6.990   7.636  0.5381  0.4180 -0.0541
 1637SOL    HW2 6586   5.901   7.086   7.580 -0.0416 -0.0964  0.1035
 1638SOL     OW 6587   7.983   8.264   1.585 -0.3681  0.5235  0.2438
 1638SOL    HW1 6588   8.021   8.293   1.668  1.3344 -0.2806 -0.2076
 1638SOL    HW2 6589   7.980   8.168   1.593  3.2106  0.0394 -1.8661
 1639SOL     OW 6590   0.970   0.430   2.685 -0.3992  0.5581  0.0206
 1639SOL    HW1 6591   1.031   0.466   2.750  0.5661 -1.4425  0.2741
 1639SOL    HW2 6592   1.003   0.463   2.602 -1.3536  2.7319  0.4197
 1640SOL     OW 6593   3.926   2.755   0.932  0.7403 -0.0783 -0.3525
 1640SOL    HW1 6594   4.000   2.771   0.873  0.7592  3.1638  0.3685
 1640SOL    HW2 6595   3.858   2.718   0.876  1.5509  0.7237 -1.9201
 1641SOL     OW 6596   6.108   2.581   9.512  0.2166  0.5164  0.1070
 1641SOL    HW1 6597   6.091   2.514   9.446  1.7509  0.9339 -0.7524
 1641SOL    HW2 6598   6.022   2.616   9.534 -0.8197 -2.4639  1.4147
 1642SOL     OW 6599   5.225   0.341   3.882 -0.5203  0.2286  0.0909
 1642SOL    HW1 6600   5.162   0.372   3.817  0.6495  0.8847 -0.7705
 1642SOL    HW2 6601   5.295   0.406   3.881  0.3856 -0.6988  0.7005
 1643SOL     OW 6602   4.358   9.184   4.830 -0.5470  0.2024 -0.3031
 1643SOL    HW1 6603   4.281   9.142   4.870 -0.9596  1.8977  0.7951
 1643SOL    HW2 6604   4.323   9.262   4.788  0.0331 -1.0126 -3.3201
 1644SOL     OW 6605   3.346   8.381   9.556  0.3206  0.0100  0.5040
 1644SOL    HW1 6606   3.252   8.392   9.540  0.4430  0.5713  0.1596
 1644SOL    HW2 6607   3.371   8.308   9.498  0.2972  0.5311 -0.1738
 1645SOL     OW 6608   3.228   7.557   9.035 -0.1758  0.4061 -0.4117
 1645SOL    HW1 6609   3.190   7.608   9.107 -0.6835 -1.1978  0.5182
 1645SOL    HW2 6610   3.269   7.482   9.079 -0.1044 -0.3765 -1.7776
 1646SOL     OW 6611   0.747   7.361   5.598 -0.2469  0.0375  0.2567
 1646SOL    HW1 6612   0.828   7.327   5.561 -0.4832 -1.7972  1.3377
 1646SOL    HW2 6613   0.723   7.299   5.667 -1.9649  1.1574  0.7422
 1647SOL     OW 6614   4.094   1.179   4.938  0.0569  0.4069  0.0651
 1647SOL    HW1 6615   4.110   1.264   4.897 -1.3676  1.4522  1.5107
 1647SOL    HW2 6616   3.999   1.168   4.933  0.2348 -1.2533 -0.3089
 1648SOL     OW 6617   2.625   6.123   9.510 -0.0531  0.5383 -0.1701
 1648SOL    HW1 6618   2.547   6.158   9.466  0.5843  0.2374 -1.5849
 1648SOL    HW2 6619   2.658   6.196   9.563 -1.2564  0.6793  0.4240
 1649SOL     OW 6620   0.990   2.565   1.675 -0.0212  0.1643  0.1090
 1649SOL    HW1 6621   0.994   2.545   1.581  0.7385 -0.4320  0.2570
 1649SOL    HW2 6622   1.061   2.629   1.689 -1.7232  2.2162 -0.1564
 1650SOL     OW 6623   5.508   2.539   0.843 -0.3366 -0.4531 -0.0642
 1650SOL    HW1 6624   5.488   2.490   0.763 -0.1417 -0.1383 -0.3068
 1650SOL    HW2 6625   5.581   2.595   0.819 -0.5780 -0.0187  0.2025
 1651SOL     OW 6626   5.711   7.647   7.548 -0.0861 -0.2992 -0.0057
 1651SOL    HW1 6627   5.633   7.638   7.602 -0.3990 -0.9593 -0.5450
 1651SOL    HW2 6628   5.753   7.727   7.579 -0.5712 -0.3456  0.8004
 1652SOL     OW 6629   3.228   8.409   5.233  0.3752  0.3337 -0.0578
 1652SOL    HW1 6630   3.183   8.330   5.262  2.5544 -1.3544 -0.9942
 1652SOL    HW2 6631   3.162   8.478   5.240 -2.1025 -1.8234 -0.7046
 1653SOL     OW 6632   5.708   3.072   0.940  0.0549 -0.1700 -0.1316
 1653SOL    HW1 6633   5.787   3.018   0.934  0.8795  0.8241  1.1541
 1653SOL    HW2 6634   5.735   3.158   0.907 -0.6829 -0.0015 -0.3191
 1654SOL     OW 6635   2.303   8.424   3.894  0.1143 -0.7342 -0.3844
 1654SOL    HW1 6636   2.323   8.476   3.817 -1.5305  1.8383  0.7864
 1654SOL    HW2 6637   2.297   8.334   3.862  0.6457  0.0873 -2.9881
 1655SOL     OW 6638   8.228   5.915   3.354 -0.6491 -0.0169 -0.2195
 1655SOL    HW1 6639   8.263   6.004   3.360  0.6471 -0.5846  1.5273
 1655SOL    HW2 6640   8.138   5.923   3.384 -0.3769  0.6269  0.4721
 1656SOL     OW 6641   0.056   6.508   6.287 -0.1083  0.3351 -0.2644
 1656SOL    HW1 6642   0.071   6.525   6.194 -1.0586 -1.1376 -0.7135
 1656SOL    HW2 6643   0.136   6.466   6.317 -1.1210 -2.6576 -1.3856
 1657SOL     OW 6644   0.659   2.270   0.956  0.2988  0.1806 -0.4549
 1657SOL    HW1 6645   0.577   2.309   0.925 -1.3016 -1.1468  1.8182
 1657SOL    HW2 6646   0.676   2.199   0.894  0.2984  1.0673 -1.5007
 1658SOL     OW 6647   1.234   5.899   8.984 -0.0888 -0.2423 -0.1385
 1658SOL    HW1 6648   1.288   5.950   8.922  0.5930 -0.5704  0.1758
 1658SOL    HW2 6649   1.167   5.859   8.929  1.2500 -1.5492 -0.9002
 1659SOL     OW 6650   8.282   5.883   2.874 -0.6542 -0.0889  0.1107
 1659SOL    HW1 6651   8.239   5.919   2.952  0.1152  1.1741 -0.0181
 1659SOL    HW2 6652   8.345   5.819   2.908 -2.9895 -2.4798  0.2702
 1660SOL     OW 6653   5.435   3.919   9.140 -0.1351  0.4466  0.0532
 1660SOL    HW1 6654   5.466   4.003   9.172  0.5315  1.2139 -2.4065
 1660SOL    HW2 6655   5.341   3.931   9.127  0.1403  1.2068 -1.3484
 1661SOL     OW 6656   0.928   2.042   4.098 -0.4039  0.1527 -0.0578
 1661SOL    HW1 6657   0.936   2.118   4.155 -0.0055  0.7573 -0.9008
 1661SOL    HW2 6658   0.976   2.066   4.019  0.3755 -1.2699 -0.0407
 1662SOL     OW 6659   6.243   6.079   9.049  0.6146 -0.3983 -0.0339
 1662SOL    HW1 6660   6.232   6.019   8.976 -1.6894 -0.4352  0.2688
 1662SOL    HW2 6661   6.278   6.025   9.120 -2.4839 -1.7463  0.5897
 1663SOL     OW 6662   3.736   9.200   8.751 -0.4480 -0.3753 -0.3673
 1663SOL    HW1 6663   3.768   9.189   8.841  0.6605  0.5900 -0.6141
 1663SOL    HW2 6664   3.814   9.225   8.701 -1.0030 -1.1193 -1.6576
 1664SOL     OW 6665   7.984   4.282   4.538  0.1994  0.1991 -0.2807
 1664SOL    HW1 6666   8.013   4.369   4.564 -3.8168  1.2896  1.4024
 1664SOL    HW2 6667   7.992   4.229   4.618 -0.9470  0.1622 -0.1715
 1665SOL     OW 6668   7.463   8.430   8.183 -0.3412  0.5995 -0.5425
 1665SOL    HW1 6669   7.411   8.395   8.111 -3.2179  0.7320  1.3082
 1665SOL    HW2 6670   7.516   8.356   8.213 -0.6120  0.0074 -1.4865
 1666SOL     OW 6671   4.992   9.612   9.647 -0.0301  0.2353 -0.0621
 1666SOL    HW1 6672   5.010   9.706   9.654  1.2825 -0.0305  0.4479
 1666SOL    HW2 6673   4.936   9.604   9.570  0.6419  1.3476 -0.7015
 1667SOL     OW 6674   7.813   0.668   7.778  0.3420  0.4564 -0.1171
 1667SOL    HW1 6675   7.856   0.752   7.759  1.4007 -0.6604 -3.4497
 1667SOL    HW2 6676   7.875   0.602   7.747 -2.2030 -1.3930 -1.6946
 1668SOL     OW 6677   6.832   0.115   2.537 -0.8386  0.0021  0.2191
 1668SOL    HW1 6678   6.889   0.155   2.603 -1.7071  0.3660  0.7748
 1668SOL    HW2 6679   6.844   0.170   2.459  1.6832 -1.5667 -0.6154
 1669SOL     OW 6680   7.650   9.425   8.837 -0.1063  0.0266 -0.2091
 1669SOL    HW1 6681   7.706   9.426   8.759  1.2187 -0.6394  0.6999
 1669SOL    HW2 6682   7.580   9.363   8.815 -1.2128  1.7205 -1.7952
 1670SOL     OW 6683   4.374   2.175   3.290  0.3639 -0.0129 -0.4687
 1670SOL    HW1 6684   4.341   2.126   3.215  0.8443 -0.1175 -0.6123
 1670SOL    HW2 6685   4.451   2.221   3.257 -0.5529  1.5224 -0.5635
 1671SOL     OW 6686   6.205   1.556   7.616 -0.3753  0.1958 -0.0810
 1671SOL    HW1 6687   6.178   1.481   7.669 -1.3841 -0.4415 -1.4382
 1671SOL    HW2 6688   6.176   1.632   7.665 -1.9916 -0.4094 -0.0627
 1672SOL     OW 6689   0.838   2.576   6.226 -0.3323  0.1471  0.2846
 1672SOL    HW1 6690   0.768   2.640   6.210 -0.4514 -0.1917 -0.5682
 1672SOL    HW2 6691   0.802   2.518   6.293 -0.0974  1.1445  1.3301
 1673SOL     OW 6692   1.434   5.223   8.700 -0.0417 -0.3072 -0.4127
 1673SOL    HW1 6693   1.392   5.267   8.774  1.3533  0.8663 -0.2671
 1673SOL    HW2 6694   1.482   5.151   8.740  1.4205  0.8402 -0.0016
 1674SOL     OW 6695   7.118   9.354   1.809 -0.5547  0.4454  0.4968
 1674SOL    HW1 6696   7.126   9.299   1.730 -2.2109  1.6241 -0.5414
 1674SOL    HW2 6697   7.208   9.361   1.842  0.2285  0.1769 -1.4580
 1675SOL     OW 6698   0.042   1.784   1.461 -0.1063  0.2989  0.1279
 1675SOL    HW1 6699   0.052   1.713   1.524  0.1235  0.4995  0.3195
 1675SOL    HW2 6700  -0.033   1.835   1.493 -0.0806  0.3175  0.1582
 1676SOL     OW 6701   2.742   8.774   0.321 -0.0654  0.1004  0.0141
 1676SOL    HW1 6702   2.785   8.789   0.406 -1.6955 -1.1871  1.1222
 1676SOL    HW2 6703   2.811   8.738   0.265  0.6013 -0.8589  1.3988
 1677SOL     OW 6704   4.363   9.261   3.928  0.2369 -0.0597 -0.1686
 1677SOL    HW1 6705   4.399   9.293   3.846 -0.1416  0.3934 -0.1673
 1677SOL    HW2 6706   4.413   9.307   3.996  0.3893 -0.2518 -0.1523
 1678SOL     OW 6707   4.338   7.312   2.029  0.1697 -0.3173  0.3171
 1678SOL    HW1 6708   4.298   7.398   2.019  1.8376  0.4233 -0.2874
 1678SOL    HW2 6709   4.303   7.260   1.957 -0.2896  0.0737  0.2541
 1679SOL     OW 6710   2.068   5.885   8.569 -0.1223 -0.1778 -0.5845
 1679SOL    HW1 6711   2.042   5.794   8.586  1.0167 -0.7983 -1.9464
 1679SOL    HW2 6712   2.008   5.915   8.500 -0.1131 -0.0810 -0.5508
 1680SOL     OW 6713   8.063   5.788   6.299  0.3866  0.2630 -0.3669
 1680SOL    HW1 6714   8.107   5.765   6.218 -2.0020  1.2981 -2.0784
 1680SOL    HW2 6715   8.088   5.718   6.360 -0.1043 -2.3370 -2.8976
 1681SOL     OW 6716   8.422   6.168   3.824  0.3984  0.0584  0.7546
 1681SOL    HW1 6717   8.466   6.103   3.770  0.4628 -0.0208  0.9015
 1681SOL    HW2 6718   8.336   6.179   3.784  0.4754  0.0602  0.5885
 1682SOL     OW 6719   7.353   5.654   6.664 -0.1887  0.1505  0.1242
 1682SOL    HW1 6720   7.354   5.595   6.588  2.2977 -1.6957  1.4548
 1682SOL    HW2 6721   7.343   5.595   6.739 -0.1089  1.6990  1.3849
 1683SOL     OW 6722   0.881   4.384   1.892 -0.0496  0.2409  0.3930
 1683SOL    HW1 6723   0.858   4.341   1.810 -0.5366 -1.4964  1.3867
 1683SOL    HW2 6724   0.865   4.477   1.876 -1.6731 -0.2263 -0.9925
 1684SOL     OW 6725   6.412   5.447   4.579  0.1990 -0.5666 -0.8931
 1684SOL    HW1 6726   6.375   5.460   4.666  1.0229 -1.2349 -0.4330
 1684SOL    HW2 6727   6.397   5.354   4.560  1.3849 -0.7966 -0.7960
 1685SOL     OW 6728   1.058   3.855   8.863  0.4679  0.3230  0.2338
 1685SOL    HW1 6729   1.045   3.844   8.769  0.3196  0.4119  0.2434
 1685SOL    HW2 6730   0.970   3.874   8.897  0.4152 -0.3468  0.4826
 1686SOL     OW 6731   9.217   9.422   7.338 -0.7493 -0.0073  0.8669
 1686SOL    HW1 6732   9.267   9.342   7.321 -0.1759 -0.2245  3.1904
 1686SOL    HW2 6733   9.126   9.397   7.320 -0.4567 -0.8551  0.5127
 1687SOL     OW 6734   2.795   5.930   5.477 -0.2109 -0.3311  0.9151
 1687SOL    HW1 6735   2.870   5.985   5.452  0.2317 -1.2433  0.1749
 1687SOL    HW2 6736   2.762   5.970   5.557  0.4539  0.6742  0.7116
 1688SOL     OW 6737   7.165   8.038   7.507 -0.5050 -0.3768 -0.4381
 1688SOL    HW1 6738   7.226   7.998   7.569 -0.9607 -1.0564 -0.4233
 1688SOL    HW2 6739   7.150   8.126   7.542  0.6352 -0.1182 -0.5623
 1689SOL     OW 6740   5.528   8.618   7.287 -0.0765 -0.1693  0.2451
 1689SOL    HW1 6741   5.518   8.705   7.325 -0.2389  0.5805 -1.4519
 1689SOL    HW2 6742   5.442   8.597   7.252  0.1558 -0.6999 -0.0219
 1690SOL     OW 6743   0.471   3.741   2.154  0.1188  0.1005 -0.0785
 1690SOL    HW1 6744   0.448   3.818   2.206 -0.9555  1.3390 -2.2168
 1690SOL    HW2 6745   0.554   3.763   2.113  0.9910 -0.8916  1.0834
 1691SOL     OW 6746   8.838   3.715   9.070  0.1940  0.0538  0.0820
 1691SOL    HW1 6747   8.908   3.780   9.066  1.9671 -1.4590  3.1148
 1691SOL    HW2 6748   8.780   3.747   9.139 -0.8382  0.0550 -0.7542
 1692SOL     OW 6749   6.921   9.271   3.944 -0.5733  0.5301  0.3203
 1692SOL    HW1 6750   6.959   9.183   3.939 -0.2484  0.7036 -0.3374
 1692SOL    HW2 6751   6.883   9.286   3.857  0.2094  1.4140  0.1183
 1693SOL     OW 6752   2.436   9.094   7.705  0.4415  0.0222 -0.5888
 1693SOL    HW1 6753   2.490   9.036   7.759  0.4357  1.1678  0.6802
 1693SOL    HW2 6754   2.361   9.116   7.761 -1.1315 -1.1113 -2.1278
 1694SOL     OW 6755   7.213   2.364   0.334 -0.4756  0.5964 -0.2028
 1694SOL    HW1 6756   7.124   2.332   0.319 -0.2069 -0.1284 -0.2798
 1694SOL    HW2 6757   7.218   2.380   0.429  0.5360 -3.2555  0.5450
 1695SOL     OW 6758   7.229   8.580   0.875  0.0429  0.1031  0.0564
 1695SOL    HW1 6759   7.134   8.594   0.874  0.1719  1.1930  0.7575
 1695SOL    HW2 6760   7.265   8.668   0.866  0.9699  0.0845  2.7263
 1696SOL     OW 6761   1.596   2.263   4.097  0.0131  0.4839 -0.4209
 1696SOL    HW1 6762   1.620   2.175   4.070 -0.1941  0.1268  0.5076
 1696SOL    HW2 6763   1.535   2.294   4.030 -1.0024 -0.6229 -0.0367
 1697SOL     OW 6764   0.333   7.022   0.232  0.3697 -0.2051  0.2604
 1697SOL    HW1 6765   0.371   7.089   0.289 -0.2879  1.0186 -0.6714
 1697SOL    HW2 6766   0.290   6.961   0.292  0.5812  0.4712  1.1243
 1698SOL     OW 6767   4.378   9.044   0.258 -0.2261  0.7369  0.3893
 1698SOL    HW1 6768   4.468   9.061   0.230 -0.1294 -0.7920 -0.3451
 1698SOL    HW2 6769   4.324   9.095   0.199  0.0703 -0.7605 -1.2682
 1699SOL     OW 6770   9.517   6.246   9.263  0.0316  0.6653  0.0745
 1699SOL    HW1 6771   9.580   6.218   9.329  0.8488  1.7395 -0.2197
 1699SOL    HW2 6772   9.455   6.301   9.312  0.9173  1.8678 -0.0985
 1700SOL     OW 6773   9.260   0.870   0.056  0.0204  0.2945  0.3694
 1700SOL    HW1 6774   9.188   0.930   0.040 -1.9126 -1.6036  1.3514
 1700SOL    HW2 6775   9.237   0.825   0.138  2.4836 -0.1988  0.8903
 1701SOL     OW 6776   7.039   1.132   9.349 -0.3484 -0.3760  0.0042
 1701SOL    HW1 6777   7.085   1.203   9.394  0.9118  1.1210 -3.3736
 1701SOL    HW2 6778   6.974   1.176   9.294 -1.1182 -2.0231 -0.4780
 1702SOL     OW 6779   3.454   9.490   1.211 -0.3829 -0.0691  0.0428
 1702SOL    HW1 6780   3.457   9.526   1.300 -2.6808  1.1401 -0.2920
 1702SOL    HW2 6781   3.536   9.518   1.171  0.5028 -0.2787  1.6270
 1703SOL     OW 6782   0.034   3.454   4.423 -0.8781  0.4792  0.8475
 1703SOL    HW1 6783  -0.037   3.390   4.416  1.0462 -1.6121 -1.1749
 1703SOL    HW2 6784   0.098   3.413   4.481 -0.6649  1.6801  1.4855
 1704SOL     OW 6785   7.989   0.699   2.658  0.1500 -0.1284  0.1502
 1704SOL    HW1 6786   7.967   0.613   2.621  0.4696  0.0102 -0.3679
 1704SOL    HW2 6787   7.965   0.691   2.750  2.1049 -1.4798  0.5999
 1705SOL     OW 6788   1.489   4.746   8.276  0.2359  0.0074  0.1716
 1705SOL    HW1 6789   1.458   4.827   8.317  0.9465  0.7039 -0.6453
 1705SOL    HW2 6790   1.477   4.680   8.344 -1.4983  0.5423  0.4519
 1706SOL     OW 6791   3.971   7.270   9.268 -0.4686 -0.6678  1.3834
 1706SOL    HW1 6792   4.022   7.351   9.266 -0.5563 -0.6183  1.1054
 1706SOL    HW2 6793   3.962   7.245   9.176 -0.5677 -0.9140  1.4600
 1707SOL     OW 6794   4.937   0.381   6.648 -0.4844 -0.2411 -0.5574
 1707SOL    HW1 6795   4.880   0.457   6.635 -1.1561 -0.7358 -0.5697
 1707SOL    HW2 6796   4.901   0.337   6.725 -0.7208 -1.0968 -1.1366
 1708SOL     OW 6797   4.213   3.771   1.011  0.0141 -0.4620  0.2393
 1708SOL    HW1 6798   4.200   3.682   0.976  0.6126  0.2986 -2.0867
 1708SOL    HW2 6799   4.143   3.823   0.971  0.9879  0.5540 -0.1733
 1709SOL     OW 6800   8.271   2.230   0.200  0.3508  0.0930 -0.2218
 1709SOL    HW1 6801   8.217   2.242   0.278 -0.1669 -0.3579 -0.5025
 1709SOL    HW2 6802   8.313   2.146   0.212  0.5526  0.1860 -0.2654
 1710SOL     OW 6803   2.780   1.438   2.704  0.2132 -0.1736  0.1851
 1710SOL    HW1 6804   2.774   1.445   2.609  0.6983  1.5947  0.2525
 1710SOL    HW2 6805   2.849   1.501   2.728 -0.4323 -0.0355  1.7680
 1711SOL     OW 6806   2.447   1.055   4.162 -0.2196 -0.6692 -0.1659
 1711SOL    HW1 6807   2.439   1.139   4.116  0.9225 -0.6902 -0.4461
 1711SOL    HW2 6808   2.359   1.017   4.160 -1.0696  1.0881  1.1066
 1712SOL     OW 6809   0.122   3.675   4.633 -0.4526 -0.1846  0.0449
 1712SOL    HW1 6810   0.156   3.617   4.701 -0.5263 -1.2316 -0.7722
 1712SOL    HW2 6811   0.191   3.674   4.566  0.1481  1.7600  0.5828
 1713SOL     OW 6812   5.949   7.072   6.341 -0.4020 -0.4662  0.1536
 1713SOL    HW1 6813   5.891   7.023   6.283  0.3735 -1.6495  0.3466
 1713SOL    HW2 6814   5.903   7.075   6.424 -0.7621 -0.2531 -0.0514
 1714SOL     OW 6815   4.800   6.864   8.192 -0.4713 -0.2435  0.0009
 1714SOL    HW1 6816   4.848   6.798   8.243  0.2211  0.4314  0.2388
 1714SOL    HW2 6817   4.836   6.856   8.103 -0.5108 -0.3079 -0.0095
 1715SOL     OW 6818   0.119   0.719   0.481 -0.3317  0.1400 -0.3914
 1715SOL    HW1 6819   0.206   0.686   0.457 -0.9877 -1.7234 -0.3489
 1715SOL    HW2 6820   0.103   0.791   0.419  0.9448  0.0730 -0.8340
 1716SOL     OW 6821   0.287   7.939   3.673  0.1642 -0.3160 -0.8046
 1716SOL    HW1 6822   0.303   7.845   3.680  1.3562 -0.1231 -0.7424
 1716SOL    HW2 6823   0.247   7.950   3.586 -0.6431 -0.9506 -0.5199
 1717SOL     OW 6824   8.855   9.500   3.568  0.0432 -0.1511  0.0154
 1717SOL    HW1 6825   8.936   9.549   3.581 -0.1868  0.4321 -0.6598
 1717SOL    HW2 6826   8.806   9.514   3.650 -0.5442  1.8045 -0.6053
 1718SOL     OW 6827   9.449   3.183   8.575 -0.3598 -0.0200 -0.1324
 1718SOL    HW1 6828   9.515   3.146   8.517 -1.1599 -0.0672 -1.0458
 1718SOL    HW2 6829   9.432   3.270   8.539  2.5537  2.0045  2.8146
 1719SOL     OW 6830   2.798   1.031   0.188  0.2155  0.3265 -0.0498
 1719SOL    HW1 6831   2.746   1.046   0.267 -0.0089 -0.6363 -0.0113
 1719SOL    HW2 6832   2.871   0.976   0.218  1.4700  1.9083 -0.0310
 1720SOL     OW 6833   7.940   1.835   7.767 -0.0018  0.4287  0.5748
 1720SOL    HW1 6834   7.882   1.809   7.839  1.7810 -0.2355  1.8442
 1720SOL    HW2 6835   7.897   1.910   7.728 -0.5359  1.5259  3.0689
 1721SOL     OW 6836   6.564   2.269   8.324  0.1141 -0.2937 -0.3182
 1721SOL    HW1 6837   6.539   2.184   8.359  0.0015  0.0188  0.3841
 1721SOL    HW2 6838   6.624   2.249   8.252 -1.3737 -1.0227 -1.3985
 1722SOL     OW 6839   8.819   6.449   0.996  0.1659 -0.0810 -0.2168
 1722SOL    HW1 6840   8.777   6.525   1.037 -0.2777  0.3833 -1.4866
 1722SOL    HW2 6841   8.913   6.466   1.004  0.1027 -0.1324  0.8173
 1723SOL     OW 6842   0.880   5.583   9.031  0.3375 -0.2813  0.8727
 1723SOL    HW1 6843   0.848   5.565   9.119  0.4804 -0.4241  0.8959
 1723SOL    HW2 6844   0.829   5.526   8.974 -0.9656  1.0448  0.6701
 1724SOL     OW 6845   1.672   0.334   0.509 -0.2637  0.1130  0.5072
 1724SOL    HW1 6846   1.665   0.357   0.417  0.3125 -1.6570 -0.0288
 1724SOL    HW2 6847   1.656   0.416   0.556  0.4917  1.2872 -1.1795
 1725SOL     OW 6848   3.724   2.702   2.016 -0.5507  0.3898 -0.2134
 1725SOL    HW1 6849   3.696   2.610   2.018 -1.0193  0.5304  0.0003
 1725SOL    HW2 6850   3.706   2.734   2.105  1.1962  0.2346  0.2263
 1726SOL     OW 6851   8.590   3.168   2.185 -0.0433 -0.2997 -0.7541
 1726SOL    HW1 6852   8.558   3.258   2.191 -0.3414 -0.4811  1.1814
 1726SOL    HW2 6853   8.512   3.114   2.194  0.2598 -0.7432 -0.7431
 1727SOL     OW 6854   9.480   7.464   0.658 -0.4251 -0.2639 -0.1602
 1727SOL    HW1 6855   9.503   7.555   0.636 -1.9873  0.0844 -0.4655
 1727SOL    HW2 6856   9.563   7.425   0.687  0.8239  0.5393 -2.3994
 1728SOL     OW 6857   0.065   6.554   7.240 -0.2293  0.3927  0.3341
 1728SOL    HW1 6858  -0.001   6.534   7.174 -2.0789  0.6809  2.0130
 1728SOL    HW2 6859   0.133   6.488   7.228 -1.2681 -0.4977 -0.8320
 1729SOL     OW 6860   9.005   9.162   5.069  0.0614 -0.1627  0.0835
 1729SOL    HW1 6861   9.032   9.247   5.105 -0.1390  0.0362 -0.2356
 1729SOL    HW2 6862   9.045   9.158   4.982 -1.1160  0.2447 -0.4983
 1730SOL     OW 6863   7.083   4.780   2.185 -0.3130  0.5496  0.4422
 1730SOL    HW1 6864   7.035   4.697   2.185  0.0171  0.2716  3.1876
 1730SOL    HW2 6865   7.031   4.838   2.241 -0.5906  2.3103 -1.4959
 1731SOL     OW 6866   7.944   3.605   4.339  0.1522 -0.3995 -0.0561
 1731SOL    HW1 6867   7.969   3.615   4.247 -0.4428 -0.8427 -0.2727
 1731SOL    HW2 6868   7.925   3.512   4.348  0.9976 -0.5164  0.7280
 1732SOL     OW 6869   0.215   4.839   5.089  0.3004  0.2196  0.2688
 1732SOL    HW1 6870   0.250   4.869   5.005  2.6232  2.9435  2.0307
 1732SOL    HW2 6871   0.264   4.759   5.108  0.0337 -0.2006 -0.7565
 1733SOL     OW 6872   8.201   9.676   5.661 -0.1457  0.0792 -0.0124
 1733SOL    HW1 6873   8.212   9.662   5.755 -2.1088 -1.1059  0.0868
 1733SOL    HW2 6874   8.277   9.633   5.622  0.5087  0.2831  0.9846
 1734SOL     OW 6875   6.914   4.528   2.380 -0.4194 -0.0616  0.5545
 1734SOL    HW1 6876   6.930   4.501   2.471 -2.0027 -1.2367  0.5142
 1734SOL    HW2 6877   6.992   4.501   2.333 -0.2955 -0.9926  1.2601
 1735SOL     OW 6878   3.769   6.265   9.549 -0.2133  0.2994  0.3438
 1735SOL    HW1 6879   3.864   6.270   9.544 -0.1448 -0.8796  0.1741
 1735SOL    HW2 6880   3.742   6.352   9.576  0.9691  0.4448  1.1377
 1736SOL     OW 6881   8.044   7.829   7.054 -0.8465 -0.6326 -0.3192
 1736SOL    HW1 6882   7.989   7.813   6.977 -1.5542  1.7868 -0.4053
 1736SOL    HW2 6883   8.113   7.762   7.049 -0.6522 -0.3375 -3.2440
 1737SOL     OW 6884   5.586   8.894   4.597 -0.0159  0.0754 -0.1358
 1737SOL    HW1 6885   5.578   8.960   4.528 -2.3926  0.8892  0.7941
 1737SOL    HW2 6886   5.508   8.839   4.586  0.5059 -0.8833  0.7890
 1738SOL     OW 6887   2.655   0.612   0.356  0.0384 -0.0035  0.5738
 1738SOL    HW1 6888   2.682   0.653   0.438 -2.1249 -1.4014  2.0800
 1738SOL    HW2 6889   2.719   0.543   0.342 -0.3436 -0.6520  1.8763
 1739SOL     OW 6890   6.753   7.999   3.845 -0.4246  0.1037 -0.1179
 1739SOL    HW1 6891   6.848   7.997   3.840 -0.2685 -1.8792  2.1230
 1739SOL    HW2 6892   6.733   8.067   3.909 -0.5777  0.8781 -0.9667
 1740SOL     OW 6893   1.334   7.114   2.278  0.2723 -0.1388  0.3214
 1740SOL    HW1 6894   1.306   7.123   2.187  0.2691  1.0016  0.4095
 1740SOL    HW2 6895   1.390   7.037   2.280 -0.0846 -0.4263 -0.5537
 1741SOL     OW 6896   3.361   2.572   8.483 -0.8128 -0.6944 -0.4512
 1741SOL    HW1 6897   3.272   2.606   8.495 -0.2923  1.4295 -2.0178
 1741SOL    HW2 6898   3.378   2.582   8.390  0.3868 -2.9311 -0.5315
 1742SOL     OW 6899   3.311   1.990   9.055 -0.2760 -0.7331 -0.8788
 1742SOL    HW1 6900   3.356   1.914   9.091  0.7868  0.4748  0.4705
 1742SOL    HW2 6901   3.272   2.034   9.131 -0.3660  0.3860 -1.5403
 1743SOL     OW 6902   6.244   0.506   2.433 -0.2660  0.1864  0.2700
 1743SOL    HW1 6903   6.338   0.526   2.428 -0.1362 -0.4566  0.0698
 1743SOL    HW2 6904   6.203   0.590   2.451  0.1048  0.9870 -2.2522
 1744SOL     OW 6905   6.577   1.370   6.536  0.2068  0.0087  0.2062
 1744SOL    HW1 6906   6.581   1.343   6.627  0.7435 -2.4098 -0.4695
 1744SOL    HW2 6907   6.491   1.340   6.506  0.8279 -1.0904 -0.5730
 1745SOL     OW 6908   1.616   4.615   2.971 -0.2279  0.3327 -0.2517
 1745SOL    HW1 6909   1.552   4.631   3.041 -1.4285  1.2085 -1.5062
 1745SOL    HW2 6910   1.594   4.528   2.938  1.4506 -0.8512  1.5417
 1746SOL     OW 6911   8.542   7.856   5.387 -0.4289  0.4821 -0.0736
 1746SOL    HW1 6912   8.550   7.907   5.468 -0.8771  1.3466 -0.5645
 1746SOL    HW2 6913   8.610   7.892   5.330 -1.0517  0.8517 -0.5895
 1747SOL     OW 6914   0.325   3.223   6.073 -0.2840  0.1601  0.3526
 1747SOL    HW1 6915   0.389   3.278   6.029  0.0330  0.3648  1.0660
 1747SOL    HW2 6916   0.349   3.134   6.048 -0.8784  0.3378 -0.9101
 1748SOL     OW 6917   8.672   8.936   5.189  0.4900  0.6907  0.4938
 1748SOL    HW1 6918   8.685   8.843   5.170 -1.3496  0.1850  1.4555
 1748SOL    HW2 6919   8.738   8.956   5.256  1.6035  0.3948 -0.4759
 1749SOL     OW 6920   2.100   1.614   2.793 -0.1031  0.8771 -0.4179
 1749SOL    HW1 6921   2.098   1.526   2.755  1.9442  1.1925 -1.3879
 1749SOL    HW2 6922   2.158   1.605   2.869 -0.2610  1.2952 -0.2483
 1750SOL     OW 6923   2.768   1.670   3.511 -0.6077  0.5244 -0.2228
 1750SOL    HW1 6924   2.843   1.672   3.452 -0.3209  0.5757  0.1436
 1750SOL    HW2 6925   2.696   1.636   3.457 -0.2845  0.3265 -0.5296
 1751SOL     OW 6926   1.234   1.262   6.648 -0.1144 -0.2128 -0.3376
 1751SOL    HW1 6927   1.205   1.331   6.589  1.3267  0.1797 -0.6362
 1751SOL    HW2 6928   1.289   1.205   6.593 -0.0422 -0.7330  0.2531
 1752SOL     OW 6929   1.526   5.001   4.738  0.4436  0.4821 -0.8968
 1752SOL    HW1 6930   1.566   4.968   4.658 -0.9519 -0.9352 -1.0668
 1752SOL    HW2 6931   1.432   4.993   4.723  0.0946 -2.1415  1.7362
 1753SOL     OW 6932   4.742   7.246   5.763 -0.6742 -0.1598  0.1624
 1753SOL    HW1 6933   4.721   7.157   5.791  1.7022 -0.6267  0.7094
 1753SOL    HW2 6934   4.836   7.243   5.742 -1.0772  1.5937 -2.3505
 1754SOL     OW 6935   2.761   8.312   2.362 -0.1131 -0.3130  0.2389
 1754SOL    HW1 6936   2.679   8.362   2.358  0.6276  0.9546  0.4823
 1754SOL    HW2 6937   2.820   8.357   2.301  0.8206 -0.4150  1.0395
 1755SOL     OW 6938   6.409   9.415   7.143 -0.0132 -0.1645  0.3090
 1755SOL    HW1 6939   6.450   9.428   7.057  0.3536 -0.1995  0.4761
 1755SOL    HW2 6940   6.370   9.501   7.164  1.6915  0.4768  1.0357
 1756SOL     OW 6941   1.741   4.574   4.123 -0.1783 -0.4387 -0.2002
 1756SOL    HW1 6942   1.725   4.658   4.079 -2.6531  0.1973  1.6923
 1756SOL    HW2 6943   1.682   4.513   4.079  0.9736 -1.0439 -0.9746
 1757SOL     OW 6944   7.296   4.442   4.713 -0.0715 -0.6659  0.1835
 1757SOL    HW1 6945   7.356   4.517   4.711  0.6255 -1.2192 -0.4315
 1757SOL    HW2 6946   7.334   4.380   4.651 -1.1256 -1.1607  0.0187
 1758SOL     OW 6947   7.543   1.141   5.551 -0.3451  0.4360 -0.7750
 1758SOL    HW1 6948   7.561   1.127   5.458  1.3615 -1.0863 -0.2528
 1758SOL    HW2 6949   7.458   1.098   5.565  1.5107 -3.6744 -0.7357
 1759SOL     OW 6950   4.262   0.976   7.496  0.2056 -0.0188  0.6710
 1759SOL    HW1 6951   4.298   0.894   7.529  1.1560  0.6897  1.4362
 1759SOL    HW2 6952   4.265   0.967   7.401 -1.5866 -1.6626  0.7155
 1760SOL     OW 6953   5.168   1.061   0.832 -0.0894 -0.2235  0.5641
 1760SOL    HW1 6954   5.116   1.053   0.752  0.7097  0.9581 -0.1021
 1760SOL    HW2 6955   5.187   1.154   0.840  1.9783 -0.5942  0.7069
 1761SOL     OW 6956   6.302   1.035   2.905  0.2239  0.6434  0.4182
 1761SOL    HW1 6957   6.250   1.078   2.838 -0.1632  2.2135  1.6650
 1761SOL    HW2 6958   6.248   1.041   2.985  1.3592  0.2906  1.2382
 1762SOL     OW 6959   7.398   3.773   3.968 -0.7945 -0.2135  0.5252
 1762SOL    HW1 6960   7.323   3.822   4.000 -0.4103  0.3751  0.5326
 1762SOL    HW2 6961   7.464   3.839   3.949  0.1564 -0.8113  1.6685
 1763SOL     OW 6962   5.720   9.507   7.080 -0.4549  0.2895 -0.2304
 1763SOL    HW1 6963   5.791   9.514   7.016  0.9478  1.6454  1.3887
 1763SOL    HW2 6964   5.658   9.576   7.055 -0.5355  0.0023 -0.8412
 1764SOL     OW 6965   8.191   4.112   7.821  0.1924  0.8831 -0.0472
 1764SOL    HW1 6966   8.109   4.155   7.844  0.1251  0.1699  1.1065
 1764SOL    HW2 6967   8.173   4.018   7.830  0.2902  0.5214 -2.6400
 1765SOL     OW 6968   3.668   7.360   2.900 -0.4825 -0.0948  0.5726
 1765SOL    HW1 6969   3.718   7.292   2.946  1.0274  0.2791 -0.4468
 1765SOL    HW2 6970   3.666   7.433   2.962 -1.0466 -0.6130  1.1883
 1766SOL     OW 6971   0.416   3.894   4.686 -0.7972 -0.7105 -0.4456
 1766SOL    HW1 6972   0.374   3.975   4.714  0.7906  0.3426 -0.9321
 1766SOL    HW2 6973   0.388   3.881   4.596 -1.6685 -1.1364 -0.1162
 1767SOL     OW 6974   2.653   1.079   3.787  0.3672 -0.0146 -0.1070
 1767SOL    HW1 6975   2.638   0.998   3.836 -1.1442  1.6299  2.3433
 1767SOL    HW2 6976   2.749   1.088   3.785  0.5328  0.1236  3.2084
 1768SOL     OW 6977   6.181   3.893   1.760 -0.0249 -0.0283 -0.3219
 1768SOL    HW1 6978   6.153   3.802   1.771  0.7599 -0.4342 -1.4951
 1768SOL    HW2 6979   6.277   3.888   1.758  0.0334  0.8650 -0.1750
 1769SOL     OW 6980   6.548   1.479   8.174  0.5218  0.3895  0.5362
 1769SOL    HW1 6981   6.558   1.410   8.240 -1.3955  0.9816  1.5330
 1769SOL    HW2 6982   6.461   1.463   8.137 -0.3191  2.6743  1.3537
 1770SOL     OW 6983   3.207   3.975   1.893 -0.4512 -0.0033  0.1334
 1770SOL    HW1 6984   3.193   4.062   1.858 -0.1003 -0.0321 -0.0775
 1770SOL    HW2 6985   3.123   3.952   1.933 -0.6804  0.2514 -0.1939
 1771SOL     OW 6986   6.185   9.568   6.140 -0.6776 -0.2164 -0.2226
 1771SOL    HW1 6987   6.271   9.607   6.154 -0.0230 -0.4881 -2.9221
 1771SOL    HW2 6988   6.124   9.632   6.178  0.6369  0.2849  1.1820
 1772SOL     OW 6989   9.063   6.987   2.354  0.6063 -0.3845  0.4302
 1772SOL    HW1 6990   9.043   6.895   2.371 -1.9693 -0.2624 -1.3328
 1772SOL    HW2 6991   9.138   6.985   2.296  0.7795 -1.3491  0.6716
 1773SOL     OW 6992   3.477   0.787   1.896  0.0587  0.0890  0.1721
 1773SOL    HW1 6993   3.446   0.731   1.826  1.0734  0.3398 -0.5091
 1773SOL    HW2 6994   3.410   0.855   1.905 -0.6847 -0.6553  0.3147
 1774SOL     OW 6995   3.633   2.512   3.780 -0.1812 -0.5693 -0.8496
 1774SOL    HW1 6996   3.645   2.606   3.768 -0.3912 -0.6092 -1.4216
 1774SOL    HW2 6997   3.547   2.505   3.823 -0.3611 -0.5133 -1.1903
 1775SOL     OW 6998   7.339   6.870   4.315 -0.1250  0.2285  0.4473
 1775SOL    HW1 6999   7.292   6.786   4.310 -3.1899  1.8687 -0.5305
 1775SOL    HW2 7000   7.331   6.897   4.406  0.3073 -0.2291  0.6240
 1776SOL     OW 7001   0.226   8.997   4.304  0.0898 -0.2278 -0.1906
 1776SOL    HW1 7002   0.312   9.031   4.326  0.8949 -1.2527 -1.6129
 1776SOL    HW2 7003   0.217   8.918   4.356 -1.0524  1.1227  1.7884
 1777SOL     OW 7004   9.529   8.705   4.305  0.1965  0.3541  0.3615
 1777SOL    HW1 7005   9.539   8.640   4.373  2.4523  0.2895  0.0400
 1777SOL    HW2 7006   9.451   8.677   4.256  0.0879 -1.0546  1.2934
 1778SOL     OW 7007   5.640   5.471   1.707 -0.1406 -0.0403 -0.1826
 1778SOL    HW1 7008   5.646   5.484   1.801 -0.1886  1.1656 -0.3299
 1778SOL    HW2 7009   5.595   5.549   1.674 -0.5281 -0.6487 -1.1557
 1779SOL     OW 7010   4.881   8.393   4.763 -0.2521  0.0081  0.4732
 1779SOL    HW1 7011   4.866   8.303   4.794 -0.5378 -0.8902 -2.0295
 1779SOL    HW2 7012   4.794   8.425   4.739 -0.0315  0.6230  0.4740
 1780SOL     OW 7013   1.359   7.454   4.974  0.3342 -0.3329 -0.0919
 1780SOL    HW1 7014   1.269   7.422   4.971  0.2498 -0.0399 -1.1218
 1780SOL    HW2 7015   1.408   7.389   4.923  1.1785 -1.8536  2.4855
 1781SOL     OW 7016   4.601   5.906   9.312 -0.2827  0.2989  0.3943
 1781SOL    HW1 7017   4.654   5.888   9.234 -0.2982 -0.0689  0.4665
 1781SOL    HW2 7018   4.575   5.819   9.344 -1.1851  0.4789  0.1832
 1782SOL     OW 7019   3.806   5.161   8.682  0.7467  0.4706  0.0379
 1782SOL    HW1 7020   3.748   5.085   8.684  2.5282 -0.9269  1.4748
 1782SOL    HW2 7021   3.753   5.232   8.720 -0.5962 -0.2787 -0.3690
 1783SOL     OW 7022   8.979   3.871   8.667 -0.0934 -0.0636  0.2555
 1783SOL    HW1 7023   8.961   3.873   8.573 -0.9341  1.1426  0.4221
 1783SOL    HW2 7024   8.995   3.779   8.686  0.6364 -0.2593 -1.1618
 1784SOL     OW 7025   8.509   3.841   5.774  0.2351  0.2363  0.3717
 1784SOL    HW1 7026   8.549   3.928   5.766  1.1414  0.0109  2.0373
 1784SOL    HW2 7027   8.550   3.803   5.852 -3.0541 -0.0891  2.1231
 1785SOL     OW 7028   6.785   9.226   7.752  0.1292  0.6742 -0.0550
 1785SOL    HW1 7029   6.798   9.134   7.774 -1.6220  0.6259  0.9140
 1785SOL    HW2 7030   6.786   9.228   7.656  0.4224 -0.2951 -0.0842
 1786SOL     OW 7031   8.390   8.519   2.903 -0.2405 -0.3013 -0.1477
 1786SOL    HW1 7032   8.464   8.579   2.912 -1.3195  1.0542  0.1246
 1786SOL    HW2 7033   8.359   8.532   2.813 -0.1199 -0.9111 -0.2837
 1787SOL     OW 7034   4.433   3.022   4.893  0.8174 -0.0517 -0.2267
 1787SOL    HW1 7035   4.458   3.097   4.839  0.4690  0.5695  0.4663
 1787SOL    HW2 7036   4.407   3.059   4.977 -6.0861 -0.0046 -1.7928
 1788SOL     OW 7037   0.911   8.567   6.180  0.3933 -0.5614  0.2303
 1788SOL    HW1 7038   0.844   8.634   6.164 -0.2398 -1.0775  0.6411
 1788SOL    HW2 7039   0.926   8.527   6.095  1.1125  0.3897 -0.1111
 1789SOL     OW 7040   3.611   6.513   2.085  0.0407 -0.2697 -0.2252
 1789SOL    HW1 7041   3.612   6.572   2.009 -0.4803 -0.1119 -0.1143
 1789SOL    HW2 7042   3.634   6.569   2.159  0.6167 -0.4376 -0.2709
 1790SOL     OW 7043   6.835   2.739   6.895  0.1417  0.5371  0.1208
 1790SOL    HW1 7044   6.811   2.827   6.924  1.9180  1.5793 -1.3751
 1790SOL    HW2 7045   6.885   2.753   6.815  0.2955 -1.8674 -0.2684
 1791SOL     OW 7046   0.671   9.274   7.848 -0.0590  0.6674 -0.1826
 1791SOL    HW1 7047   0.614   9.347   7.869  0.0279  1.1850 -1.6606
 1791SOL    HW2 7048   0.759   9.312   7.847 -0.0590  0.6885 -1.4462
 1792SOL     OW 7049   2.966   3.932   7.921  0.0406  0.2120  0.2608
 1792SOL    HW1 7050   2.916   3.904   7.998  0.3886  0.8416  0.7294
 1792SOL    HW2 7051   2.909   3.913   7.847 -0.0242 -1.0409  0.6116
 1793SOL     OW 7052   4.041   0.361   2.103  0.5541 -0.2695 -0.3703
 1793SOL    HW1 7053   3.980   0.427   2.137  0.5028  0.0941 -1.1424
 1793SOL    HW2 7054   3.990   0.313   2.038  0.9277 -0.3436 -0.6071
 1794SOL     OW 7055   8.175   8.224   4.765 -0.4301 -0.4498  0.2579
 1794SOL    HW1 7056   8.095   8.257   4.806 -0.7553 -0.5145 -0.3119
 1794SOL    HW2 7057   8.146   8.150   4.713 -0.1401  0.0271 -0.6016
 1795SOL     OW 7058   8.853   0.348   4.057  0.1764  0.9148  0.6510
 1795SOL    HW1 7059   8.824   0.439   4.066  0.4662  0.9524  1.2440
 1795SOL    HW2 7060   8.835   0.308   4.142 -0.8459  0.1442  0.1061
 1796SOL     OW 7061   0.483   2.560   6.292  0.2936 -0.2439 -0.0534
 1796SOL    HW1 7062   0.478   2.655   6.277  0.8649 -0.1422  0.3714
 1796SOL    HW2 7063   0.455   2.549   6.382  0.3414 -0.4689 -0.0657
 1797SOL     OW 7064   7.976   8.875   9.431  0.2462  0.5360 -0.2529
 1797SOL    HW1 7065   7.983   8.816   9.356 -1.5300 -0.6414  0.4358
 1797SOL    HW2 7066   7.935   8.954   9.396  0.0112  0.2458 -0.6367
 1798SOL     OW 7067   9.663   8.086   2.336 -0.4172  0.2339 -0.0081
 1798SOL    HW1 7068   9.748   8.131   2.339 -1.6112  2.6341  1.3950
 1798SOL    HW2 7069   9.623   8.117   2.255 -0.6447  0.5296  0.2150
 1799SOL     OW 7070   0.824   7.562   9.288 -0.3421 -0.1238 -0.3262
 1799SOL    HW1 7071   0.850   7.594   9.202 -1.8681  0.8043 -0.4734
 1799SOL    HW2 7072   0.773   7.483   9.270  1.7537 -1.6384 -0.0646
 1800SOL     OW 7073   7.388   5.524   0.519 -0.1824  0.4498 -0.2224
 1800SOL    HW1 7074   7.314   5.465   0.507  1.3274 -1.9838  1.3348
 1800SOL    HW2 7075   7.387   5.544   0.613  1.0144  0.5240 -0.2133
 1801SOL     OW 7076   8.238   9.297   1.467 -0.4923  0.1230 -0.0721
 1801SOL    HW1 7077   8.276   9.215   1.499 -1.9231 -0.3638  0.4404
 1801SOL    HW2 7078   8.308   9.362   1.481  0.5853 -0.9487 -0.2954
 1802SOL     OW 7079   4.087   0.158   8.347 -0.2458  0.3711 -0.0406
 1802SOL    HW1 7080   4.029   0.147   8.422 -1.1399  3.0271 -0.2077
 1802SOL    HW2 7081   4.069   0.083   8.291 -3.4668  0.9375  0.0234
 1803SOL     OW 7082   9.643   3.113   2.218  0.7501 -0.6727  0.1578
 1803SOL    HW1 7083   9.589   3.107   2.297 -1.6969  2.4567 -1.0423
 1803SOL    HW2 7084   9.580   3.113   2.146  2.5084  0.8683 -1.5035
 1804SOL     OW 7085   1.170   9.552   1.402 -0.4222  0.2285 -0.4295
 1804SOL    HW1 7086   1.256   9.566   1.443 -1.1110 -2.3191  2.1980
 1804SOL    HW2 7087   1.165   9.457   1.388 -2.5702  0.3885 -1.0989
 1805SOL     OW 7088   0.225   8.030   1.884 -0.4144 -0.3829  0.3691
 1805SOL    HW1 7089   0.130   8.020   1.879 -0.4736  0.6095 -2.1373
 1805SOL    HW2 7090   0.256   8.012   1.795  1.5589  0.9057  0.7141
 1806SOL     OW 7091   2.427   4.858   4.724  0.4344 -0.0028  0.0515
 1806SOL    HW1 7092   2.372   4.800   4.776  0.8915  1.1460  1.8969
 1806SOL    HW2 7093   2.401   4.946   4.749  3.6935  0.6378  1.7965
 1807SOL     OW 7094   6.621   5.389   8.622 -0.1444  0.0838 -0.9598
 1807SOL    HW1 7095   6.590   5.407   8.533  0.4079 -1.0462 -1.4011
 1807SOL    HW2 7096   6.637   5.295   8.623 -1.6935 -0.2192  0.8522
 1808SOL     OW 7097   4.361   3.630   8.732 -0.0116 -0.6592 -0.2019
 1808SOL    HW1 7098   4.430   3.625   8.798 -0.3722 -0.2858  0.2069
 1808SOL    HW2 7099   4.393   3.692   8.667  0.0351 -0.4787 -0.0063
 1809SOL     OW 7100   2.461   8.851   2.770 -0.0004 -0.1324 -0.7258
 1809SOL    HW1 7101   2.382   8.832   2.820  1.0879 -1.7701  0.4857
 1809SOL    HW2 7102   2.429   8.880   2.684 -1.9020 -0.6646 -0.2499
 1810SOL     OW 7103   8.634   6.184   5.476  0.0287  0.3864  0.4958
 1810SOL    HW1 7104   8.661   6.093   5.462  0.8909  0.7201 -0.0685
 1810SOL    HW2 7105   8.565   6.178   5.543 -0.8876 -0.8010 -0.5069
 1811SOL     OW 7106   5.503   8.870   2.794 -0.0498 -0.2577  0.1180
 1811SOL    HW1 7107   5.464   8.827   2.718  0.0085  1.4286 -0.9259
 1811SOL    HW2 7108   5.438   8.935   2.821 -0.2351 -1.0997  1.7826
 1812SOL     OW 7109   3.093   3.823   2.820 -0.2100 -0.5228 -0.0368
 1812SOL    HW1 7110   3.082   3.749   2.760 -1.9390 -1.3452  1.2297
 1812SOL    HW2 7111   3.080   3.900   2.765 -0.8172 -1.2272 -0.9051
 1813SOL     OW 7112   7.535   6.853   3.814 -0.0075  0.3190  0.4715
 1813SOL    HW1 7113   7.445   6.865   3.845 -0.0921 -0.3136  0.4655
 1813SOL    HW2 7114   7.570   6.943   3.808 -0.8921  0.6269 -0.3076
 1814SOL     OW 7115   4.700   4.263   4.472 -0.0172  0.2864 -0.0863
 1814SOL    HW1 7116   4.628   4.240   4.529  0.5780 -0.1136  0.5236
 1814SOL    HW2 7117   4.779   4.249   4.525  0.4765  1.5987 -0.4305
 1815SOL     OW 7118   7.555   5.805   8.914  0.1443 -0.2890 -0.1221
 1815SOL    HW1 7119   7.517   5.790   9.001 -2.4458  1.4171 -0.8338
 1815SOL    HW2 7120   7.498   5.757   8.854 -1.3973  2.7190 -1.2836
 1816SOL     OW 7121   0.633   8.240   7.018 -0.1482  0.0523 -0.4197
 1816SOL    HW1 7122   0.546   8.272   6.992 -0.0417 -1.5699 -3.1212
 1816SOL    HW2 7123   0.621   8.146   7.030  1.1464 -0.1286 -0.3925
 1817SOL     OW 7124   4.613   6.907   6.961  0.3287  0.3398 -0.1551
 1817SOL    HW1 7125   4.579   6.921   7.049  1.7433  0.3758  0.4175
 1817SOL    HW2 7126   4.684   6.844   6.972  1.4671  1.4145 -1.0439
 1818SOL     OW 7127   1.998   8.383   9.414  0.1670  0.5829  0.1707
 1818SOL    HW1 7128   2.072   8.439   9.388  1.1222 -0.9747 -0.6265
 1818SOL    HW2 7129   2.032   8.294   9.406 -2.3011 -0.2892 -1.8634
 1819SOL     OW 7130   3.263   6.559   3.182 -0.4678  0.2233  0.2570
 1819SOL    HW1 7131   3.212   6.628   3.225  0.2270  0.3208  0.9441
 1819SOL    HW2 7132   3.346   6.556   3.230 -0.3514 -0.8608  0.0290
 1820SOL     OW 7133   0.928   0.840   7.948  0.7299 -0.4555 -0.1047
 1820SOL    HW1 7134   0.890   0.822   8.033  3.6289  0.1555  1.4452
 1820SOL    HW2 7135   0.858   0.884   7.899 -0.3047  1.3826  2.7955
 1821SOL     OW 7136   5.466   1.225   3.148  0.1076  0.3309  0.2444
 1821SOL    HW1 7137   5.499   1.135   3.142 -0.7082  0.0016  0.6279
 1821SOL    HW2 7138   5.377   1.216   3.183 -1.3057  1.0214 -2.8830
 1822SOL     OW 7139   7.893   0.038   0.861 -0.2936  0.3167  0.0392
 1822SOL    HW1 7140   7.841   0.077   0.932 -1.5233  1.4536 -1.4039
 1822SOL    HW2 7141   7.983   0.057   0.883 -0.5998  0.0123  1.6470
 1823SOL     OW 7142   2.301   7.838   2.296  0.6342 -0.1206 -0.1223
 1823SOL    HW1 7143   2.378   7.781   2.300  1.0012  0.0931 -2.4348
 1823SOL    HW2 7144   2.336   7.924   2.275 -0.1796  0.0229 -0.9851
 1824SOL     OW 7145   8.902   1.342   2.138 -0.0570  0.0629  0.4354
 1824SOL    HW1 7146   8.974   1.382   2.089  0.5966 -1.7755 -0.2124
 1824SOL    HW2 7147   8.919   1.366   2.229  0.4312  1.0110  0.1106
 1825SOL     OW 7148   2.973   3.692   6.873  0.1804 -0.8446  0.6351
 1825SOL    HW1 7149   3.032   3.713   6.945 -1.7189  2.8254  1.3668
 1825SOL    HW2 7150   2.900   3.645   6.915 -0.0511 -0.3314  0.8245
 1826SOL     OW 7151   1.839   8.206   7.102 -0.1455 -0.1765  0.7425
 1826SOL    HW1 7152   1.836   8.297   7.070 -0.1646 -0.7554 -0.9876
 1826SOL    HW2 7153   1.772   8.203   7.170 -2.1755  0.4281 -1.1133
 1827SOL     OW 7154   0.750   0.024   6.893 -0.0726  0.8674  0.3749
 1827SOL    HW1 7155   0.708   0.010   6.809 -1.6871 -1.7552  1.5097
 1827SOL    HW2 7156   0.843   0.036   6.872 -0.6717  2.1623 -1.8353
 1828SOL     OW 7157   4.948   1.123   1.013 -0.3398 -0.2130 -0.4626
 1828SOL    HW1 7158   4.986   1.098   0.929  1.0276 -1.2372  0.4174
 1828SOL    HW2 7159   5.013   1.096   1.078 -1.3665  0.5306  0.9335
 1829SOL     OW 7160   6.500   6.686   0.213 -0.5739 -0.4509  0.1301
 1829SOL    HW1 7161   6.564   6.616   0.228 -1.3545 -1.0006  0.9887
 1829SOL    HW2 7162   6.467   6.708   0.301 -2.1566 -0.7498 -0.3690
 1830SOL     OW 7163   5.672   3.269   9.085  0.3009 -0.6973 -0.1964
 1830SOL    HW1 7164   5.644   3.182   9.056  1.3020 -0.4169 -2.1621
 1830SOL    HW2 7165   5.750   3.287   9.033  0.1459  1.3723  0.2210
 1831SOL     OW 7166   7.253   3.229   2.370  0.0692  0.1297  0.2057
 1831SOL    HW1 7167   7.307   3.224   2.448  0.4303 -4.2067 -0.0278
 1831SOL    HW2 7168   7.314   3.215   2.298 -0.7527 -0.1319 -0.4594
 1832SOL     OW 7169   4.531   4.168   4.654  0.6934 -0.2868  0.7384
 1832SOL    HW1 7170   4.442   4.202   4.644  1.3087  1.1677 -0.1345
 1832SOL    HW2 7171   4.521   4.073   4.656 -0.8070 -0.1719 -0.1469
 1833SOL     OW 7172   4.824   0.365   8.601 -0.3306  0.1357  0.0593
 1833SOL    HW1 7173   4.838   0.377   8.695 -0.1210  0.5611 -0.0205
 1833SOL    HW2 7174   4.908   0.387   8.561 -0.6772  0.8977 -0.2921
 1834SOL     OW 7175   0.897   7.294   1.328  0.2489 -0.3757  0.3039
 1834SOL    HW1 7176   0.943   7.377   1.333  2.2580 -1.3352 -1.0192
 1834SOL    HW2 7177   0.886   7.266   1.419  0.9547  0.5860  0.6889
 1835SOL     OW 7178   0.484   9.607   8.640  0.0836  0.5493  0.1290
 1835SOL    HW1 7179   0.533   9.531   8.609  0.1297  0.4379  0.4817
 1835SOL    HW2 7180   0.512   9.678   8.582  1.4852  0.7405  0.9928
 1836SOL     OW 7181   0.693   5.483   5.423 -0.3589  0.0608  0.5014
 1836SOL    HW1 7182   0.690   5.549   5.354 -2.4681  0.3825  0.8105
 1836SOL    HW2 7183   0.713   5.402   5.378  0.9200  0.6821 -0.0871
 1837SOL     OW 7184   8.929   9.253   0.586 -0.6932  0.4927  0.0726
 1837SOL    HW1 7185   8.951   9.236   0.677  0.1777 -1.4989 -0.4514
 1837SOL    HW2 7186   8.834   9.251   0.583 -0.7323 -2.8469  0.4429
 1838SOL     OW 7187   1.942   5.964   8.804 -0.1110 -0.1865 -0.0648
 1838SOL    HW1 7188   2.012   5.993   8.861 -1.3528  0.4840  1.1813
 1838SOL    HW2 7189   1.986   5.924   8.729  1.5712 -1.1602  1.3794
 1839SOL     OW 7190   5.264   5.745   8.128  0.2869 -0.6058  0.5734
 1839SOL    HW1 7191   5.254   5.740   8.223  0.3375 -0.7111  0.5723
 1839SOL    HW2 7192   5.215   5.823   8.104  1.2267  0.0834  0.8239
 1840SOL     OW 7193   0.877   3.631   6.268 -0.1259 -0.2922 -0.2126
 1840SOL    HW1 7194   0.915   3.555   6.224  1.0566 -0.4466  1.0156
 1840SOL    HW2 7195   0.791   3.641   6.227  0.3741 -1.2292 -1.6021
 1841SOL     OW 7196   8.521   1.044   4.101  0.1874 -0.4780 -0.0504
 1841SOL    HW1 7197   8.523   1.136   4.125  0.0856 -0.4271 -0.2344
 1841SOL    HW2 7198   8.566   0.999   4.173  3.8095  0.0949 -1.7281
 1842SOL     OW 7199   8.452   6.665   5.325 -0.7443 -0.3563  0.5660
 1842SOL    HW1 7200   8.492   6.684   5.241 -3.1802  0.7222 -0.4433
 1842SOL    HW2 7201   8.391   6.593   5.308 -2.0641  0.5882  1.1086
 1843SOL     OW 7202   5.999   1.152   3.346  0.4805 -0.2859  0.0447
 1843SOL    HW1 7203   6.093   1.171   3.351  0.7380 -1.7536  1.3235
 1843SOL    HW2 7204   5.957   1.226   3.389  1.0049  0.5608 -0.8563
 1844SOL     OW 7205   5.209   8.202   3.429  0.6924  0.0144 -0.5462
 1844SOL    HW1 7206   5.117   8.221   3.410  0.6049  0.8572  0.6028
 1844SOL    HW2 7207   5.209   8.165   3.517  1.4400 -0.0916 -0.5828
 1845SOL     OW 7208   1.916   9.453   6.376 -0.5195  0.2216  0.1824
 1845SOL    HW1 7209   1.873   9.372   6.350 -1.2950 -0.0475  2.1586
 1845SOL    HW2 7210   2.008   9.428   6.391  0.3208  0.6669 -3.3925
 1846SOL     OW 7211   9.067   4.629   6.946 -0.6570  0.1186 -0.0830
 1846SOL    HW1 7212   8.996   4.693   6.952 -2.9766 -2.3067  0.0287
 1846SOL    HW2 7213   9.103   4.625   7.035  0.9674  2.6654 -0.5293
 1847SOL     OW 7214   7.963   6.307   2.178 -0.2758  0.1220  0.2368
 1847SOL    HW1 7215   8.000   6.360   2.249  0.6839  1.8398 -1.4485
 1847SOL    HW2 7216   7.875   6.342   2.166 -0.5661 -0.4094  0.8091
 1848SOL     OW 7217   6.507   6.371   0.704 -0.2644  0.4480 -0.2203
 1848SOL    HW1 7218   6.511   6.450   0.651 -0.0166  0.6766  0.1320
 1848SOL    HW2 7219   6.597   6.358   0.734 -0.0854 -0.5714 -1.1404
 1849SOL     OW 7220   2.245   4.307   3.037  0.0480 -0.3550 -0.8520
 1849SOL    HW1 7221   2.284   4.271   3.117 -0.0358  2.9762  0.8792
 1849SOL    HW2 7222   2.171   4.249   3.018  0.5003 -1.6674  1.0493
 1850SOL     OW 7223   6.053   3.840   7.566  0.2939 -0.1604 -0.4156
 1850SOL    HW1 7224   6.065   3.746   7.550 -0.2374 -0.2298 -0.4103
 1850SOL    HW2 7225   6.139   3.878   7.547  0.7871 -0.7688  0.4939
 1851SOL     OW 7226   2.124   8.006   3.294 -0.4807  0.4861 -0.0399
 1851SOL    HW1 7227   2.055   7.950   3.259  1.2726 -2.8552  1.3126
 1851SOL    HW2 7228   2.204   7.953   3.286  1.0891  2.1253  2.9070
 1852SOL     OW 7229   3.616   1.062   0.392  0.0612  0.2170  0.0199
 1852SOL    HW1 7230   3.641   0.973   0.366 -0.1362  0.3960 -0.7982
 1852SOL    HW2 7231   3.624   1.113   0.312 -1.5572  0.5768  0.0703
 1853SOL     OW 7232   0.693   6.712   0.675 -0.1054  0.1015 -0.1528
 1853SOL    HW1 7233   0.676   6.633   0.728  1.2493 -1.1875 -1.5512
 1853SOL    HW2 7234   0.788   6.716   0.668 -0.0890  2.4050  0.5821
 1854SOL     OW 7235   5.721   7.955   1.669 -0.2956  0.4363  0.4874
 1854SOL    HW1 7236   5.781   8.018   1.629  0.9647 -0.4874  0.8347
 1854SOL    HW2 7237   5.775   7.907   1.731 -1.6028  0.0765  1.3808
 1855SOL     OW 7238   8.630   0.909   8.936  0.4931  0.1492 -0.1235
 1855SOL    HW1 7239   8.663   0.844   8.997 -0.7861  0.4156  0.8939
 1855SOL    HW2 7240   8.537   0.918   8.959  0.3943  1.5215 -0.9746
 1856SOL     OW 7241   6.295   4.204   8.135 -0.5304  0.2160  0.9363
 1856SOL    HW1 7242   6.266   4.124   8.178 -0.1187  0.6948  2.1457
 1856SOL    HW2 7243   6.381   4.184   8.099 -0.6587 -0.0324  0.7656
 1857SOL     OW 7244   1.004   6.938   5.849 -0.0784 -0.4528 -0.0479
 1857SOL    HW1 7245   1.013   6.884   5.928  0.3628 -0.5734 -0.1775
 1857SOL    HW2 7246   1.019   6.877   5.777  0.9756 -0.0523 -0.1837
 1858SOL     OW 7247   5.262   3.925   4.662  0.3411  0.1087 -0.4631
 1858SOL    HW1 7248   5.300   3.848   4.619  0.4311  0.7125 -1.5003
 1858SOL    HW2 7249   5.303   4.000   4.619 -0.4228  0.7490 -0.1113
 1859SOL     OW 7250   0.550   8.279   3.769  0.2308 -0.2618 -0.0186
 1859SOL    HW1 7251   0.509   8.314   3.848 -0.0276  0.6109 -0.5314
 1859SOL    HW2 7252   0.643   8.293   3.783  0.2697 -0.9773  0.5355
 1860SOL     OW 7253   0.898   2.459   2.039  0.1986 -0.8028  0.1882
 1860SOL    HW1 7254   0.848   2.527   2.084  2.0523  0.7454  0.0902
 1860SOL    HW2 7255   0.949   2.417   2.108  2.9510  1.4907 -0.2373
 1861SOL     OW 7256   8.617   7.881   6.676 -0.2470 -0.0289  0.0126
 1861SOL    HW1 7257   8.552   7.950   6.687 -1.3232 -0.7706 -1.4118
 1861SOL    HW2 7258   8.621   7.838   6.761 -0.2185  1.1856  0.6551
 1862SOL     OW 7259   8.766   4.227   3.435  0.0809 -0.1082  0.0374
 1862SOL    HW1 7260   8.720   4.197   3.514  1.2995  1.7645  1.5300
 1862SOL    HW2 7261   8.824   4.154   3.413  0.1795 -0.4291  1.2536
 1863SOL     OW 7262   5.884   3.683   2.990  0.1440  0.6111 -0.1346
 1863SOL    HW1 7263   5.942   3.760   2.996  0.0414  0.8472 -1.7976
 1863SOL    HW2 7264   5.934   3.613   3.031 -0.4509  1.8804  3.0763
 1864SOL     OW 7265   0.408   8.626   2.886  0.3541 -0.1955 -0.6721
 1864SOL    HW1 7266   0.324   8.589   2.911  0.6664 -1.3678 -1.2630
 1864SOL    HW2 7267   0.390   8.675   2.805 -0.0082  0.7652 -0.0341
 1865SOL     OW 7268   9.116   4.638   2.561  0.0398  0.2720  0.1129
 1865SOL    HW1 7269   9.136   4.547   2.538 -0.6994 -0.4648  2.1834
 1865SOL    HW2 7270   9.201   4.676   2.584  0.4096  0.2513 -1.1734
 1866SOL     OW 7271   4.122   6.293   3.795 -0.0852 -0.4079  0.5101
 1866SOL    HW1 7272   4.105   6.363   3.858 -2.0543 -1.2418  1.0091
 1866SOL    HW2 7273   4.187   6.237   3.838 -0.9957 -0.6623  1.6144
 1867SOL     OW 7274   8.097   4.163   3.112  0.0530 -0.1342 -0.0041
 1867SOL    HW1 7275   8.050   4.084   3.140 -1.6645  0.7340 -0.3084
 1867SOL    HW2 7276   8.157   4.132   3.045  1.3971 -1.6043  1.7524
 1868SOL     OW 7277   2.276   6.080   6.261 -0.2528  0.1178 -0.0769
 1868SOL    HW1 7278   2.265   6.082   6.356 -1.2856  2.0787 -0.1871
 1868SOL    HW2 7279   2.367   6.054   6.249  0.4740  1.6547  1.5486
 1869SOL     OW 7280   8.621   5.346   6.758  0.3539 -0.5120 -0.2600
 1869SOL    HW1 7281   8.713   5.365   6.778  0.7837  0.4281 -2.7983
 1869SOL    HW2 7282   8.624   5.297   6.676 -1.4011 -1.1311  0.0038
 1870SOL     OW 7283   2.410   6.631   1.662 -0.0117 -0.3868  0.4431
 1870SOL    HW1 7284   2.458   6.578   1.726 -0.2665 -0.0669  0.9043
 1870SOL    HW2 7285   2.428   6.589   1.578  0.4918 -0.6912  0.6996
 1871SOL     OW 7286   1.846   4.349   4.716  0.0277 -0.2352 -0.2039
 1871SOL    HW1 7287   1.925   4.352   4.661 -0.2338  2.8888 -0.5786
 1871SOL    HW2 7288   1.806   4.435   4.705 -1.9192 -0.7207  2.2354
 1872SOL     OW 7289   5.870   1.459   7.486 -0.2942  0.3197 -0.0466
 1872SOL    HW1 7290   5.790   1.443   7.435 -1.7289  2.5400  1.3160
 1872SOL    HW2 7291   5.839   1.471   7.576  1.6359  0.7119  0.6058
 1873SOL     OW 7292   6.627   5.109   4.306  0.5891 -0.3282 -0.0088
 1873SOL    HW1 7293   6.655   5.054   4.233 -0.1364 -0.3018 -0.3169
 1873SOL    HW2 7294   6.537   5.132   4.285  0.4996 -0.0026  0.7119
 1874SOL     OW 7295   0.209   0.457   1.307  0.2626 -0.2666  0.5974
 1874SOL    HW1 7296   0.156   0.518   1.358  1.0358 -0.2835  1.4481
 1874SOL    HW2 7297   0.257   0.407   1.372  0.3663 -1.1320 -0.1197
 1875SOL     OW 7298   8.533   5.921   0.656 -0.1801  0.5639  0.1450
 1875SOL    HW1 7299   8.479   5.843   0.668  1.3056 -0.6449 -0.6739
 1875SOL    HW2 7300   8.546   5.926   0.561 -0.3057  1.8761  0.1789
 1876SOL     OW 7301   0.956   7.222   0.766  0.5626 -0.4553  0.2410
 1876SOL    HW1 7302   0.947   7.318   0.759  0.2757 -0.3667  1.5487
 1876SOL    HW2 7303   1.003   7.209   0.849  0.8649 -1.4439 -0.0828
 1877SOL     OW 7304   1.809   2.519   6.321  0.4823 -0.0214  0.5977
 1877SOL    HW1 7305   1.902   2.520   6.340  0.2875  4.4142  2.7208
 1877SOL    HW2 7306   1.799   2.576   6.245 -0.5283  0.5396  1.1217
 1878SOL     OW 7307   5.128   5.131   2.586 -0.1743 -0.0588 -0.0778
 1878SOL    HW1 7308   5.071   5.088   2.523  1.5237 -1.6942 -0.5738
 1878SOL    HW2 7309   5.152   5.062   2.648  0.7182  0.7404  0.4984
 1879SOL     OW 7310   9.236   4.972   7.950 -0.2363 -0.1822  0.6101
 1879SOL    HW1 7311   9.303   5.027   7.991 -1.3538  1.9351 -0.2425
 1879SOL    HW2 7312   9.282   4.929   7.878  1.3137 -2.5944  2.9088
 1880SOL     OW 7313   2.452   4.526   1.424  0.0284 -0.1907  0.3527
 1880SOL    HW1 7314   2.474   4.508   1.515  0.6528  0.2789  0.2960
 1880SOL    HW2 7315   2.529   4.500   1.374 -1.3751 -3.4954 -0.4216
 1881SOL     OW 7316   1.709   6.936   5.332 -0.1491  0.0383 -0.4478
 1881SOL    HW1 7317   1.643   6.902   5.393 -0.4985  1.2586 -0.0942
 1881SOL    HW2 7318   1.693   6.891   5.250 -2.3225  1.2261 -0.7500
 1882SOL     OW 7319   8.048   8.544   7.269 -0.0856 -0.0064 -0.1386
 1882SOL    HW1 7320   8.031   8.511   7.181 -0.7792  0.2591 -0.1106
 1882SOL    HW2 7321   8.070   8.636   7.257 -0.9449  0.2261  0.0271
 1883SOL     OW 7322   1.681   6.111   4.555 -0.0704 -0.4672  0.6215
 1883SOL    HW1 7323   1.605   6.055   4.575  0.1275 -1.2180 -0.5976
 1883SOL    HW2 7324   1.683   6.114   4.460  3.6241 -3.6775  0.3300
 1884SOL     OW 7325   2.665   5.365   0.599 -0.0245 -0.5056 -0.0656
 1884SOL    HW1 7326   2.637   5.455   0.610  0.0494 -0.4947  0.0399
 1884SOL    HW2 7327   2.758   5.366   0.621  0.0645 -0.5357 -0.4477
 1885SOL     OW 7328   7.513   7.005   2.967  0.6702  0.1175  0.1507
 1885SOL    HW1 7329   7.605   7.029   2.968  0.5165  0.7097  0.9540
 1885SOL    HW2 7330   7.487   7.014   2.875  0.8000  2.3707  0.2778
 1886SOL     OW 7331   9.511   5.921   4.451 -0.4036 -0.5918  0.5206
 1886SOL    HW1 7332   9.559   5.923   4.534  3.8853  1.0840 -1.6700
 1886SOL    HW2 7333   9.544   5.843   4.406  0.4196  0.6169 -1.0735
 1887SOL     OW 7334   4.461   2.113   7.835 -0.0843 -0.4637 -0.3827
 1887SOL    HW1 7335   4.478   2.186   7.775 -0.2500  1.1332  1.4164
 1887SOL    HW2 7336   4.373   2.084   7.814  0.3374 -0.8344 -1.7600
 1888SOL     OW 7337   2.012   4.511   5.516 -0.1618 -0.2919 -0.2445
 1888SOL    HW1 7338   2.091   4.469   5.481 -0.3117 -1.9169  1.2122
 1888SOL    HW2 7339   2.045   4.572   5.581 -0.0771 -0.6346  0.0373
 1889SOL     OW 7340   2.768   2.016   8.716  0.0756  0.0392 -0.9694
 1889SOL    HW1 7341   2.851   2.015   8.668  0.0298 -0.7847 -1.0487
 1889SOL    HW2 7342   2.792   1.999   8.807  0.1672  1.6548 -0.6662
 1890SOL     OW 7343   9.390   6.377   6.204  0.0857  0.0340 -0.0120
 1890SOL    HW1 7344   9.450   6.340   6.268 -0.2485  0.1540  0.3765
 1890SOL    HW2 7345   9.303   6.364   6.242 -0.1754 -0.5997 -0.8060
 1891SOL     OW 7346   6.588   2.973   0.759 -0.5813  0.1065 -0.4330
 1891SOL    HW1 7347   6.574   3.062   0.791 -0.3552  0.3468 -0.9894
 1891SOL    HW2 7348   6.683   2.965   0.752 -0.5426 -0.5464  0.6191
 1892SOL     OW 7349   0.040   7.573   9.530  0.0832  0.1509 -0.1933
 1892SOL    HW1 7350   0.055   7.666   9.513 -1.2534  0.2484 -0.9720
 1892SOL    HW2 7351   0.080   7.557   9.615 -2.2599  2.1714  1.4253
 1893SOL     OW 7352   1.450   1.026   1.366  0.3009  0.6744  0.1906
 1893SOL    HW1 7353   1.510   1.014   1.441 -1.6245 -0.5081  1.6223
 1893SOL    HW2 7354   1.372   1.065   1.405  0.0712  2.1782 -1.6511
 1894SOL     OW 7355   4.411   0.385   2.542  0.1636  0.5162  0.0978
 1894SOL    HW1 7356   4.431   0.463   2.490  0.4118  0.4242  0.0547
 1894SOL    HW2 7357   4.342   0.341   2.492 -1.2204  1.5936  0.9901
 1895SOL     OW 7358   0.608   4.652   5.968 -0.5523 -0.5916 -0.1102
 1895SOL    HW1 7359   0.625   4.623   5.878 -0.9128  2.1944 -1.1941
 1895SOL    HW2 7360   0.685   4.624   6.017  0.7645 -0.1960 -1.8361
 1896SOL     OW 7361   5.515   6.151   1.132 -0.1422  0.2143 -0.0081
 1896SOL    HW1 7362   5.504   6.098   1.054  1.6180 -0.6543  0.2805
 1896SOL    HW2 7363   5.561   6.229   1.102  0.5232 -0.1140  0.1468
 1897SOL     OW 7364   7.412   2.133   3.879 -0.2344 -0.1255  0.2893
 1897SOL    HW1 7365   7.348   2.172   3.820  1.2602  0.3994 -1.0547
 1897SOL    HW2 7366   7.467   2.079   3.823  1.9293  1.2710  0.9610
 1898SOL     OW 7367   9.025   5.856   4.053 -0.4977 -0.0169 -0.1670
 1898SOL    HW1 7368   9.051   5.852   3.961 -0.3619  0.1529 -0.1378
 1898SOL    HW2 7369   9.108   5.853   4.101 -0.6281 -1.4076 -0.0035
 1899SOL     OW 7370   9.591   7.402   3.994  0.6492  0.4177  0.2646
 1899SOL    HW1 7371   9.499   7.396   3.967  0.9619  2.0983 -1.3668
 1899SOL    HW2 7372   9.594   7.354   4.077 -1.3075 -1.2281 -0.5183
 1900SOL     OW 7373   8.999   8.590   8.594 -0.1948 -0.3430 -0.2081
 1900SOL    HW1 7374   8.927   8.652   8.578 -0.5093 -1.2743 -2.8235
 1900SOL    HW2 7375   9.076   8.645   8.605 -0.8769  0.5917  0.0090
 1901SOL     OW 7376   2.808   4.972   9.438 -0.3514  0.7358 -0.2422
 1901SOL    HW1 7377   2.891   4.926   9.427  0.4022  2.0714 -0.4139
 1901SOL    HW2 7378   2.774   4.982   9.349  0.1924  1.7223 -0.3537
 1902SOL     OW 7379   0.657   5.213   8.507 -0.0374  0.3575  0.2067
 1902SOL    HW1 7380   0.626   5.301   8.484 -0.9043  0.0787  0.2688
 1902SOL    HW2 7381   0.753   5.220   8.505 -0.0964  1.2582  0.0500
 1903SOL     OW 7382   6.597   3.816   5.725 -0.5625  0.3611  0.0199
 1903SOL    HW1 7383   6.506   3.847   5.725 -0.7464 -0.1461  0.7796
 1903SOL    HW2 7384   6.593   3.731   5.770  0.1320 -0.1456 -0.8492
 1904SOL     OW 7385   2.585   8.144   9.053  0.0519 -0.2803  0.3509
 1904SOL    HW1 7386   2.529   8.088   9.107  1.1698 -0.2262  1.6110
 1904SOL    HW2 7387   2.601   8.093   8.974 -0.0542 -1.1661  0.8953
 1905SOL     OW 7388   0.148   5.294   6.507 -0.1584 -0.2692  0.1660
 1905SOL    HW1 7389   0.218   5.344   6.548  0.1314 -0.2353 -0.3537
 1905SOL    HW2 7390   0.142   5.214   6.558  1.2891 -0.9537 -0.6518
 1906SOL     OW 7391   6.142   9.026   5.827 -0.6224 -0.2751  0.3055
 1906SOL    HW1 7392   6.134   8.979   5.910 -1.5209  1.6967  1.4072
 1906SOL    HW2 7393   6.057   9.013   5.784 -1.2326  1.0274  1.0468
 1907SOL     OW 7394   1.623   4.669   4.855  0.4716 -0.8100 -0.1541
 1907SOL    HW1 7395   1.586   4.747   4.814 -0.5923 -0.4147  1.4184
 1907SOL    HW2 7396   1.616   4.601   4.788  1.8233  0.5047 -1.7071
 1908SOL     OW 7397   6.530   0.130   4.069  0.4457 -0.2310 -0.1183
 1908SOL    HW1 7398   6.468   0.064   4.100  0.8680 -0.4863  0.1902
 1908SOL    HW2 7399   6.503   0.211   4.113 -0.5847  0.0088 -1.1248
 1909SOL     OW 7400   0.220   9.366   1.514 -0.0251 -0.2943 -0.2546
 1909SOL    HW1 7401   0.297   9.318   1.483  1.0218  2.1089 -1.7320
 1909SOL    HW2 7402   0.255   9.427   1.579 -1.4789 -2.0543  2.3419
 1910SOL     OW 7403   6.855   1.392   2.013  0.1503  0.6193  0.2282
 1910SOL    HW1 7404   6.896   1.455   2.072 -0.4001  0.8672  0.3515
 1910SOL    HW2 7405   6.880   1.307   2.049  0.3298  0.7663  0.4588
 1911SOL     OW 7406   6.997   3.356   2.342 -0.3796 -0.4066  0.6281
 1911SOL    HW1 7407   6.994   3.389   2.253 -0.3143 -1.9332  0.0324
 1911SOL    HW2 7408   7.090   3.341   2.360 -0.4318 -0.5620  0.7747
 1912SOL     OW 7409   5.762   8.505   9.380  0.6308  0.2405 -0.4605
 1912SOL    HW1 7410   5.849   8.517   9.419 -1.0008  1.0900  3.4605
 1912SOL    HW2 7411   5.741   8.591   9.343  1.2526  0.1527 -1.0455
 1913SOL     OW 7412   3.479   8.725   0.281  0.6035  0.1618  0.4316
 1913SOL    HW1 7413   3.472   8.660   0.211 -0.3424  1.1907 -0.4565
 1913SOL    HW2 7414   3.543   8.788   0.249  1.0226  0.0369  1.0058
 1914SOL     OW 7415   0.616   7.678   6.137 -0.3230 -0.1451  0.5580
 1914SOL    HW1 7416   0.584   7.640   6.055  0.5842 -1.7666  0.9055
 1914SOL    HW2 7417   0.607   7.607   6.201 -0.4676  0.9032  1.7362
 1915SOL     OW 7418   8.929   3.003   5.355 -0.2668  0.4221 -0.2308
 1915SOL    HW1 7419   8.880   3.052   5.288  1.1863 -0.9215 -2.4276
 1915SOL    HW2 7420   9.005   3.057   5.374 -1.3911  1.4818  1.5267
 1916SOL     OW 7421   1.864   3.146   8.275 -0.5565  0.4689 -0.0690
 1916SOL    HW1 7422   1.789   3.089   8.257 -1.3544  1.3894  0.2947
 1916SOL    HW2 7423   1.923   3.091   8.326 -2.1204  0.4726  1.8510
 1917SOL     OW 7424   2.154   4.952   4.813 -0.1706 -0.6859  0.1715
 1917SOL    HW1 7425   2.188   4.868   4.844  0.3763 -1.0734 -1.3728
 1917SOL    HW2 7426   2.059   4.945   4.826  0.0686 -0.4302  2.5486
 1918SOL     OW 7427   3.489   0.290   0.980  0.2872  0.2846 -0.2558
 1918SOL    HW1 7428   3.423   0.296   1.049 -0.1936 -2.2742 -0.3918
 1918SOL    HW2 7429   3.441   0.258   0.903  0.9321  2.4611 -1.6783
 1919SOL     OW 7430   7.460   8.411   4.733  0.0471 -0.4513  0.2021
 1919SOL    HW1 7431   7.400   8.463   4.679 -0.2341  0.0769  1.0026
 1919SOL    HW2 7432   7.466   8.327   4.687 -3.1360 -1.3913  1.2294
 1920SOL     OW 7433   1.753   3.619   6.250 -0.1250  0.0170 -0.7983
 1920SOL    HW1 7434   1.827   3.560   6.266 -0.6877 -0.5394 -0.1679
 1920SOL    HW2 7435   1.781   3.673   6.177  1.2662  0.4259 -0.0044
 1921SOL     OW 7436   4.450   1.615   6.288  0.0914 -0.0436 -0.4905
 1921SOL    HW1 7437   4.377   1.676   6.302 -0.1406 -0.5541  0.7469
 1921SOL    HW2 7438   4.498   1.651   6.214 -0.5736  1.1206 -0.3883
 1922SOL     OW 7439   9.323   7.160   9.037 -0.3619 -0.0375 -0.0995
 1922SOL    HW1 7440   9.393   7.214   9.073  0.7692 -1.5045 -0.0103
 1922SOL    HW2 7441   9.243   7.208   9.058  0.6401  2.3645 -1.3692
 1923SOL     OW 7442   5.449   6.450   0.788  0.6365 -0.7983  0.2613
 1923SOL    HW1 7443   5.377   6.402   0.829  0.0859  0.0912  0.3616
 1923SOL    HW2 7444   5.439   6.540   0.821 -0.3079  0.1494 -2.3881
 1924SOL     OW 7445   3.064   1.324   9.317  0.2251 -0.5569 -0.4651
 1924SOL    HW1 7446   3.013   1.333   9.236  0.4425  1.9058 -0.4082
 1924SOL    HW2 7447   3.155   1.332   9.289  0.3891 -1.1659 -0.1263
 1925SOL     OW 7448   1.687   9.654   0.540 -0.2612 -0.4402  0.1063
 1925SOL    HW1 7449   1.678   9.667   0.445 -1.4169 -0.5818  0.1821
 1925SOL    HW2 7450   1.622   9.713   0.579  1.0519  0.5295  0.8848
 1926SOL     OW 7451   4.860   4.346   0.549 -0.5625  0.2358 -0.6238
 1926SOL    HW1 7452   4.833   4.434   0.524 -1.2565 -0.0237 -0.8158
 1926SOL    HW2 7453   4.905   4.312   0.472  1.8783  1.2558  0.2328
 1927SOL     OW 7454   3.655   4.006   3.094 -0.9357 -0.3590 -0.4368
 1927SOL    HW1 7455   3.694   4.094   3.091  1.1383 -1.2275 -0.3905
 1927SOL    HW2 7456   3.613   3.996   3.009  0.2185  0.0953 -1.0878
 1928SOL     OW 7457   5.170   2.958   3.296 -0.2236  0.4143  0.3763
 1928SOL    HW1 7458   5.214   3.042   3.307  1.0320 -0.0789 -0.5712
 1928SOL    HW2 7459   5.224   2.897   3.346  1.1379 -0.4723 -2.0113
 1929SOL     OW 7460   5.923   3.593   2.487 -0.0676 -0.5608  0.3441
 1929SOL    HW1 7461   5.854   3.612   2.550 -1.0761 -2.1732 -0.2156
 1929SOL    HW2 7462   5.963   3.512   2.519 -0.5056 -1.3338 -0.9721
 1930SOL     OW 7463   2.675   3.096   7.265 -0.6451 -0.3419 -0.7067
 1930SOL    HW1 7464   2.637   3.008   7.260  0.8879 -0.9920 -2.0016
 1930SOL    HW2 7465   2.669   3.119   7.358 -1.0425 -1.8278 -0.3255
 1931SOL     OW 7466   5.487   2.455   4.160  0.0722  0.2055 -0.3236
 1931SOL    HW1 7467   5.513   2.526   4.220 -1.5192  1.7616 -1.3749
 1931SOL    HW2 7468   5.549   2.461   4.088  1.6989 -1.3685  0.8582
 1932SOL     OW 7469   7.078   1.194   7.672 -0.1543  0.0373 -0.4630
 1932SOL    HW1 7470   7.020   1.252   7.722  0.2231 -1.4405  1.8593
 1932SOL    HW2 7471   7.032   1.110   7.672  0.8951 -0.5431 -0.6884
 1933SOL     OW 7472   1.593   0.523   2.079 -0.4291 -0.0946  0.3426
 1933SOL    HW1 7473   1.679   0.496   2.110 -0.8398 -0.8393  0.8946
 1933SOL    HW2 7474   1.607   0.549   1.988  0.4728  0.3423  0.5965
 1934SOL     OW 7475   3.099   4.132   6.252 -0.0555 -0.3266  0.1924
 1934SOL    HW1 7476   3.154   4.148   6.330  0.0650  1.1452 -0.1585
 1934SOL    HW2 7477   3.152   4.075   6.197  0.8141  0.4390  0.2083
 1935SOL     OW 7478   4.049   7.608   0.918  0.2519  0.3748  0.5668
 1935SOL    HW1 7479   4.061   7.522   0.958  0.4853  0.6711  1.1516
 1935SOL    HW2 7480   3.956   7.627   0.930  0.2978  0.4133  0.8729
 1936SOL     OW 7481   5.599   0.085   2.516  0.1624  0.8188 -0.2657
 1936SOL    HW1 7482   5.667   0.066   2.581  1.5539 -0.4309 -1.9703
 1936SOL    HW2 7483   5.582   0.001   2.474 -0.7558  1.5692 -1.4676
 1937SOL     OW 7484   5.468   4.533   6.105 -0.1601 -0.1563 -0.0105
 1937SOL    HW1 7485   5.491   4.467   6.171 -0.1917 -1.0409 -0.8451
 1937SOL    HW2 7486   5.401   4.490   6.052 -0.4773  0.7175 -0.3216
 1938SOL     OW 7487   4.114   9.446   7.869 -0.2404  0.1297 -0.6798
 1938SOL    HW1 7488   4.139   9.362   7.831  2.4590 -0.8372  2.6541
 1938SOL    HW2 7489   4.154   9.511   7.812  2.5464 -1.1672 -0.3979
 1939SOL     OW 7490   0.852   3.397   9.410 -0.1075  0.0279 -0.2723
 1939SOL    HW1 7491   0.859   3.417   9.317  0.8109 -0.9944 -0.4396
 1939SOL    HW2 7492   0.904   3.464   9.453 -1.1215  0.9308 -0.4307
 1940SOL     OW 7493   1.801   5.565   5.551  0.1470  0.2319  0.1481
 1940SOL    HW1 7494   1.744   5.642   5.553 -2.0485 -1.2787 -0.1636
 1940SOL    HW2 7495   1.744   5.493   5.578  1.3740 -1.7058 -2.0822
 1941SOL     OW 7496   5.787   8.363   2.012 -0.6991 -0.3548 -0.1235
 1941SOL    HW1 7497   5.832   8.278   2.015 -0.8857 -0.6937 -3.2801
 1941SOL    HW2 7498   5.768   8.376   1.919  0.0016  3.5447  0.1377
 1942SOL     OW 7499   7.925   1.443   7.981 -0.5070 -0.0122  0.0484
 1942SOL    HW1 7500   7.900   1.368   8.035 -1.3829 -0.0650 -0.4078
 1942SOL    HW2 7501   7.843   1.472   7.940 -0.2433  1.3504  0.4124
 1943SOL     OW 7502   2.132   4.201   7.063  0.0917  0.4233 -0.0318
 1943SOL    HW1 7503   2.040   4.186   7.040 -0.3363 -0.6038  2.1216
 1943SOL    HW2 7504   2.135   4.294   7.087 -0.5671  0.2910  0.6019
 1944SOL     OW 7505   4.730   8.737   8.045  0.0911  0.7938 -0.1105
 1944SOL    HW1 7506   4.816   8.697   8.060 -0.6657 -1.0833 -0.4663
 1944SOL    HW2 7507   4.710   8.716   7.954 -1.2969  0.0682  0.3418
 1945SOL     OW 7508   0.413   7.385   3.648  0.3091  0.0500  0.4034
 1945SOL    HW1 7509   0.392   7.479   3.649 -0.9071 -0.1714 -0.6818
 1945SOL    HW2 7510   0.443   7.369   3.558 -0.3521 -0.7530  0.3120
 1946SOL     OW 7511   5.711   7.471   9.617 -0.4051 -0.1585 -0.1440
 1946SOL    HW1 7512   5.789   7.427   9.650 -0.8450 -0.2503  0.8091
 1946SOL    HW2 7513   5.745   7.548   9.571  0.2185  0.3533  1.1200
 1947SOL     OW 7514   1.432   2.033   3.908 -0.1785 -0.1230 -0.2077
 1947SOL    HW1 7515   1.370   2.084   3.856  0.2341  1.2129  0.5627
 1947SOL    HW2 7516   1.386   2.017   3.991 -0.0007 -0.3332 -0.1485
 1948SOL     OW 7517   4.857   1.836   6.858  0.5032 -0.3387  0.2237
 1948SOL    HW1 7518   4.833   1.743   6.852  0.3018 -0.3773  1.4455
 1948SOL    HW2 7519   4.774   1.882   6.857  0.6076 -0.1567 -0.4801
 1949SOL     OW 7520   8.372   6.070   8.201  0.5206 -0.3087 -0.2250
 1949SOL    HW1 7521   8.364   6.129   8.127 -1.3354 -0.0803  0.1123
 1949SOL    HW2 7522   8.319   6.109   8.270  0.3964 -1.6402  0.4845
 1950SOL     OW 7523   4.662   5.305   5.490 -0.3303  0.0654 -0.0534
 1950SOL    HW1 7524   4.693   5.395   5.479 -2.6629  0.9479  0.0187
 1950SOL    HW2 7525   4.616   5.285   5.409 -2.5782  0.1654  1.1162
 1951SOL     OW 7526   1.985   6.123   9.437  0.1521  0.6170  0.1245
 1951SOL    HW1 7527   1.997   6.145   9.530  0.1307  0.6138  0.1279
 1951SOL    HW2 7528   1.931   6.195   9.403  0.8881  1.0764 -0.0886
 1952SOL     OW 7529   6.662   9.440   6.389 -0.0565 -0.1382 -0.2096
 1952SOL    HW1 7530   6.705   9.361   6.354 -0.4968 -0.4526 -0.0433
 1952SOL    HW2 7531   6.636   9.489   6.311 -0.5847 -0.5927 -0.3229
 1953SOL     OW 7532   4.928   4.902   8.451  0.1121 -0.7046  0.1811
 1953SOL    HW1 7533   4.861   4.894   8.382  0.9691  1.5159 -1.0187
 1953SOL    HW2 7534   4.887   4.958   8.517  0.4868 -0.0276 -0.1578
 1954SOL     OW 7535   2.543   9.588   6.910  0.2296  0.2542  0.5272
 1954SOL    HW1 7536   2.533   9.527   6.836 -0.8698 -0.5570  1.3166
 1954SOL    HW2 7537   2.502   9.669   6.879  0.2102  0.0777  0.0730
 1955SOL     OW 7538   7.968   6.839   9.575  0.3893  0.4167 -0.1722
 1955SOL    HW1 7539   7.922   6.760   9.548 -0.6238  0.6940  0.6812
 1955SOL    HW2 7540   8.050   6.806   9.613 -0.6439 -0.3724  1.4906
 1956SOL     OW 7541   0.488   5.583   5.596  0.1607 -0.2753 -0.4592
 1956SOL    HW1 7542   0.554   5.653   5.589  0.3772 -0.4295  0.0335
 1956SOL    HW2 7543   0.524   5.512   5.543  0.0994 -0.1408 -0.6859
 1957SOL     OW 7544   0.142   8.802   0.800 -0.0841  0.4030 -0.3964
 1957SOL    HW1 7545   0.110   8.764   0.718 -2.8294  0.8924  0.3531
 1957SOL    HW2 7546   0.204   8.737   0.834 -0.5231 -0.8053 -1.7987
 1958SOL     OW 7547   1.516   8.364   4.868 -0.1794 -0.4673 -0.2419
 1958SOL    HW1 7548   1.560   8.280   4.863 -2.2356 -1.6040 -0.3086
 1958SOL    HW2 7549   1.469   8.372   4.785 -1.0719  0.0909  0.2884
 1959SOL     OW 7550   6.161   5.402   1.556 -0.1188  0.1904  0.0031
 1959SOL    HW1 7551   6.169   5.334   1.623  0.3505  0.3663  0.1334
 1959SOL    HW2 7552   6.068   5.423   1.553 -0.4939 -1.3846 -0.9517
 1960SOL     OW 7553   0.498   3.034   3.182 -0.6422  0.0752  0.2696
 1960SOL    HW1 7554   0.495   2.945   3.147 -0.6132  0.2001 -0.0513
 1960SOL    HW2 7555   0.506   3.090   3.105  0.3489  0.2968  0.5215
 1961SOL     OW 7556   9.485   5.226   2.920 -0.0023 -0.2247  0.4853
 1961SOL    HW1 7557   9.531   5.281   2.857  1.3661  0.1297  1.7506
 1961SOL    HW2 7558   9.401   5.270   2.932  0.0236  0.1248 -0.4737
 1962SOL     OW 7559   8.882   2.497   5.411 -0.3638 -0.0972 -0.0108
 1962SOL    HW1 7560   8.789   2.482   5.397 -0.2682 -0.8065  0.0793
 1962SOL    HW2 7561   8.889   2.591   5.429 -1.3000 -0.3334  1.7966
 1963SOL     OW 7562   5.157   0.926   2.978 -0.3607  0.1173 -0.7597
 1963SOL    HW1 7563   5.203   0.874   2.912  3.2622  0.5046  1.2171
 1963SOL    HW2 7564   5.160   1.016   2.944  2.2368  0.4528  0.1357
 1964SOL     OW 7565   6.267   1.517   7.368  0.2673 -0.6830  0.1038
 1964SOL    HW1 7566   6.248   1.545   7.457  1.2651 -0.8561  0.3850
 1964SOL    HW2 7567   6.322   1.439   7.379  1.9018  0.3285 -0.6504
 1965SOL     OW 7568   1.549   2.415   0.697 -0.0897  0.0703  0.1955
 1965SOL    HW1 7569   1.513   2.416   0.786  0.4493 -1.8596  0.4708
 1965SOL    HW2 7570   1.636   2.378   0.707 -0.3176 -0.9197 -1.2424
 1966SOL     OW 7571   6.346   1.043   1.186 -0.1124 -0.2691  0.6962
 1966SOL    HW1 7572   6.404   0.974   1.153  1.9484  1.6573 -0.0367
 1966SOL    HW2 7573   6.285   1.060   1.115  1.5609  0.9017 -0.5521
 1967SOL     OW 7574   8.939   2.601   1.198  0.0046 -0.0356  0.2509
 1967SOL    HW1 7575   8.851   2.622   1.168  0.0287  1.2747  1.0467
 1967SOL    HW2 7576   8.983   2.566   1.120 -1.0789 -0.2986 -0.2562
 1968SOL     OW 7577   0.732   8.843   9.467 -0.4648 -0.0780  0.5032
 1968SOL    HW1 7578   0.792   8.904   9.423 -0.8872 -0.1442 -0.1678
 1968SOL    HW2 7579   0.778   8.759   9.466 -0.0781  0.1231  1.0221
 1969SOL     OW 7580   7.999   7.594   5.786  0.5520 -0.0020 -0.9289
 1969SOL    HW1 7581   8.061   7.555   5.724  0.5342  0.9516 -1.5633
 1969SOL    HW2 7582   8.045   7.670   5.822  0.3258 -0.1902 -0.2277
 1970SOL     OW 7583   2.113   3.214   5.565 -0.5852 -0.0323  0.1402
 1970SOL    HW1 7584   2.169   3.213   5.487  0.5042 -1.0461  0.8854
 1970SOL    HW2 7585   2.046   3.279   5.546  1.9387  2.7319 -0.0653
 1971SOL     OW 7586   9.190   3.351   3.341  1.2326  0.7621  0.1098
 1971SOL    HW1 7587   9.265   3.383   3.392  2.3182  1.6589 -1.9525
 1971SOL    HW2 7588   9.120   3.413   3.362  1.1288  0.1431  1.7591
 1972SOL     OW 7589   7.681   0.844   2.907  0.5517  0.0657 -0.5565
 1972SOL    HW1 7590   7.680   0.903   2.832 -1.5698 -0.0886 -0.6970
 1972SOL    HW2 7591   7.603   0.868   2.957  2.4501  0.9095  2.2441
 1973SOL     OW 7592   7.757   8.166   1.276  0.2689  0.1602 -0.3978
 1973SOL    HW1 7593   7.820   8.098   1.299 -0.0371 -0.1713 -0.5233
 1973SOL    HW2 7594   7.799   8.248   1.303  0.0585 -0.1789  1.0201
 1974SOL     OW 7595   4.114   4.033   9.081  0.4285  0.4710 -0.5400
 1974SOL    HW1 7596   4.132   4.116   9.125  0.1744 -0.0744  0.6453
 1974SOL    HW2 7597   4.043   4.052   9.021 -0.2200  0.9239  0.3555
 1975SOL     OW 7598   0.189   4.387   7.805 -0.7197  0.3741 -1.1454
 1975SOL    HW1 7599   0.251   4.428   7.866 -0.2645 -1.1163 -0.5610
 1975SOL    HW2 7600   0.112   4.444   7.808 -1.5022 -0.6347  2.3778
 1976SOL     OW 7601   8.714   9.541   4.147 -0.4269 -0.7119  0.6308
 1976SOL    HW1 7602   8.663   9.617   4.121  1.6118  1.1943  1.8625
 1976SOL    HW2 7603   8.695   9.530   4.241  1.2259 -0.0259  1.0895
 1977SOL     OW 7604   8.727   7.924   5.197 -0.1818  0.6644  0.1060
 1977SOL    HW1 7605   8.764   7.847   5.154 -0.4429  0.6093 -0.0224
 1977SOL    HW2 7606   8.800   7.963   5.244 -0.5247 -1.0315  2.2261
 1978SOL     OW 7607   0.801   0.999   1.344  0.3937 -0.6074 -0.2641
 1978SOL    HW1 7608   0.719   1.012   1.297 -0.9630  1.0446  2.3334
 1978SOL    HW2 7609   0.836   1.087   1.357  1.9044 -1.1914 -0.1413
 1979SOL     OW 7610   1.744   6.559   2.836 -0.0044  0.5525  0.2287
 1979SOL    HW1 7611   1.774   6.557   2.927 -1.6673  1.7235  0.8391
 1979SOL    HW2 7612   1.790   6.486   2.794  0.4844 -0.2631  2.0960
 1980SOL     OW 7613   5.494   2.181   7.738  0.0569 -0.1143  0.3840
 1980SOL    HW1 7614   5.490   2.170   7.643  0.0945 -0.3032  0.4044
 1980SOL    HW2 7615   5.420   2.129   7.771  0.8657 -1.2062  0.5539
 1981SOL     OW 7616   4.920   6.865   1.634  0.1111 -0.4230  0.1059
 1981SOL    HW1 7617   5.007   6.889   1.666 -0.2500  2.1204 -0.6051
 1981SOL    HW2 7618   4.871   6.844   1.714  0.8043  0.1844  0.7109
 1982SOL     OW 7619   3.649   7.592   4.733 -0.4783  0.0144 -0.5914
 1982SOL    HW1 7620   3.687   7.582   4.820 -0.6167 -0.6097 -0.5955
 1982SOL    HW2 7621   3.723   7.580   4.673 -0.1711  1.5456 -0.5469
 1983SOL     OW 7622   4.389   1.119   8.845 -0.6598 -0.4384  0.0183
 1983SOL    HW1 7623   4.469   1.075   8.817  0.5645  0.4785  1.8882
 1983SOL    HW2 7624   4.353   1.158   8.765  0.2958 -1.5737 -0.9885
 1984SOL     OW 7625   4.676   1.232   7.211  0.2151 -0.2111  0.2161
 1984SOL    HW1 7626   4.690   1.326   7.199 -0.7924 -0.3900 -3.8149
 1984SOL    HW2 7627   4.760   1.199   7.243  0.2514  2.0758  2.9370
 1985SOL     OW 7628   9.287   5.153   3.364  0.0348  0.2179 -0.0319
 1985SOL    HW1 7629   9.214   5.200   3.322  1.3157  1.3947 -1.0222
 1985SOL    HW2 7630   9.365   5.184   3.318  1.3854  0.4842  2.3203
 1986SOL     OW 7631   2.880   7.864   0.512 -0.2487  0.4235 -0.4952
 1986SOL    HW1 7632   2.946   7.908   0.459  3.3998 -2.7609  0.9526
 1986SOL    HW2 7633   2.845   7.795   0.455 -0.1206  0.2479 -0.3639
 1987SOL     OW 7634   0.953   3.169   7.932 -0.1664  0.0967 -0.2677
 1987SOL    HW1 7635   0.958   3.240   7.996  0.1178 -0.3981  0.2772
 1987SOL    HW2 7636   1.017   3.104   7.964 -0.8227 -0.6475 -0.4395
 1988SOL     OW 7637   0.427   6.368   2.151  0.3574 -0.2829  0.3685
 1988SOL    HW1 7638   0.421   6.274   2.166 -0.6140 -0.0500  1.5375
 1988SOL    HW2 7639   0.418   6.407   2.238 -0.5632  0.9476 -0.2591
 1989SOL     OW 7640   1.724   6.711   1.525 -0.3252  0.7086  0.2322
 1989SOL    HW1 7641   1.762   6.793   1.495 -0.0684  0.8150  0.8334
 1989SOL    HW2 7642   1.754   6.702   1.615  2.7514 -1.8636 -0.8477
 1990SOL     OW 7643   7.032   9.637   1.048 -0.4731  0.4998 -0.0085
 1990SOL    HW1 7644   6.977   9.693   1.104 -1.0500  1.2909 -1.3023
 1990SOL    HW2 7645   7.101   9.695   1.016 -0.9239  0.4308 -1.1607
 1991SOL     OW 7646   0.278   6.695   3.243  0.2324 -0.4066  0.4118
 1991SOL    HW1 7647   0.223   6.645   3.183 -0.0438  0.4284 -0.0428
 1991SOL    HW2 7648   0.348   6.634   3.267  0.0768 -0.9165 -0.3738
 1992SOL     OW 7649   8.419   8.389   3.146 -0.1335 -0.0047 -0.2743
 1992SOL    HW1 7650   8.467   8.308   3.129  0.0728  0.0037  0.2528
 1992SOL    HW2 7651   8.397   8.422   3.059 -0.8162 -0.9732 -0.4846
 1993SOL     OW 7652   8.561   4.373   6.427  0.3715 -0.2551  0.3420
 1993SOL    HW1 7653   8.496   4.356   6.359  1.2924  0.6460 -0.8059
 1993SOL    HW2 7654   8.523   4.442   6.480 -1.8190 -3.1377  2.8674
 1994SOL     OW 7655   1.489   5.394   2.018  0.1028  0.7236  0.3548
 1994SOL    HW1 7656   1.440   5.465   2.059 -1.6532  0.8478 -1.7692
 1994SOL    HW2 7657   1.534   5.435   1.944 -1.2334 -0.3329 -1.1327
 1995SOL     OW 7658   7.598   6.722   1.671 -0.6920  0.0586  0.4775
 1995SOL    HW1 7659   7.629   6.716   1.762 -1.7689  1.8760  1.0225
 1995SOL    HW2 7660   7.662   6.777   1.627 -1.0603  0.5975  0.6008
 1996SOL     OW 7661   7.117   0.502   0.735  0.1161  0.0571  0.1924
 1996SOL    HW1 7662   7.196   0.476   0.783 -0.4779 -0.0706  1.1158
 1996SOL    HW2 7663   7.063   0.547   0.800 -0.5852  0.1318 -0.4325
 1997SOL     OW 7664   6.125   1.416   9.545  0.2439  0.2751  0.0993
 1997SOL    HW1 7665   6.080   1.379   9.621 -1.6413  0.4791 -0.8338
 1997SOL    HW2 7666   6.159   1.340   9.498 -1.9387 -0.2364 -0.8042
 1998SOL     OW 7667   1.237   3.012   4.507 -0.2096 -0.2968  0.0471
 1998SOL    HW1 7668   1.173   3.051   4.447  0.7741 -0.8483 -1.4308
 1998SOL    HW2 7669   1.265   2.932   4.462 -0.8147 -1.7595  2.1407
 1999SOL     OW 7670   0.808   7.442   5.195 -0.0102 -0.1656 -0.0586
 1999SOL    HW1 7671   0.741   7.506   5.217 -0.2074 -0.8697  1.4628
 1999SOL    HW2 7672   0.868   7.489   5.136 -0.2529  1.3465  0.8672
 2000SOL     OW 7673   6.562   4.989   7.857  0.5071 -0.5844 -0.2390
 2000SOL    HW1 7674   6.534   5.071   7.817 -0.3194 -1.4459 -1.5134
 2000SOL    HW2 7675   6.647   5.009   7.896 -0.1287  1.1127  0.3549
 2001SOL     OW 7676   6.381   1.472   9.147 -0.0877 -0.3988  0.5358
 2001SOL    HW1 7677   6.408   1.444   9.059  1.2281 -0.3586  0.9050
 2001SOL    HW2 7678   6.351   1.562   9.135  1.4292  0.1179  0.3217
 2002SOL     OW 7679   3.054   4.433   3.637 -0.2834  0.3853  0.5615
 2002SOL    HW1 7680   2.968   4.410   3.672 -0.0614 -0.8497  0.3314
 2002SOL    HW2 7681   3.047   4.415   3.543 -0.2764  1.8639  0.2493
 2003SOL     OW 7682   8.250   3.841   4.124  0.2410 -0.3617  1.2138
 2003SOL    HW1 7683   8.340   3.873   4.129 -0.0777  0.7506  0.3365
 2003SOL    HW2 7684   8.211   3.867   4.207  0.5362 -0.2300  1.3160
 2004SOL     OW 7685   4.935   1.925   1.005 -0.3094 -0.4616  0.0300
 2004SOL    HW1 7686   4.904   1.985   1.074  0.0722  0.2309 -0.3944
 2004SOL    HW2 7687   4.868   1.931   0.937 -0.2503 -0.4921 -0.0308
 2005SOL     OW 7688   5.274   0.181   9.242 -0.6839 -0.2306  0.1357
 2005SOL    HW1 7689   5.246   0.149   9.156  1.2467 -0.8724 -0.2888
 2005SOL    HW2 7690   5.359   0.222   9.227 -1.1574  1.3476  1.4384
 2006SOL     OW 7691   3.217   3.151   1.599 -0.3122  0.4286 -0.2233
 2006SOL    HW1 7692   3.123   3.167   1.594 -0.3497  0.7633  1.1969
 2006SOL    HW2 7693   3.254   3.236   1.625  0.5565  0.6883 -2.1494
 2007SOL     OW 7694   8.884   9.406   1.502 -0.2259  0.1606 -0.1689
 2007SOL    HW1 7695   8.939   9.362   1.437 -0.0615 -0.4663  0.3847
 2007SOL    HW2 7696   8.794   9.385   1.476 -0.1938  0.6616 -0.7100
 2008SOL     OW 7697   3.646   3.815   6.285  0.2508  0.7041 -0.0608
 2008SOL    HW1 7698   3.647   3.841   6.377  1.2693  0.9442 -0.1364
 2008SOL    HW2 7699   3.657   3.720   6.287 -0.9416  0.5457  0.1004
 2009SOL     OW 7700   1.871   1.339   5.470  0.3399 -0.9933 -0.0305
 2009SOL    HW1 7701   1.951   1.391   5.470 -1.5567  2.2350 -0.9144
 2009SOL    HW2 7702   1.866   1.302   5.382  0.5066 -0.5719 -0.2211
 2010SOL     OW 7703   0.636   5.213   8.066  0.5936 -0.7922 -0.3300
 2010SOL    HW1 7704   0.672   5.125   8.050  1.2426 -0.8803  1.4170
 2010SOL    HW2 7705   0.556   5.198   8.115  0.7150 -0.4115 -0.0099
 2011SOL     OW 7706   3.024   4.663   7.052 -0.2600  0.2689  0.3441
 2011SOL    HW1 7707   2.990   4.591   7.105  3.1881 -0.5122  1.7416
 2011SOL    HW2 7708   3.030   4.627   6.964  0.0649 -0.6995  0.7423
 2012SOL     OW 7709   1.643   0.751   6.313 -0.2009 -0.1734  0.2455
 2012SOL    HW1 7710   1.715   0.764   6.376  1.7609  0.3401 -1.9531
 2012SOL    HW2 7711   1.564   0.774   6.362  1.3308  1.2810  2.2154
 2013SOL     OW 7712   3.584   1.638   4.897  0.2292 -0.3238 -0.9947
 2013SOL    HW1 7713   3.662   1.587   4.873  0.2888  0.0649 -1.6378
 2013SOL    HW2 7714   3.594   1.653   4.991  0.1664 -1.5712 -0.7649
 2014SOL     OW 7715   3.227   3.649   4.985 -0.1711 -0.0110  0.2323
 2014SOL    HW1 7716   3.269   3.651   5.072 -0.6996 -0.2698  0.4983
 2014SOL    HW2 7717   3.299   3.636   4.924  0.0156 -1.7888  0.7804
 2015SOL     OW 7718   1.600   6.426   0.797  0.3857 -0.0369 -0.2458
 2015SOL    HW1 7719   1.599   6.511   0.843 -0.8304 -0.2486  0.1437
 2015SOL    HW2 7720   1.534   6.435   0.728  1.2541 -0.1932 -1.1255
 2016SOL     OW 7721   7.372   9.409   2.176 -0.2270  0.7327 -0.0169
 2016SOL    HW1 7722   7.308   9.395   2.246  2.4633 -2.1526  2.1806
 2016SOL    HW2 7723   7.363   9.332   2.120  0.8083  0.6194 -0.0403
 2017SOL     OW 7724   6.875   1.979   6.343  0.4020 -0.2228  0.3019
 2017SOL    HW1 7725   6.800   1.995   6.287  0.9238 -0.9097 -0.6248
 2017SOL    HW2 7726   6.940   2.043   6.317  0.9657 -1.1039 -0.5103
 2018SOL     OW 7727   6.597   1.599   0.095  0.3703 -0.2037  0.1789
 2018SOL    HW1 7728   6.664   1.547   0.051  0.1258 -0.1756 -0.2433
 2018SOL    HW2 7729   6.539   1.628   0.024  0.5756  0.7546  0.3807
 2019SOL     OW 7730   8.139   4.061   1.835  0.4897 -0.0329  0.6684
 2019SOL    HW1 7731   8.151   4.032   1.744 -0.1863  0.1717  0.5112
 2019SOL    HW2 7732   8.188   4.143   1.840  1.3642 -0.5446  0.7722
 2020SOL     OW 7733   4.937   5.872   7.460 -0.1899 -0.2004  0.0319
 2020SOL    HW1 7734   4.879   5.798   7.443 -0.7240 -0.0075  0.9196
 2020SOL    HW2 7735   4.878   5.948   7.461 -0.6862 -0.3456  4.5221
 2021SOL     OW 7736   7.299   5.737   2.900  0.2034  0.0406 -0.0838
 2021SOL    HW1 7737   7.244   5.810   2.870 -0.8757 -1.2211 -1.3173
 2021SOL    HW2 7738   7.374   5.780   2.942  0.7954  1.9558 -2.7850
 2022SOL     OW 7739   2.644   7.301   0.231  0.4939 -0.4314 -0.3891
 2022SOL    HW1 7740   2.605   7.351   0.160 -0.1414  2.3657  1.7546
 2022SOL    HW2 7741   2.573   7.245   0.262 -0.7573  1.7429  0.9314
 2023SOL     OW 7742   8.055   7.310   9.639  0.8577  0.5800 -0.2363
 2023SOL    HW1 7743   8.128   7.352   9.685  1.6259 -1.3798  0.4607
 2023SOL    HW2 7744   7.993   7.287   9.709 -0.9661  3.0594 -0.9081
 2024SOL     OW 7745   0.552   3.424   3.995 -0.7411  0.7685 -0.2149
 2024SOL    HW1 7746   0.615   3.472   3.942  0.1450  0.3913  0.4758
 2024SOL    HW2 7747   0.604   3.385   4.065 -1.4020 -1.2641 -0.7696
 2025SOL     OW 7748   7.069   2.145   9.139 -0.2913 -0.0611 -0.1299
 2025SOL    HW1 7749   7.027   2.068   9.179 -2.1250 -0.7968 -3.1376
 2025SOL    HW2 7750   7.121   2.109   9.067  1.1110  1.3468  0.1280
 2026SOL     OW 7751   5.629   9.275   5.164  0.0892  0.0542  0.4070
 2026SOL    HW1 7752   5.588   9.257   5.080  2.2288 -0.4276 -0.5948
 2026SOL    HW2 7753   5.720   9.250   5.152  0.9909  2.2261  2.1376
 2027SOL     OW 7754   6.761   9.552   5.490 -0.1439 -0.2186  0.5919
 2027SOL    HW1 7755   6.822   9.614   5.451  0.6396  0.1772  2.3743
 2027SOL    HW2 7756   6.785   9.548   5.582 -0.9802 -2.2286  0.7912
 2028SOL     OW 7757   2.580   1.737   2.442  0.2520 -0.5390 -0.0567
 2028SOL    HW1 7758   2.570   1.777   2.528  2.8015  0.0865  0.0444
 2028SOL    HW2 7759   2.632   1.658   2.459  1.7218  0.1638 -1.0917
 2029SOL     OW 7760   0.555   6.780   3.930  0.2688 -0.5748 -0.6676
 2029SOL    HW1 7761   0.638   6.759   3.887  0.9937  0.0177  0.3767
 2029SOL    HW2 7762   0.561   6.874   3.948 -1.0998 -0.2992 -1.5181
 2030SOL     OW 7763   2.971   1.100   4.735  0.0618  0.1548  0.3952
 2030SOL    HW1 7764   3.012   1.151   4.664  0.4917 -0.7918 -0.0490
 2030SOL    HW2 7765   2.884   1.080   4.702 -0.1949  0.7983  0.6708
 2031SOL     OW 7766   5.433   9.499   3.334 -0.2701  0.0464 -0.3655
 2031SOL    HW1 7767   5.475   9.513   3.418 -0.4081  0.9607 -0.4359
 2031SOL    HW2 7768   5.380   9.420   3.346  0.9920 -0.7905 -0.1080
 2032SOL     OW 7769   8.109   9.501   5.908  0.5681  0.8575  0.7874
 2032SOL    HW1 7770   8.152   9.586   5.922  0.8476  0.7010  0.8964
 2032SOL    HW2 7771   8.017   9.523   5.898  0.6040  1.1551  1.0487
 2033SOL     OW 7772   5.196   1.069   8.912  0.3693 -0.6837 -0.1774
 2033SOL    HW1 7773   5.112   1.061   8.865 -0.6481  0.0666  1.4224
 2033SOL    HW2 7774   5.171   1.096   9.000  2.4381  2.7427 -0.4690
 2034SOL     OW 7775   0.246   0.290   1.995 -0.4781 -0.1436  0.3037
 2034SOL    HW1 7776   0.170   0.322   1.947 -1.2969 -0.0271  1.6198
 2034SOL    HW2 7777   0.211   0.262   2.080  1.4296  3.9386  2.7423
 2035SOL     OW 7778   2.209   8.070   0.610 -0.6849  0.1034  0.2461
 2035SOL    HW1 7779   2.223   7.977   0.590 -1.7660 -0.0659  0.2037
 2035SOL    HW2 7780   2.126   8.091   0.567  0.7503  1.7855 -1.9194
 2036SOL     OW 7781   7.354   5.255   9.611 -0.1487 -0.0040 -0.3124
 2036SOL    HW1 7782   7.391   5.222   9.693 -0.5853  2.0353  0.7756
 2036SOL    HW2 7783   7.274   5.301   9.638 -0.5282  0.3499 -1.9433
 2037SOL     OW 7784   8.227   7.255   4.829  0.0571 -0.3813 -0.0231
 2037SOL    HW1 7785   8.157   7.282   4.888  1.8440  0.6560  1.7469
 2037SOL    HW2 7786   8.239   7.330   4.770 -0.7014 -0.8106 -0.7465
 2038SOL     OW 7787   4.979   7.127   8.709 -0.0082 -0.0621  0.0995
 2038SOL    HW1 7788   4.889   7.095   8.715  0.1593 -0.5809 -0.1161
 2038SOL    HW2 7789   4.970   7.220   8.691 -0.5058 -0.2632 -0.7386
 2039SOL     OW 7790   7.146   1.284   8.834  0.0578 -0.2145  0.0202
 2039SOL    HW1 7791   7.167   1.285   8.927 -0.2600  0.5327  0.0880
 2039SOL    HW2 7792   7.224   1.321   8.792  0.1217 -0.3625  0.0096
 2040SOL     OW 7793   1.177   6.631   8.517  0.9841 -0.1735  0.8057
 2040SOL    HW1 7794   1.171   6.662   8.427 -0.3027  0.9882  1.2440
 2040SOL    HW2 7795   1.184   6.536   8.510 -0.2714 -0.1923 -0.5140
 2041SOL     OW 7796   6.723   7.885   4.293  0.8448 -0.4105 -0.5532
 2041SOL    HW1 7797   6.641   7.931   4.276  1.6568  1.7946  0.9464
 2041SOL    HW2 7798   6.699   7.810   4.347 -0.1226  0.7376  0.6638
 2042SOL     OW 7799   1.108   0.588   8.493 -0.1842  0.6294 -0.3819
 2042SOL    HW1 7800   1.050   0.536   8.548  0.4717 -1.3303 -1.4309
 2042SOL    HW2 7801   1.049   0.647   8.445 -1.3569 -1.1833 -1.2929
 2043SOL     OW 7802   2.780   3.072   8.826  0.1864 -0.3711 -0.6568
 2043SOL    HW1 7803   2.735   3.151   8.796 -0.5424 -0.3750  0.3759
 2043SOL    HW2 7804   2.808   3.093   8.915  1.0281 -0.8652 -0.7970
 2044SOL     OW 7805   5.353   1.420   6.530 -0.0229  0.4286 -0.2224
 2044SOL    HW1 7806   5.371   1.329   6.506  0.4978 -0.8853  4.2467
 2044SOL    HW2 7807   5.258   1.425   6.540 -0.0536  0.3850 -0.5001
 2045SOL     OW 7808   0.807   7.132   8.509  0.1894 -0.0488 -0.0275
 2045SOL    HW1 7809   0.887   7.168   8.470 -0.2162  1.3185  0.3522
 2045SOL    HW2 7810   0.766   7.207   8.554  0.1881 -1.3599  2.2885
 2046SOL     OW 7811   6.219   5.458   8.428  0.4625 -0.0603 -0.6234
 2046SOL    HW1 7812   6.302   5.501   8.447  0.0641  1.2984 -1.7926
 2046SOL    HW2 7813   6.239   5.394   8.359  0.4740  0.5278 -1.1671
 2047SOL     OW 7814   6.698   9.249   2.463  0.5748  0.2038 -0.4184
 2047SOL    HW1 7815   6.679   9.290   2.547  1.6055  0.0973 -0.1249
 2047SOL    HW2 7816   6.641   9.295   2.401 -2.6952 -1.8907  0.7807
 2048SOL     OW 7817   1.167   9.626   0.435  0.5259 -0.3743  0.3815
 2048SOL    HW1 7818   1.100   9.618   0.368  0.3299  0.2852  0.4921
 2048SOL    HW2 7819   1.214   9.542   0.433 -0.3401 -0.8626  0.3517
 2049SOL     OW 7820   0.778   4.150   2.058 -0.3412  0.2505 -0.4938
 2049SOL    HW1 7821   0.824   4.225   2.019  0.7893  1.2210  2.4503
 2049SOL    HW2 7822   0.692   4.185   2.083 -0.3165  0.1956 -0.3309
 2050SOL     OW 7823   7.612   7.320   5.620  0.3530 -0.2108 -0.2432
 2050SOL    HW1 7824   7.535   7.377   5.611  0.2354 -0.3611 -0.1997
 2050SOL    HW2 7825   7.636   7.327   5.712  0.3224 -0.2533 -0.2322
 2051SOL     OW 7826   1.730   3.754   4.106  0.2677  0.1460  0.3534
 2051SOL    HW1 7827   1.645   3.722   4.075  0.9175 -0.4564 -0.9205
 2051SOL    HW2 7828   1.779   3.674   4.126  2.0059  0.1263 -3.1154
 2052SOL     OW 7829   2.076   8.586   7.252 -0.4974  0.2801 -0.1456
 2052SOL    HW1 7830   2.148   8.541   7.206 -0.1184 -0.2389  0.9218
 2052SOL    HW2 7831   2.009   8.598   7.185  0.0332 -0.4627 -0.8365
 2053SOL     OW 7832   6.971   3.164   7.489 -0.0251  0.1582 -0.0769
 2053SOL    HW1 7833   7.053   3.139   7.446  1.6720  1.0418  2.4224
 2053SOL    HW2 7834   6.945   3.085   7.537  0.8498  0.6018  1.2006
 2054SOL     OW 7835   3.621   5.239   1.329  0.1742 -0.3361  0.6094
 2054SOL    HW1 7836   3.573   5.223   1.248  1.7463 -0.1420 -0.4188
 2054SOL    HW2 7837   3.579   5.316   1.367 -0.4063 -0.2512 -0.1834
 2055SOL     OW 7838   5.704   0.303   5.804 -0.1007 -0.7054  0.0663
 2055SOL    HW1 7839   5.627   0.274   5.755  0.2764  1.2718 -1.8675
 2055SOL    HW2 7840   5.707   0.245   5.880 -3.0804 -1.3207 -0.1393
 2056SOL     OW 7841   3.363   6.683   0.684 -0.5511  0.2530  0.4958
 2056SOL    HW1 7842   3.421   6.711   0.613 -2.0114  2.9940  0.2410
 2056SOL    HW2 7843   3.409   6.709   0.763 -0.9754  1.5934  0.3274
 2057SOL     OW 7844   8.974   5.800   6.559  0.8396 -0.2167  0.1739
 2057SOL    HW1 7845   8.967   5.888   6.597 -1.4363 -0.5220  0.6266
 2057SOL    HW2 7846   8.997   5.816   6.467 -0.8949  0.9797 -0.1110
 2058SOL     OW 7847   7.329   1.802   5.393 -0.0327  0.0007  0.2784
 2058SOL    HW1 7848   7.375   1.726   5.358  1.2323  0.8998 -0.0725
 2058SOL    HW2 7849   7.390   1.840   5.456 -0.5471  0.8645  0.2761
 2059SOL     OW 7850   6.311   7.896   7.953  0.2079  0.2006 -0.4128
 2059SOL    HW1 7851   6.334   7.891   8.046  0.3597 -1.8588 -0.5215
 2059SOL    HW2 7852   6.396   7.903   7.909  0.3428 -1.7296 -0.5183
 2060SOL     OW 7853   4.218   0.825   3.941 -0.1376  0.2721  0.0181
 2060SOL    HW1 7854   4.311   0.841   3.927 -0.0560  0.5733  0.8544
 2060SOL    HW2 7855   4.214   0.737   3.978 -0.2563 -0.0385 -0.7045
 2061SOL     OW 7856   2.786   3.556   4.821 -0.3921  0.2411  0.3744
 2061SOL    HW1 7857   2.797   3.592   4.733 -2.3009  0.5741  0.2397
 2061SOL    HW2 7858   2.856   3.596   4.872  0.0327  0.9555 -0.7284
 2062SOL     OW 7859   5.543   0.579   7.883 -0.1020 -0.3088  0.1911
 2062SOL    HW1 7860   5.512   0.490   7.867 -2.7832  0.4846  0.5176
 2062SOL    HW2 7861   5.463   0.631   7.892  1.3719  1.8930  1.4345
 2063SOL     OW 7862   8.613   7.089   3.967  0.3223 -0.3458 -0.1340
 2063SOL    HW1 7863   8.525   7.116   3.994 -0.7242 -1.3590 -2.2781
 2063SOL    HW2 7864   8.599   7.008   3.918  1.7760  1.7706 -4.5032
 2064SOL     OW 7865   2.273   3.264   1.416  0.4125 -0.4743  0.2961
 2064SOL    HW1 7866   2.249   3.226   1.332  1.9097 -2.6996  0.7652
 2064SOL    HW2 7867   2.328   3.197   1.457  0.0352  0.6870  2.8931
 2065SOL     OW 7868   7.295   7.781   4.155  0.5566 -0.5302 -0.1741
 2065SOL    HW1 7869   7.353   7.706   4.144  1.2110  0.0047 -0.4845
 2065SOL    HW2 7870   7.281   7.787   4.250  0.0365 -1.3780 -0.1957
 2066SOL     OW 7871   5.786   6.301   2.056  0.0960 -0.2516  0.2764
 2066SOL    HW1 7872   5.813   6.345   1.976  0.5297 -0.3397  0.3685
 2066SOL    HW2 7873   5.713   6.354   2.089 -0.7260 -0.7670 -0.6739
 2067SOL     OW 7874   1.333   8.500   6.891  0.5150 -0.3921 -0.6027
 2067SOL    HW1 7875   1.345   8.405   6.895 -2.9043 -0.9839 -1.6252
 2067SOL    HW2 7876   1.395   8.534   6.956  0.5058 -3.4574  1.2342
 2068SOL     OW 7877   2.083   1.499   4.058  0.7846 -0.6360 -0.0181
 2068SOL    HW1 7878   2.143   1.444   4.008  1.3964 -0.3779  0.4167
 2068SOL    HW2 7879   2.132   1.581   4.072  0.7007 -0.7609  1.1306
 2069SOL     OW 7880   1.949   7.561   3.779  0.3118  0.0327 -0.6337
 2069SOL    HW1 7881   1.884   7.496   3.804 -0.7682  1.2008 -0.2763
 2069SOL    HW2 7882   1.982   7.532   3.694 -0.3500 -0.8214 -0.6047
 2070SOL     OW 7883   3.614   8.104   9.065 -0.1002 -0.4684  0.0707
 2070SOL    HW1 7884   3.602   8.190   9.025  1.4081 -0.2834 -0.0425
 2070SOL    HW2 7885   3.630   8.045   8.991  1.5861 -0.3216  0.2584
 2071SOL     OW 7886   8.804   2.896   1.625  0.1104 -0.2128  0.3929
 2071SOL    HW1 7887   8.847   2.853   1.550  1.9165 -0.1473  1.3305
 2071SOL    HW2 7888   8.798   2.988   1.599 -1.6898 -0.5924 -0.6995
 2072SOL     OW 7889   1.793   3.807   3.213  0.0272  0.2129  0.0152
 2072SOL    HW1 7890   1.705   3.786   3.181 -0.0241  0.4435  0.0046
 2072SOL    HW2 7891   1.803   3.900   3.195  0.2500  0.2001  0.0764
 2073SOL     OW 7892   5.265   4.412   6.559  0.5413  0.0617 -0.1161
 2073SOL    HW1 7893   5.342   4.431   6.612  1.0689  1.0105 -1.1625
 2073SOL    HW2 7894   5.280   4.461   6.478 -1.9173  1.6332  0.2709
 2074SOL     OW 7895   7.555   9.621   9.000 -0.4031 -0.1618 -0.2003
 2074SOL    HW1 7896   7.584   9.553   8.939  0.5293  0.1640 -0.1342
 2074SOL    HW2 7897   7.465   9.597   9.021  0.6551 -2.8513  1.8074
 2075SOL     OW 7898   0.251   6.918   3.976 -1.1281 -0.3198 -0.3704
 2075SOL    HW1 7899   0.232   6.865   3.898 -1.0676 -0.9036  0.0037
 2075SOL    HW2 7900   0.261   6.854   4.046 -1.9864  0.2597  0.2849
 2076SOL     OW 7901   7.263   5.218   6.962 -0.1700  0.0796 -0.3162
 2076SOL    HW1 7902   7.357   5.231   6.958  0.2308 -2.3763 -0.4705
 2076SOL    HW2 7903   7.236   5.208   6.870 -0.2401 -1.0208 -0.1944
 2077SOL     OW 7904   5.095   8.818   5.938  0.4054 -0.2467  0.4690
 2077SOL    HW1 7905   5.031   8.864   5.884 -0.2174 -1.1574  0.3948
 2077SOL    HW2 7906   5.170   8.804   5.880  0.5731  0.5758  0.4719
 2078SOL     OW 7907   1.953   9.641   4.910  0.1846 -0.2937  0.1185
 2078SOL    HW1 7908   1.879   9.682   4.955  0.5833  0.6273 -0.0488
 2078SOL    HW2 7909   2.029   9.663   4.962  0.3754 -1.1048  0.2000
 2079SOL     OW 7910   3.457   8.124   4.367 -0.3847 -0.3753 -0.4106
 2079SOL    HW1 7911   3.495   8.207   4.398 -1.0958 -0.4364  0.6527
 2079SOL    HW2 7912   3.503   8.107   4.284  0.7906  0.3509  0.0572
 2080SOL     OW 7913   6.731   4.125   1.926 -0.1539  0.4955 -0.0936
 2080SOL    HW1 7914   6.761   4.174   2.003  0.1977 -0.7650  0.6125
 2080SOL    HW2 7915   6.730   4.034   1.956 -1.1858  0.1175 -1.2333
 2081SOL     OW 7916   6.134   9.600   2.739 -0.0568 -0.2265 -0.2415
 2081SOL    HW1 7917   6.141   9.598   2.835 -0.0701  1.1255 -0.1847
 2081SOL    HW2 7918   6.058   9.546   2.718 -1.0102  0.7143  0.6484
 2082SOL     OW 7919   9.068   5.526   2.908 -0.0728  0.0720 -0.4524
 2082SOL    HW1 7920   9.041   5.544   2.998  1.4777 -1.5928  0.4219
 2082SOL    HW2 7921   8.993   5.483   2.867 -0.8472  0.9939 -0.0186
 2083SOL     OW 7922   4.901   2.414   4.582  0.5061 -0.1758 -0.1107
 2083SOL    HW1 7923   4.853   2.409   4.665 -0.6100 -1.7928 -0.7950
 2083SOL    HW2 7924   4.975   2.355   4.594  0.3831 -0.3565 -0.2414
 2084SOL     OW 7925   1.631   8.309   1.873 -0.3078  0.3735 -0.2343
 2084SOL    HW1 7926   1.667   8.375   1.934 -1.0484  0.9477 -0.4036
 2084SOL    HW2 7927   1.652   8.343   1.786 -0.0927  0.0350 -0.3175
 2085SOL     OW 7928   4.294   8.171   1.870 -0.6632 -0.8893 -0.2680
 2085SOL    HW1 7929   4.278   8.129   1.954 -0.4040 -0.4531  0.0016
 2085SOL    HW2 7930   4.286   8.101   1.806 -2.5358 -0.9187 -0.0505
 2086SOL     OW 7931   6.273   2.027   3.039 -0.7598  0.4270  0.4448
 2086SOL    HW1 7932   6.193   1.977   3.025 -1.4627  1.3128  1.1320
 2086SOL    HW2 7933   6.340   1.980   2.990 -1.7613 -0.1542 -0.4035
 2087SOL     OW 7934   5.218   9.458   7.155  0.4349  0.1151  0.0237
 2087SOL    HW1 7935   5.304   9.481   7.189  1.0593 -0.9113 -0.8042
 2087SOL    HW2 7936   5.187   9.538   7.112  0.4399  0.8520  1.3338
 2088SOL     OW 7937   5.616   7.543   7.852  0.4421  0.6231  0.1736
 2088SOL    HW1 7938   5.707   7.542   7.883  0.0270  1.9798  1.6264
 2088SOL    HW2 7939   5.599   7.636   7.834 -0.4809  0.3002 -0.6921
 2089SOL     OW 7940   5.094   2.472   6.357 -0.1698 -0.3955  0.4213
 2089SOL    HW1 7941   5.088   2.446   6.449  0.4349 -0.9712  0.3084
 2089SOL    HW2 7942   5.021   2.532   6.345 -0.7137 -0.8934  1.0854
 2090SOL     OW 7943   5.271   5.453   9.337 -0.1836 -0.0012 -0.0493
 2090SOL    HW1 7944   5.181   5.482   9.319 -0.4769 -1.0871 -0.4722
 2090SOL    HW2 7945   5.316   5.465   9.253 -0.3484 -0.8617 -0.2708
 2091SOL     OW 7946   9.171   5.738   9.063 -0.3772 -0.5811  0.4042
 2091SOL    HW1 7947   9.257   5.707   9.091  0.2115 -0.0125 -0.6797
 2091SOL    HW2 7948   9.140   5.670   9.003 -0.4647 -0.5593  0.4252
 2092SOL     OW 7949   8.505   3.083   0.962 -0.0765 -0.5088 -0.1436
 2092SOL    HW1 7950   8.443   3.050   1.026 -0.7238 -0.5775 -0.7884
 2092SOL    HW2 7951   8.462   3.161   0.925  0.0109 -0.8054 -0.9032
 2093SOL     OW 7952   6.022   5.441   4.599 -0.5776 -0.0368 -0.2042
 2093SOL    HW1 7953   5.971   5.443   4.518 -0.6748  2.6651 -0.1567
 2093SOL    HW2 7954   6.039   5.532   4.619 -1.1848 -0.5420  3.2546
 2094SOL     OW 7955   6.144   3.978   6.666 -0.2567 -0.2464  0.3337
 2094SOL    HW1 7956   6.228   4.011   6.632 -1.0918 -1.5189 -3.3997
 2094SOL    HW2 7957   6.091   4.057   6.678  1.1654  0.5274  2.2087
 2095SOL     OW 7958   8.239   9.012   1.085 -0.3299  0.3799  0.0736
 2095SOL    HW1 7959   8.296   8.941   1.055 -0.5914  0.2864 -0.2039
 2095SOL    HW2 7960   8.171   8.968   1.136 -0.4028  0.4496  0.0350
 2096SOL     OW 7961   5.885   8.312   6.706 -0.2211  0.2965 -0.3749
 2096SOL    HW1 7962   5.868   8.399   6.670  0.0091  0.9655  1.0532
 2096SOL    HW2 7963   5.799   8.270   6.708 -0.5667  0.9918  0.1217
 2097SOL     OW 7964   2.730   5.473   7.943 -0.3673 -0.4770 -0.1401
 2097SOL    HW1 7965   2.748   5.567   7.955  0.5115 -0.7228  0.5805
 2097SOL    HW2 7966   2.732   5.460   7.848 -0.0388  0.1462 -0.2239
 2098SOL     OW 7967   3.710   8.715   2.298  0.1454  0.2004  0.1726
 2098SOL    HW1 7968   3.622   8.736   2.266  0.5029 -0.0637 -1.0351
 2098SOL    HW2 7969   3.769   8.768   2.244  0.9440 -2.3253 -1.6520
 2099SOL     OW 7970   8.517   8.008   3.653  0.0198  0.1999  0.2237
 2099SOL    HW1 7971   8.527   7.914   3.642  1.7548  0.4413 -0.5553
 2099SOL    HW2 7972   8.493   8.018   3.745  0.6359 -0.9587  0.5332
 2100SOL     OW 7973   6.507   0.299   0.317 -0.0758  0.2079 -0.3932
 2100SOL    HW1 7974   6.464   0.381   0.338 -0.6600 -0.8166  3.0803
 2100SOL    HW2 7975   6.599   0.313   0.339 -0.3614 -0.3236  1.2414
 2101SOL     OW 7976   7.053   2.014   1.724 -0.1608 -0.1250 -0.2014
 2101SOL    HW1 7977   7.123   1.979   1.668  0.9324 -1.2664  1.7456
 2101SOL    HW2 7978   7.087   2.097   1.755 -0.5545  0.2678 -0.7898
 2102SOL     OW 7979   4.131   3.474   1.035  0.1170  0.2789 -0.2928
 2102SOL    HW1 7980   4.062   3.441   0.978 -0.2053 -0.3411  0.4335
 2102SOL    HW2 7981   4.090   3.478   1.122  1.4414 -1.5929  0.4712
 2103SOL     OW 7982   8.575   2.081   2.260 -0.1153  0.5235 -0.4331
 2103SOL    HW1 7983   8.582   2.125   2.175 -0.8283  0.0431 -0.7569
 2103SOL    HW2 7984   8.631   2.004   2.252  1.3860  1.5032  0.2461
 2104SOL     OW 7985   3.567   2.112   4.199 -0.2966  0.4544  0.6414
 2104SOL    HW1 7986   3.536   2.101   4.289  0.5773  1.1789  1.0523
 2104SOL    HW2 7987   3.510   2.178   4.161  0.5945  1.6712  1.3437
 2105SOL     OW 7988   1.010   0.635   9.117 -0.0990  0.3669 -0.2663
 2105SOL    HW1 7989   1.102   0.655   9.098 -0.6686  3.1761 -0.4628
 2105SOL    HW2 7990   0.964   0.652   9.034 -0.8283 -0.9521 -0.1555
 2106SOL     OW 7991   3.289   6.474   7.348 -0.8184  0.3528 -0.5275
 2106SOL    HW1 7992   3.323   6.562   7.331  2.7188 -0.8462 -0.5285
 2106SOL    HW2 7993   3.244   6.449   7.267 -0.1463  1.4352 -1.2591
 2107SOL     OW 7994   7.356   9.094   0.042  0.0815  0.0207  0.2994
 2107SOL    HW1 7995   7.340   9.086  -0.052  0.9273 -1.2618  0.2352
 2107SOL    HW2 7996   7.300   9.027   0.081 -0.0220  0.3310  0.6822
 2108SOL     OW 7997   7.209   0.836   9.030  0.4270 -0.1238  0.3173
 2108SOL    HW1 7998   7.154   0.886   8.969 -0.8795 -1.5982  0.2040
 2108SOL    HW2 7999   7.179   0.863   9.117 -0.0447 -0.4560  0.2609
 2109SOL     OW 8000   8.304   2.016   2.215 -0.4612 -1.1046 -0.8397
 2109SOL    HW1 8001   8.399   2.024   2.224 -0.5302 -0.3685 -0.7141
 2109SOL    HW2 8002   8.270   2.104   2.232 -1.0459 -0.9578 -2.4918
 2110SOL     OW 8003   7.986   0.662   2.344  0.3750  0.1240  0.1483
 2110SOL    HW1 8004   7.940   0.745   2.354 -0.3374 -0.2901  0.3873
 2110SOL    HW2 8005   7.923   0.596   2.371  0.3366 -0.6353 -1.6347
 2111SOL     OW 8006   7.410   0.199   3.496  0.6224  0.3164  0.0065
 2111SOL    HW1 8007   7.384   0.280   3.539  2.4182  0.8919  0.1096
 2111SOL    HW2 8008   7.329   0.150   3.484 -0.4973  2.1392 -0.0947
 2112SOL     OW 8009   8.250   3.008   8.986  0.2936 -0.3191  0.2143
 2112SOL    HW1 8010   8.252   3.050   8.900  0.6525 -0.5356  0.1152
 2112SOL    HW2 8011   8.295   2.924   8.973  0.9153 -0.0806  0.7629
 2113SOL     OW 8012   1.473   1.184   3.413 -0.3429 -0.0793 -0.4107
 2113SOL    HW1 8013   1.416   1.121   3.456 -0.1037  0.4300  0.6816
 2113SOL    HW2 8014   1.546   1.197   3.474  1.2431 -1.0983 -1.9758
 2114SOL     OW 8015   9.407   7.350   8.494 -0.0423 -0.1746  0.3836
 2114SOL    HW1 8016   9.435   7.359   8.585 -2.7716  1.1742  1.2137
 2114SOL    HW2 8017   9.427   7.434   8.454 -0.0885 -0.2830  0.1337
 2115SOL     OW 8018   3.856   0.709   3.182 -0.1036 -0.6752  0.4381
 2115SOL    HW1 8019   3.776   0.659   3.163 -0.3738  0.7552 -2.8837
 2115SOL    HW2 8020   3.825   0.799   3.195  0.9379  0.0498 -1.6886
 2116SOL     OW 8021   6.187   6.358   3.030 -0.5196  0.5934  0.3871
 2116SOL    HW1 8022   6.232   6.443   3.035  0.4230  0.0985  0.5124
 2116SOL    HW2 8023   6.258   6.294   3.027 -1.1962 -0.1246 -1.2207
 2117SOL     OW 8024   3.973   2.516   2.374 -0.1698  0.2501 -0.1549
 2117SOL    HW1 8025   3.910   2.581   2.407  0.5154  1.3975 -1.0568
 2117SOL    HW2 8026   3.983   2.536   2.282  0.8041 -0.5443 -0.2408
 2118SOL     OW 8027   0.064   4.822   4.174  0.2482 -0.4300 -0.1270
 2118SOL    HW1 8028   0.096   4.891   4.116  1.6945 -1.9155 -1.2009
 2118SOL    HW2 8029   0.053   4.865   4.259 -2.2543  1.8999 -1.4667
 2119SOL     OW 8030   7.989   7.753   0.355  0.6952  0.4874 -0.6615
 2119SOL    HW1 8031   8.069   7.769   0.406 -0.4756  1.0858  1.0755
 2119SOL    HW2 8032   7.927   7.819   0.385 -1.4326 -1.7507  0.2444
 2120SOL     OW 8033   8.453   5.587   6.617 -0.2289  0.3649 -0.7931
 2120SOL    HW1 8034   8.459   5.507   6.670  0.3411  0.0179 -1.3602
 2120SOL    HW2 8035   8.468   5.658   6.679  1.4336 -0.0811 -0.6340
 2121SOL     OW 8036   0.625   0.246   7.644 -0.0076 -0.3301  0.3818
 2121SOL    HW1 8037   0.632   0.298   7.563 -1.0406 -0.5105  0.1598
 2121SOL    HW2 8038   0.676   0.295   7.708  0.5202  0.0144 -0.2836
 2122SOL     OW 8039   6.382   0.981   5.310  0.5696  0.0189  0.1402
 2122SOL    HW1 8040   6.450   1.046   5.327  0.5814 -0.3024  1.4375
 2122SOL    HW2 8041   6.418   0.899   5.343  0.5856 -0.6896 -1.5571
 2123SOL     OW 8042   0.016   3.606   1.823  0.0060 -0.0905  0.0296
 2123SOL    HW1 8043  -0.071   3.635   1.797 -0.8744 -1.6006  1.0926
 2123SOL    HW2 8044   0.058   3.684   1.859 -1.0986  0.5418 -0.0103
 2124SOL     OW 8045   4.923   0.515   3.314  0.6341 -0.4537  0.4895
 2124SOL    HW1 8046   4.832   0.496   3.290 -0.0545  1.9987  0.8367
 2124SOL    HW2 8047   4.959   0.560   3.237 -0.1371  3.2111  2.0695
 2125SOL     OW 8048   1.212   0.815   2.577 -0.2954  0.2336 -0.2606
 2125SOL    HW1 8049   1.134   0.799   2.524 -0.4685  0.8530 -0.1972
 2125SOL    HW2 8050   1.225   0.734   2.626 -0.8982  0.1299 -0.2712
 2126SOL     OW 8051   3.357   4.463   7.650  0.2164  0.2251  0.3302
 2126SOL    HW1 8052   3.346   4.378   7.692  0.5759  1.1742  2.4671
 2126SOL    HW2 8053   3.270   4.502   7.652  0.0024 -0.1295 -0.8557
 2127SOL     OW 8054   6.873   5.106   2.862 -0.2952 -0.6345  0.3045
 2127SOL    HW1 8055   6.917   5.050   2.926 -2.1964 -1.4129  0.9948
 2127SOL    HW2 8056   6.806   5.152   2.913 -1.8069 -1.2127 -1.0918
 2128SOL     OW 8057   9.620   5.553   9.048 -0.0030 -0.3487 -0.0773
 2128SOL    HW1 8058   9.683   5.482   9.040 -1.8425 -2.2348  1.0541
 2128SOL    HW2 8059   9.546   5.526   8.994 -0.7869  0.6616  0.4447
 2129SOL     OW 8060   6.627   6.421   0.272  0.0171  0.5255  0.4476
 2129SOL    HW1 8061   6.593   6.389   0.355  0.1842  1.1019  0.7374
 2129SOL    HW2 8062   6.715   6.383   0.267 -0.3749 -0.3754  0.0294
 2130SOL     OW 8063   4.994   1.250   0.002 -0.8271  0.5294 -0.2665
 2130SOL    HW1 8064   5.029   1.256  -0.087  1.2399  0.0166  0.4584
 2130SOL    HW2 8065   4.922   1.186  -0.005 -1.6473  1.5537 -1.7993
 2131SOL     OW 8066   4.435   3.093   2.417  0.9681  0.3023 -0.1835
 2131SOL    HW1 8067   4.455   3.079   2.324  1.2753  0.0646 -0.0827
 2131SOL    HW2 8068   4.364   3.032   2.435  1.8314 -0.6466  0.0778
 2132SOL     OW 8069   5.089   4.897   4.933 -0.1278 -0.0528 -0.1650
 2132SOL    HW1 8070   5.141   4.925   4.858 -0.4971  0.4776 -0.2255
 2132SOL    HW2 8071   5.154   4.871   4.999  0.1958 -1.6015 -1.0522
 2133SOL     OW 8072   8.818   7.267   1.603 -0.0198  0.6142 -0.5775
 2133SOL    HW1 8073   8.823   7.348   1.653 -0.1514 -0.2528  0.9114
 2133SOL    HW2 8074   8.727   7.260   1.577 -0.0299  0.8980 -0.6182
 2134SOL     OW 8075   1.471   8.430   3.670  0.5004  0.0911  0.1759
 2134SOL    HW1 8076   1.550   8.460   3.714  1.4419 -0.1875 -1.2418
 2134SOL    HW2 8077   1.481   8.459   3.579 -1.5383  0.9758  0.1593
 2135SOL     OW 8078   0.610   1.027   9.390 -0.2193  0.2383  0.2547
 2135SOL    HW1 8079   0.545   0.959   9.374 -0.8334  1.2427 -1.8098
 2135SOL    HW2 8080   0.686   1.000   9.339 -0.5670  1.2002 -0.8068
 2136SOL     OW 8081   2.137   2.503   1.906  0.2041 -0.1571 -0.2414
 2136SOL    HW1 8082   2.166   2.571   1.846  1.8004 -1.2951 -0.8257
 2136SOL    HW2 8083   2.213   2.487   1.962 -0.5110 -0.7118  0.6047
 2137SOL     OW 8084   0.214   1.341   2.404  0.1765 -0.0494  0.2425
 2137SOL    HW1 8085   0.269   1.291   2.465 -1.1057 -0.8715  0.7626
 2137SOL    HW2 8086   0.127   1.304   2.415 -0.4736  1.1640 -0.6438
 2138SOL     OW 8087   2.123   7.315   7.289  0.5293  0.0378 -0.4298
 2138SOL    HW1 8088   2.091   7.239   7.240 -0.1756 -1.0382  1.5848
 2138SOL    HW2 8089   2.093   7.391   7.239 -0.8559 -0.9950 -1.2163
 2139SOL     OW 8090   7.435   6.863   8.048  0.3423 -0.0615 -0.2790
 2139SOL    HW1 8091   7.506   6.916   8.084  0.1605 -0.7240  1.1312
 2139SOL    HW2 8092   7.357   6.897   8.092  0.0813 -0.7698 -0.1925
 2140SOL     OW 8093   2.743   6.996   6.297 -0.0672 -0.0047  0.0771
 2140SOL    HW1 8094   2.742   6.960   6.209  1.3981  0.8889 -0.3337
 2140SOL    HW2 8095   2.811   6.947   6.343 -0.4531 -0.1024  0.5592
 2141SOL     OW 8096   9.136   4.041   5.944 -0.3180 -0.4551  0.0876
 2141SOL    HW1 8097   9.063   4.011   5.889  0.1690 -3.2029  0.7726
 2141SOL    HW2 8098   9.096   4.098   6.009 -1.5687 -0.5298 -0.5885
 2142SOL     OW 8099   0.273   0.060   5.400 -0.0644 -0.4270 -0.6668
 2142SOL    HW1 8100   0.286  -0.008   5.334 -3.1073 -0.9097 -0.8999
 2142SOL    HW2 8101   0.180   0.081   5.395 -0.1330  0.5351  2.5368
 2143SOL     OW 8102   4.811   1.932   9.492 -0.0031  0.2681  0.1894
 2143SOL    HW1 8103   4.732   1.896   9.534 -0.5878 -1.9785 -2.5405
 2143SOL    HW2 8104   4.786   1.946   9.401  2.4045  0.6686 -0.4853
 2144SOL     OW 8105   0.856   1.713   5.059 -0.6198  0.3291 -0.1273
 2144SOL    HW1 8106   0.907   1.642   5.099  1.6140  1.3494 -1.0272
 2144SOL    HW2 8107   0.823   1.675   4.977  1.1243  0.4765 -0.9351
 2145SOL     OW 8108   4.052   8.526   1.696 -0.0704  0.2002 -0.5110
 2145SOL    HW1 8109   4.047   8.609   1.743  2.1884 -0.1087  0.4045
 2145SOL    HW2 8110   4.106   8.470   1.751 -2.7216 -2.4695 -0.3538
 2146SOL     OW 8111   0.901   7.032   7.016  0.0281  0.1348  0.2389
 2146SOL    HW1 8112   0.886   7.097   7.084 -1.5751 -0.4760  0.5203
 2146SOL    HW2 8113   0.813   7.007   6.987  0.5095 -2.4957  0.7347
 2147SOL     OW 8114   2.538   8.833   8.092  0.1833  0.0626  0.0978
 2147SOL    HW1 8115   2.551   8.756   8.036  1.0769  0.0880  0.2535
 2147SOL    HW2 8116   2.463   8.877   8.053 -0.7447 -1.2023  0.3729
 2148SOL     OW 8117   3.104   7.434   1.320 -0.7938 -0.3140 -0.4171
 2148SOL    HW1 8118   3.092   7.437   1.225  0.5650  1.6980 -0.5924
 2148SOL    HW2 8119   3.194   7.402   1.332 -0.7988 -0.1256  0.1662
 2149SOL     OW 8120   1.516   0.871   8.255 -0.1118  0.3231 -0.2043
 2149SOL    HW1 8121   1.590   0.907   8.304  0.1208 -2.5279  1.8270
 2149SOL    HW2 8122   1.448   0.859   8.321 -0.8555 -1.0026 -1.1598
 2150SOL     OW 8123   2.631   9.305   4.517 -0.4980  0.2536  0.2915
 2150SOL    HW1 8124   2.605   9.243   4.584  0.2891  0.5587  0.9108
 2150SOL    HW2 8125   2.658   9.383   4.566 -0.4565  0.6903 -0.4077
 2151SOL     OW 8126   5.599   0.121   0.474  0.1699  0.2848  0.2235
 2151SOL    HW1 8127   5.555   0.101   0.392  2.7622 -2.4259 -0.6814
 2151SOL    HW2 8128   5.557   0.065   0.539  0.5609 -0.4089 -0.1057
 2152SOL     OW 8129   3.636   1.913   8.585  0.0210 -0.4316  0.1630
 2152SOL    HW1 8130   3.692   1.979   8.546 -0.8946  0.4210  0.2437
 2152SOL    HW2 8131   3.675   1.894   8.670  0.0261  0.3728  0.3468
 2153SOL     OW 8132   2.533   8.537   2.955  0.1926  0.5668  0.9580
 2153SOL    HW1 8133   2.438   8.534   2.945  0.3833 -1.1647 -1.1578
 2153SOL    HW2 8134   2.558   8.445   2.965  1.8594  0.6543 -1.6981
 2154SOL     OW 8135   3.628   5.948   1.916  0.7763 -0.4974 -0.7205
 2154SOL    HW1 8136   3.553   5.893   1.895  1.2060 -1.2220 -0.3697
 2154SOL    HW2 8137   3.614   5.973   2.008  1.5826 -1.6508 -0.2643
 2155SOL     OW 8138   3.621   4.174   3.945  0.0978  0.2391  0.1027
 2155SOL    HW1 8139   3.654   4.100   3.995  1.2269 -0.0083 -0.9497
 2155SOL    HW2 8140   3.655   4.160   3.856  0.6306  2.1732 -0.0412
 2156SOL     OW 8141   1.896   5.433   9.254  0.0126  0.1269  0.2759
 2156SOL    HW1 8142   1.834   5.499   9.282  1.3192  0.6572  2.0845
 2156SOL    HW2 8143   1.968   5.439   9.317  1.0446 -1.7147 -0.6422
 2157SOL     OW 8144   4.221   3.412   9.474 -0.3564 -0.4597 -0.1976
 2157SOL    HW1 8145   4.143   3.431   9.422 -0.2962 -2.0191 -0.9264
 2157SOL    HW2 8146   4.274   3.491   9.468 -0.8372 -0.2085 -1.6450
 2158SOL     OW 8147   0.759   6.178   3.931 -0.2020  0.3743  0.3156
 2158SOL    HW1 8148   0.853   6.163   3.919  0.0920  1.6731  0.8287
 2158SOL    HW2 8149   0.747   6.181   4.026 -0.7623  0.2113  0.2522
 2159SOL     OW 8150   5.806   3.579   0.474 -0.1006  0.0022 -0.2372
 2159SOL    HW1 8151   5.745   3.645   0.506 -0.9272 -1.6773  1.8689
 2159SOL    HW2 8152   5.764   3.544   0.395 -1.8379 -1.0022  1.0715
 2160SOL     OW 8153   1.418   6.348   0.180  0.4863 -0.1607  0.0555
 2160SOL    HW1 8154   1.443   6.397   0.102 -0.2642  1.3638  0.7257
 2160SOL    HW2 8155   1.391   6.416   0.243  0.5750 -1.3720  1.4531
 2161SOL     OW 8156   0.637   1.235   6.790 -0.1691 -0.4122 -0.4743
 2161SOL    HW1 8157   0.609   1.202   6.705 -2.6599 -0.0243  0.1131
 2161SOL    HW2 8158   0.609   1.168   6.853 -1.0385  0.6285  0.2836
 2162SOL     OW 8159   1.426   4.476   0.239 -0.6622  0.1718  0.2961
 2162SOL    HW1 8160   1.425   4.381   0.229 -0.0428 -0.0092  1.7202
 2162SOL    HW2 8161   1.439   4.490   0.333 -4.1932  1.6525  0.7136
 2163SOL     OW 8162   8.589   8.630   3.351 -0.2673 -0.0446  0.4927
 2163SOL    HW1 8163   8.651   8.685   3.301 -1.5691  1.0880  0.0489
 2163SOL    HW2 8164   8.526   8.601   3.285 -1.7698  1.1161  1.3534
 2164SOL     OW 8165   4.232   1.716   3.116  0.0894  0.6180 -0.4037
 2164SOL    HW1 8166   4.303   1.736   3.056 -0.0811  2.3631 -0.0681
 2164SOL    HW2 8167   4.156   1.703   3.060  0.8097 -2.4170 -0.8624
 2165SOL     OW 8168   6.830   0.120   6.310  0.2815  0.2137 -0.7258
 2165SOL    HW1 8169   6.896   0.169   6.261  0.2418  0.4409 -0.5556
 2165SOL    HW2 8170   6.861   0.029   6.307 -0.0809  0.1116 -1.7521
 2166SOL     OW 8171   2.018   0.169   7.077  0.6966 -0.3365  0.6292
 2166SOL    HW1 8172   1.929   0.191   7.052  0.5852  0.2764  1.5297
 2166SOL    HW2 8173   2.070   0.184   6.998  0.2938  1.1155  0.6177
 2167SOL     OW 8174   1.091   2.114   0.295  0.0593  0.2066  0.1250
 2167SOL    HW1 8175   1.087   2.209   0.306 -1.3473  0.3078 -0.9879
 2167SOL    HW2 8176   1.162   2.086   0.353  0.5387  1.9337  0.4192
 2168SOL     OW 8177   5.454   2.455   3.232 -0.6741  0.1388  0.0702
 2168SOL    HW1 8178   5.491   2.512   3.165  0.6401  0.8516  1.3524
 2168SOL    HW2 8179   5.528   2.401   3.260 -1.7233 -1.7453 -0.6066
 2169SOL     OW 8180   1.326   8.839   4.300 -0.3494 -0.4552  0.0654
 2169SOL    HW1 8181   1.238   8.870   4.282 -0.4659 -1.5497 -1.4242
 2169SOL    HW2 8182   1.314   8.750   4.335  0.1219 -0.1404  1.0771
 2170SOL     OW 8183   8.333   8.110   5.277  0.5422 -0.3167 -0.0921
 2170SOL    HW1 8184   8.391   8.170   5.324 -0.5290  0.8151 -0.1680
 2170SOL    HW2 8185   8.371   8.024   5.292  2.2963  0.3870 -0.2232
 2171SOL     OW 8186   4.074   0.725   5.442  0.5475 -0.0838  0.2052
 2171SOL    HW1 8187   4.031   0.641   5.458  0.8912 -0.2301  0.3683
 2171SOL    HW2 8188   4.126   0.741   5.520  1.4568 -0.3186 -0.3293
 2172SOL     OW 8189   5.599   2.933   1.187  0.5198  0.2632 -0.6591
 2172SOL    HW1 8190   5.682   2.980   1.184  2.2619 -2.3809  1.2781
 2172SOL    HW2 8191   5.550   2.976   1.258  1.8658 -0.4052  0.7387
 2173SOL     OW 8192   0.444   8.632   3.716  0.3625 -0.5066  0.0426
 2173SOL    HW1 8193   0.421   8.587   3.798  3.0448 -0.1665  1.0777
 2173SOL    HW2 8194   0.515   8.580   3.679  0.2589  0.2434 -1.2483
 2174SOL     OW 8195   5.357   5.948   2.887  0.1428 -0.2471  0.2607
 2174SOL    HW1 8196   5.272   5.968   2.848 -0.3301 -1.2434  0.7368
 2174SOL    HW2 8197   5.394   6.033   2.911 -0.1889  0.2786 -1.0296
 2175SOL     OW 8198   5.935   0.525   0.584  0.3654 -0.3756  0.2407
 2175SOL    HW1 8199   5.863   0.552   0.527  1.4677  2.9022  0.1840
 2175SOL    HW2 8200   5.990   0.471   0.528 -0.7067 -0.7319 -0.5109
 2176SOL     OW 8201   1.462   1.992   0.195  0.3144 -0.1921  0.3436
 2176SOL    HW1 8202   1.398   1.929   0.159  0.3382  0.1712 -0.3469
 2176SOL    HW2 8203   1.516   1.939   0.254  0.0830 -0.7437  0.0753
 2177SOL     OW 8204   4.927   4.911   9.404  0.1159 -0.3799  0.3448
 2177SOL    HW1 8205   4.964   4.828   9.433 -0.9274 -0.4183  1.6814
 2177SOL    HW2 8206   4.973   4.977   9.457  1.3316 -0.0327 -1.0995
 2178SOL     OW 8207   4.149   6.020   0.279 -0.0709  0.1452 -0.1044
 2178SOL    HW1 8208   4.237   5.996   0.248 -0.0524  1.8627 -1.5317
 2178SOL    HW2 8209   4.126   6.098   0.229 -2.4832 -0.3094  0.1691
 2179SOL     OW 8210   7.624   1.422   8.642 -0.6412  0.2990  0.0151
 2179SOL    HW1 8211   7.654   1.513   8.639 -1.6681  0.6282 -1.5847
 2179SOL    HW2 8212   7.661   1.387   8.724 -1.1622  2.4710  1.2560
 2180SOL     OW 8213   9.282   2.199   3.996  0.0676  0.3581  0.1312
 2180SOL    HW1 8214   9.256   2.162   4.080 -0.4997  1.4570  0.4518
 2180SOL    HW2 8215   9.367   2.159   3.977 -0.8723 -1.7007  0.0661
 2181SOL     OW 8216   9.663   2.961   9.499 -0.5307  0.2569 -0.5014
 2181SOL    HW1 8217   9.682   2.990   9.589 -1.3287 -1.3819  0.2435
 2181SOL    HW2 8218   9.672   3.040   9.446 -1.8028  1.6891  1.2718
 2182SOL     OW 8219   6.733   2.807   5.126  0.1076  0.2091  0.0241
 2182SOL    HW1 8220   6.775   2.820   5.041  0.9736  0.3514  0.4580
 2182SOL    HW2 8221   6.665   2.874   5.130  0.4324  0.5668 -0.3256
 2183SOL     OW 8222   6.126   2.438   5.753 -0.3100  0.3608  0.3171
 2183SOL    HW1 8223   6.033   2.417   5.739 -0.1605  0.9184 -1.8387
 2183SOL    HW2 8224   6.131   2.533   5.745  0.4335  0.3636  0.6781
 2184SOL     OW 8225   2.216   4.331   5.121  0.4310  0.1639  0.4150
 2184SOL    HW1 8226   2.256   4.251   5.155  0.3870 -0.7276 -1.5053
 2184SOL    HW2 8227   2.126   4.329   5.155  0.4720 -0.5386  0.4878
 2185SOL     OW 8228   6.877   7.174   4.023  0.1665 -0.7704 -0.2031
 2185SOL    HW1 8229   6.917   7.108   3.967 -0.3821 -0.0860 -1.4392
 2185SOL    HW2 8230   6.942   7.244   4.028  0.9490 -1.5596  1.4990
 2186SOL     OW 8231   5.834   1.108   6.047 -0.2193 -0.3239  0.2428
 2186SOL    HW1 8232   5.771   1.174   6.019  1.2458  1.1346  0.2679
 2186SOL    HW2 8233   5.848   1.053   5.969  0.7197  1.1822 -0.6942
 2187SOL     OW 8234   8.270   2.518   8.377  0.2405 -0.0316 -0.0299
 2187SOL    HW1 8235   8.299   2.490   8.464 -0.2421  1.2891  0.5925
 2187SOL    HW2 8236   8.280   2.441   8.322  0.0666 -1.0551  1.3185
 2188SOL     OW 8237   1.396   0.294   2.212 -0.4173  0.4172  0.1373
 2188SOL    HW1 8238   1.325   0.336   2.163  0.0239  2.6881  1.3037
 2188SOL    HW2 8239   1.466   0.284   2.148 -1.2745 -0.5800 -0.6884
 2189SOL     OW 8240   3.565   6.137   6.458 -0.1594 -0.3226 -0.1329
 2189SOL    HW1 8241   3.567   6.079   6.533  2.5176  0.0102  0.1605
 2189SOL    HW2 8242   3.510   6.092   6.393 -1.4765 -1.1945  1.5306
 2190SOL     OW 8243   1.140   1.638   6.797  0.1064  0.4731  0.2065
 2190SOL    HW1 8244   1.176   1.697   6.730  2.8123 -0.2074  0.9575
 2190SOL    HW2 8245   1.070   1.590   6.751 -1.6064  3.5215 -0.6701
 2191SOL     OW 8246   5.416   4.003   4.897 -0.1890  0.3260  0.1088
 2191SOL    HW1 8247   5.452   3.915   4.911 -0.4340 -0.0790 -1.5591
 2191SOL    HW2 8248   5.344   3.990   4.835  0.2804  1.8047 -0.7876
 2192SOL     OW 8249   1.876   0.751   2.076 -0.2260 -0.3663 -0.1621
 2192SOL    HW1 8250   1.813   0.808   2.120  0.2404 -0.7919  1.0949
 2192SOL    HW2 8251   1.886   0.790   1.989 -1.7717  0.0352 -0.1904
 2193SOL     OW 8252   5.757   6.358   0.461 -0.0375 -0.0189 -0.1829
 2193SOL    HW1 8253   5.836   6.382   0.510 -1.6377  0.5145  2.3199
 2193SOL    HW2 8254   5.750   6.263   0.470  0.6304 -0.1533 -0.9715
 2194SOL     OW 8255   2.132   7.477   6.129 -0.6222  0.2313  0.4279
 2194SOL    HW1 8256   2.129   7.406   6.065 -1.1065 -1.2424  2.0278
 2194SOL    HW2 8257   2.099   7.439   6.210  1.0822  1.6817  1.9127
 2195SOL     OW 8258   1.233   1.741   6.553  0.2818  0.2200 -0.5953
 2195SOL    HW1 8259   1.312   1.795   6.546 -0.3000  0.9538 -1.8035
 2195SOL    HW2 8260   1.162   1.800   6.530 -0.4111 -0.9687 -1.6292
 2196SOL     OW 8261   9.222   6.261   3.345  0.4744  0.1160 -0.2433
 2196SOL    HW1 8262   9.290   6.291   3.285  0.3353  0.6447 -0.1394
 2196SOL    HW2 8263   9.244   6.301   3.429 -0.2282  0.6934 -0.3215
 2197SOL     OW 8264   3.763   3.505   6.285  0.7109  0.0076  0.0150
 2197SOL    HW1 8265   3.784   3.494   6.192  1.5579  0.2254  0.1759
 2197SOL    HW2 8266   3.733   3.418   6.313 -2.3353  0.5425 -1.1113
 2198SOL     OW 8267   5.998   5.750   3.625 -0.3108  0.1898  0.3739
 2198SOL    HW1 8268   6.014   5.671   3.574  0.2410  0.6348 -0.1529
 2198SOL    HW2 8269   5.962   5.718   3.708 -1.2685 -0.5363 -0.2948
 2199SOL     OW 8270   8.160   7.300   0.683  0.2294 -0.1232  0.0478
 2199SOL    HW1 8271   8.172   7.312   0.589  0.7875  0.7622  0.2239
 2199SOL    HW2 8272   8.200   7.214   0.701  0.7064 -0.0065 -0.4204
 2200SOL     OW 8273   7.648   4.643   4.092 -0.2651  0.0784  0.6352
 2200SOL    HW1 8274   7.663   4.595   4.011 -2.7064 -1.3321  0.9171
 2200SOL    HW2 8275   7.566   4.607   4.127  0.2716  1.1836  3.3326
 2201SOL     OW 8276   3.219   6.503   6.765 -0.4587  0.4571 -0.6654
 2201SOL    HW1 8277   3.255   6.479   6.680  0.6282  0.6085 -0.2662
 2201SOL    HW2 8278   3.173   6.586   6.749  0.6096  1.0186 -0.9187
 2202SOL     OW 8279   3.980   5.402   1.183 -0.5613 -0.0975  0.2822
 2202SOL    HW1 8280   3.976   5.496   1.203  1.8289  0.2214 -0.5188
 2202SOL    HW2 8281   3.984   5.397   1.088  1.8109 -0.8081  0.3498
 2203SOL     OW 8282   8.858   7.496   1.724 -0.1819 -0.0977 -0.1473
 2203SOL    HW1 8283   8.886   7.527   1.810  0.7079  0.3560 -0.5858
 2203SOL    HW2 8284   8.820   7.574   1.682 -0.5932 -0.3128 -0.1807
 2204SOL     OW 8285   2.012   7.422   3.551 -0.5085 -0.4321 -0.2043
 2204SOL    HW1 8286   2.041   7.340   3.512 -0.1990 -0.4387  0.0340
 2204SOL    HW2 8287   2.041   7.490   3.490 -2.0140 -0.5749 -1.1324
 2205SOL     OW 8288   9.399   9.606   5.537  0.7673 -0.3594  0.3394
 2205SOL    HW1 8289   9.403   9.631   5.629 -0.7696 -0.8343  0.5755
 2205SOL    HW2 8290   9.324   9.655   5.502  0.1577 -1.5916 -0.1512
 2206SOL     OW 8291   5.834   9.106   8.322  0.2008 -1.0632 -0.3674
 2206SOL    HW1 8292   5.882   9.177   8.278 -0.3415 -0.8127 -0.5553
 2206SOL    HW2 8293   5.880   9.026   8.294 -0.2645 -0.9271 -1.5821
 2207SOL     OW 8294   7.734   1.969   2.396  0.1882  0.2685 -0.1260
 2207SOL    HW1 8295   7.661   2.030   2.386 -0.0649 -0.0502 -0.2596
 2207SOL    HW2 8296   7.802   2.003   2.337 -0.7160 -0.7247 -1.8239
 2208SOL     OW 8297   2.544   8.653   3.870  0.4815 -0.2501 -0.0198
 2208SOL    HW1 8298   2.473   8.623   3.813 -0.0556 -0.5116  0.7719
 2208SOL    HW2 8299   2.606   8.696   3.811  0.4799 -1.4888 -0.9632
 2209SOL     OW 8300   7.315   9.291   2.975  0.1756  0.1953  0.1850
 2209SOL    HW1 8301   7.346   9.357   2.913  0.7837  1.8206  2.1288
 2209SOL    HW2 8302   7.229   9.266   2.942  1.7147 -1.4498 -3.1051
 2210SOL     OW 8303   6.520   4.907   0.667  0.1216 -0.1508 -0.0269
 2210SOL    HW1 8304   6.585   4.974   0.690 -0.4983  0.8167 -0.9400
 2210SOL    HW2 8305   6.481   4.881   0.751  0.4090  0.6172  0.3565
 2211SOL     OW 8306   6.824   8.978   0.733 -0.4271 -0.0438  0.3879
 2211SOL    HW1 8307   6.866   8.911   0.678 -2.3289 -1.5673  0.6862
 2211SOL    HW2 8308   6.885   8.991   0.805  0.5792 -0.4871 -0.3529
 2212SOL     OW 8309   1.837   5.180   3.277  0.7754 -0.0156  0.0466
 2212SOL    HW1 8310   1.775   5.107   3.284  0.9770 -0.2815 -0.7224
 2212SOL    HW2 8311   1.790   5.256   3.312 -0.1657 -0.1147 -0.9315
 2213SOL     OW 8312   8.110   3.620   6.058  0.6467  0.0664  0.1813
 2213SOL    HW1 8313   8.086   3.535   6.096 -0.9708  1.3408  2.1903
 2213SOL    HW2 8314   8.027   3.667   6.050  1.6338  1.8725  0.1869
 2214SOL     OW 8315   3.259   7.741   6.808 -0.0621 -0.5571  0.6711
 2214SOL    HW1 8316   3.184   7.715   6.755 -0.5799 -0.7627  1.4890
 2214SOL    HW2 8317   3.283   7.828   6.774 -2.3286  0.7199  2.0769
 2215SOL     OW 8318   7.330   3.177   7.879 -0.3465 -0.2652 -0.0669
 2215SOL    HW1 8319   7.330   3.272   7.882 -1.1796 -0.1886 -1.4627
 2215SOL    HW2 8320   7.347   3.156   7.787  1.2613 -1.5038  0.4522
 2216SOL     OW 8321   7.153   2.504   2.544  0.3524  0.0750  0.8291
 2216SOL    HW1 8322   7.130   2.502   2.637 -2.3057  0.6600  0.2500
 2216SOL    HW2 8323   7.099   2.436   2.505 -1.8844  2.6424 -0.8874
 2217SOL     OW 8324   6.560   9.142   6.687 -0.0119  0.4932  0.6949
 2217SOL    HW1 8325   6.600   9.106   6.608 -0.7763 -0.6448  0.8030
 2217SOL    HW2 8326   6.588   9.082   6.757 -1.1255  0.2150  0.9171
 2218SOL     OW 8327   6.376   3.214   2.035  0.0124 -0.1131 -0.2061
 2218SOL    HW1 8328   6.394   3.307   2.044 -0.9795  0.1109 -0.4268
 2218SOL    HW2 8329   6.310   3.195   2.102  2.4056 -1.3458  1.9815
 2219SOL     OW 8330   3.895   0.517   1.435 -0.0714 -0.2512  0.2235
 2219SOL    HW1 8331   3.907   0.595   1.488 -0.0354 -1.1275  1.5560
 2219SOL    HW2 8332   3.949   0.532   1.357  3.1722 -0.5902  2.2254
 2220SOL     OW 8333   0.012   7.071   1.233 -0.0076  0.1868 -0.3722
 2220SOL    HW1 8334   0.016   7.166   1.230  0.4905  0.1816  0.0859
 2220SOL    HW2 8335   0.062   7.043   1.156  1.7826  0.2724  0.7062
 2221SOL     OW 8336   4.991   0.594   0.376  0.1585 -0.2743  0.0853
 2221SOL    HW1 8337   5.063   0.634   0.424  0.3398 -0.3296 -0.1405
 2221SOL    HW2 8338   4.994   0.501   0.402  1.8594 -0.8652 -1.9535
 2222SOL     OW 8339   8.543   0.669   6.772 -0.0747  0.2776 -0.3605
 2222SOL    HW1 8340   8.448   0.656   6.776  0.0315 -0.2530  1.0575
 2222SOL    HW2 8341   8.554   0.749   6.719 -1.3460  0.7465  0.0393
 2223SOL     OW 8342   7.477   2.210   3.482 -0.5798  0.5283 -0.0569
 2223SOL    HW1 8343   7.530   2.171   3.551  0.8679  1.0899 -0.8007
 2223SOL    HW2 8344   7.391   2.169   3.492  0.7361 -2.7795 -0.6607
 2224SOL     OW 8345   1.474   4.218   0.379  0.0606  0.0824 -0.0374
 2224SOL    HW1 8346   1.445   4.268   0.455  0.8595  0.3017  0.1296
 2224SOL    HW2 8347   1.560   4.184   0.403  0.3942  0.2852 -0.8877
 2225SOL     OW 8348   2.332   9.023   8.924  0.5145  0.1090 -0.6427
 2225SOL    HW1 8349   2.414   9.068   8.905  0.1820  1.4320  0.7861
 2225SOL    HW2 8350   2.358   8.941   8.966  1.1288  0.8728  0.5208
 2226SOL     OW 8351   0.655   6.934   7.731 -0.0255 -0.0148 -0.4965
 2226SOL    HW1 8352   0.590   6.875   7.694  0.0842 -1.4198  1.3907
 2226SOL    HW2 8353   0.739   6.894   7.707  0.0761  0.1568 -0.4229
 2227SOL     OW 8354   7.110   5.638   1.073  0.2597 -0.3312  0.0487
 2227SOL    HW1 8355   7.044   5.707   1.060 -0.4135 -0.7067  1.3314
 2227SOL    HW2 8356   7.171   5.676   1.136  1.4027  0.0796 -1.2621
 2228SOL     OW 8357   6.960   6.334   5.037 -0.1237  0.5505 -0.2915
 2228SOL    HW1 8358   6.872   6.356   5.068 -0.2097 -1.0859  0.7529
 2228SOL    HW2 8359   6.949   6.248   4.996  0.7571  0.9444 -1.3915
 2229SOL     OW 8360   8.674   3.319   8.435 -0.3351 -0.0629 -0.6366
 2229SOL    HW1 8361   8.594   3.266   8.426 -0.2380 -0.3680  0.1827
 2229SOL    HW2 8362   8.726   3.271   8.499  2.6613 -2.5145 -4.4243
 2230SOL     OW 8363   0.015   3.613   4.910  0.3471  0.0919 -0.2516
 2230SOL    HW1 8364   0.106   3.593   4.888 -0.1937 -1.6558 -1.0682
 2230SOL    HW2 8365  -0.037   3.549   4.861 -1.2743  0.3466  1.0262
 2231SOL     OW 8366   4.339   1.201   7.998  0.0658 -0.1542 -0.0342
 2231SOL    HW1 8367   4.267   1.158   8.045  0.0026  0.8673  0.8456
 2231SOL    HW2 8368   4.348   1.151   7.918 -1.5308 -0.4120 -0.0965
 2232SOL     OW 8369   1.214   5.787   7.779 -0.0505  0.1241 -0.2098
 2232SOL    HW1 8370   1.137   5.733   7.792  1.2100 -1.5908  0.4808
 2232SOL    HW2 8371   1.238   5.773   7.687  0.7691 -1.2189  0.1908
 2233SOL     OW 8372   7.392   3.688   6.283  0.2787  0.1501  0.6715
 2233SOL    HW1 8373   7.355   3.638   6.357  0.1263  0.9030  1.1100
 2233SOL    HW2 8374   7.333   3.762   6.273  0.6623  0.3936  0.1961
 2234SOL     OW 8375   3.725   4.356   1.881 -0.3724  0.5783 -0.2285
 2234SOL    HW1 8376   3.817   4.332   1.890  0.0550  1.4409 -1.9192
 2234SOL    HW2 8377   3.699   4.385   1.968  0.9292  0.2839  0.2843
 2235SOL     OW 8378   3.700   1.191   8.351 -0.0685 -0.0583  0.1478
 2235SOL    HW1 8379   3.622   1.212   8.400 -1.4368 -0.3693 -1.7620
 2235SOL    HW2 8380   3.742   1.121   8.401 -1.0179  0.0927  1.1858
 2236SOL     OW 8381   1.632   5.792   8.322 -0.7414 -0.3352  0.2299
 2236SOL    HW1 8382   1.711   5.836   8.292 -0.8747 -1.3336 -1.7904
 2236SOL    HW2 8383   1.656   5.751   8.405  0.2940  0.8979  0.5518
 2237SOL     OW 8384   8.936   3.623   8.439  0.6786  0.5986  0.1308
 2237SOL    HW1 8385   8.850   3.635   8.481  0.9422 -0.4592  1.0296
 2237SOL    HW2 8386   8.919   3.563   8.366  0.6096  0.5421  0.1922
 2238SOL     OW 8387   4.947   6.689   3.727  0.0179  0.0185 -0.3944
 2238SOL    HW1 8388   4.917   6.649   3.645  1.1323  1.5674 -1.6295
 2238SOL    HW2 8389   4.993   6.619   3.773 -0.3300 -0.7906 -1.2451
 2239SOL     OW 8390   8.862   4.800   5.625  0.0333 -0.0823 -0.6191
 2239SOL    HW1 8391   8.862   4.719   5.677 -0.3777  1.5092  2.0593
 2239SOL    HW2 8392   8.954   4.815   5.604  0.6715  0.6342  2.2155
 2240SOL     OW 8393   0.545   4.002   5.347 -0.0554  0.5465  0.4547
 2240SOL    HW1 8394   0.476   3.936   5.335  0.6559 -0.3913  1.3913
 2240SOL    HW2 8395   0.626   3.952   5.351  0.6666  1.6080 -0.2493
 2241SOL     OW 8396   0.721   6.878   8.237  0.5021 -0.0113 -0.3058
 2241SOL    HW1 8397   0.723   6.852   8.329 -0.5016 -0.5381 -0.4187
 2241SOL    HW2 8398   0.636   6.847   8.205  1.4161 -1.1482 -1.7858
 2242SOL     OW 8399   9.363   3.845   7.420 -0.0502 -0.2965  0.1824
 2242SOL    HW1 8400   9.383   3.937   7.439 -1.4794  0.0934 -0.0769
 2242SOL    HW2 8401   9.380   3.836   7.326  1.0890 -0.5954  0.3986
 2243SOL     OW 8402   7.597   8.120   3.433 -0.5761  0.0682 -0.8551
 2243SOL    HW1 8403   7.686   8.110   3.467 -1.1645  1.1292  1.1569
 2243SOL    HW2 8404   7.544   8.061   3.486 -1.4641  1.4835 -0.1009
 2244SOL     OW 8405   0.062   9.199   6.227  0.9469 -0.2061 -0.3297
 2244SOL    HW1 8406   0.013   9.281   6.220  0.7797 -0.4034 -1.7827
 2244SOL    HW2 8407   0.094   9.182   6.139 -0.0525 -2.3109 -0.3725
 2245SOL     OW 8408   7.465   7.128   7.051  0.3792 -0.6098 -0.1042
 2245SOL    HW1 8409   7.542   7.091   7.009 -0.0812 -0.7208 -0.8674
 2245SOL    HW2 8410   7.486   7.221   7.060 -0.2281 -0.1849 -2.3259
 2246SOL     OW 8411   1.085   8.225   3.122  0.2728  0.0355 -0.6719
 2246SOL    HW1 8412   1.085   8.319   3.101 -1.2181  0.0014 -0.9439
 2246SOL    HW2 8413   1.106   8.182   3.039 -1.5870  0.0605 -1.2023
 2247SOL     OW 8414   4.650   9.060   7.685  0.0821 -0.5041 -0.0354
 2247SOL    HW1 8415   4.688   9.008   7.755 -0.7448 -1.2533 -0.1258
 2247SOL    HW2 8416   4.578   9.108   7.727 -0.2753 -0.7871 -0.3152
 2248SOL     OW 8417   7.536   2.358   2.547 -0.8499 -0.0603  0.0317
 2248SOL    HW1 8418   7.630   2.374   2.542 -0.7845 -0.4083  0.1087
 2248SOL    HW2 8419   7.517   2.358   2.641 -0.9755  0.2823  0.0070
 2249SOL     OW 8420   9.157   3.865   0.013 -0.4252 -0.3516 -0.2639
 2249SOL    HW1 8421   9.166   3.793   0.075  1.7964  0.7964  0.8649
 2249SOL    HW2 8422   9.244   3.875  -0.025 -0.9507  1.0576 -1.1864
 2250SOL     OW 8423   7.041   3.804   7.375 -0.2495 -0.3358 -0.0446
 2250SOL    HW1 8424   6.994   3.742   7.319 -1.7913  0.3690  0.3889
 2250SOL    HW2 8425   6.973   3.838   7.434  0.8981  0.5144  0.8279
 2251SOL     OW 8426   3.358   6.778   8.893 -0.2552 -0.0001  0.2055
 2251SOL    HW1 8427   3.453   6.787   8.907 -0.0208  0.1189 -1.3073
 2251SOL    HW2 8428   3.350   6.741   8.805 -1.6343  0.8609 -0.0628
 2252SOL     OW 8429   7.047   4.194   2.389 -0.5115  0.1287  0.0367
 2252SOL    HW1 8430   7.007   4.222   2.471 -0.6701  2.0030 -0.6207
 2252SOL    HW2 8431   7.114   4.260   2.372  0.3089 -0.8755 -0.7676
 2253SOL     OW 8432   8.716   4.549   7.511  0.3362  0.1206 -0.1105
 2253SOL    HW1 8433   8.634   4.573   7.469  0.1698  1.3221  0.8418
 2253SOL    HW2 8434   8.717   4.453   7.509 -0.7203  0.1089 -0.8038
 2254SOL     OW 8435   5.265   3.193   6.689  0.4525  0.2992 -0.1674
 2254SOL    HW1 8436   5.231   3.141   6.616  2.1113 -0.4421 -0.4619
 2254SOL    HW2 8437   5.356   3.211   6.665  0.4284  1.8728  0.7552
 2255SOL     OW 8438   2.430   5.993   4.389  0.5249 -0.1761 -0.3444
 2255SOL    HW1 8439   2.508   5.941   4.412  1.2372  0.9344 -0.1701
 2255SOL    HW2 8440   2.453   6.034   4.306  0.8724  1.5943  0.5824
 2256SOL     OW 8441   9.614   5.954   4.687  0.3908 -0.2235  0.6294
 2256SOL    HW1 8442   9.689   5.907   4.722  1.0633 -0.3760 -0.9299
 2256SOL    HW2 8443   9.640   6.046   4.688  0.1748 -0.1686  1.0953
 2257SOL     OW 8444   0.852   7.929   9.265 -0.1828 -0.1543  0.3380
 2257SOL    HW1 8445   0.904   7.981   9.326  1.5052  2.1158 -2.7016
 2257SOL    HW2 8446   0.820   7.993   9.201 -3.6388 -2.0398 -0.0556
 2258SOL     OW 8447   0.983   3.447   5.745  0.5469  0.0337 -0.0436
 2258SOL    HW1 8448   0.939   3.393   5.679 -0.5618  1.1647 -0.2780
 2258SOL    HW2 8449   1.024   3.517   5.695  0.2531  0.5305  0.3929
 2259SOL     OW 8450   5.808   4.452   8.915 -0.4618 -0.3747 -0.2315
 2259SOL    HW1 8451   5.893   4.409   8.906 -0.4875 -0.5383  0.2539
 2259SOL    HW2 8452   5.815   4.502   8.996  0.1033  1.8165 -1.5394
 2260SOL     OW 8453   6.405   2.045   1.467 -0.4805 -0.2614  0.7420
 2260SOL    HW1 8454   6.329   1.993   1.440  0.0965  0.4732 -2.7570
 2260SOL    HW2 8455   6.471   1.980   1.492 -1.0491 -1.0543  0.2123
 2261SOL     OW 8456   7.200   1.567   4.660 -0.4659  0.2390  0.0505
 2261SOL    HW1 8457   7.157   1.641   4.703  0.3389  1.4576 -1.1751
 2261SOL    HW2 8458   7.139   1.540   4.591 -0.1076  0.7041 -0.4439
 2262SOL     OW 8459   4.714   9.494   5.288  0.1840  0.2362  0.8339
 2262SOL    HW1 8460   4.739   9.526   5.201  0.3097 -0.3931  0.6303
 2262SOL    HW2 8461   4.621   9.513   5.296  0.4802  1.6600  1.1737
 2263SOL     OW 8462   3.579   5.566   1.761  0.6200 -0.4113 -0.6825
 2263SOL    HW1 8463   3.609   5.484   1.800 -0.7116 -0.8662 -0.5651
 2263SOL    HW2 8464   3.657   5.621   1.756  1.1096 -0.8876  1.2504
 2264SOL     OW 8465   7.798   2.426   3.320  1.0147  0.1560 -0.2630
 2264SOL    HW1 8466   7.888   2.414   3.350  0.9474  1.1524  0.3936
 2264SOL    HW2 8467   7.796   2.515   3.286  0.1833  0.2720  0.0736
 2265SOL     OW 8468   1.066   4.126   0.305 -0.3100 -0.8547  0.1455
 2265SOL    HW1 8469   1.001   4.065   0.339  1.4699 -2.8175  0.2784
 2265SOL    HW2 8470   1.147   4.074   0.302  0.8590  0.9579 -1.6298
 2266SOL     OW 8471   5.449   0.331   0.142 -0.1593 -0.2732  0.3455
 2266SOL    HW1 8472   5.496   0.294   0.217 -0.1569 -0.3106  0.3254
 2266SOL    HW2 8473   5.381   0.267   0.122  1.2995 -1.4265 -1.1688
 2267SOL     OW 8474   6.052   7.907   0.747  0.1300 -0.3690  0.3013
 2267SOL    HW1 8475   6.015   7.845   0.811  0.8147  0.1556  1.2270
 2267SOL    HW2 8476   6.134   7.867   0.720  0.6680  0.2001  1.0446
 2268SOL     OW 8477   0.546   8.027   2.896  0.0908  0.2840  0.1750
 2268SOL    HW1 8478   0.459   8.040   2.858  0.3745  3.7569  0.3889
 2268SOL    HW2 8479   0.600   7.998   2.823 -0.6689  1.0075 -0.7049
 2269SOL     OW 8480   9.579   7.701   7.198 -0.4593  0.0852 -0.0404
 2269SOL    HW1 8481   9.602   7.759   7.271 -0.4185 -1.7855  1.4941
 2269SOL    HW2 8482   9.554   7.619   7.239 -0.5523 -1.0115 -2.1509
 2270SOL     OW 8483   0.029   2.350   4.474  0.2311 -0.4848 -0.4010
 2270SOL    HW1 8484  -0.048   2.407   4.471  1.1097  0.7778  0.1023
 2270SOL    HW2 8485   0.031   2.317   4.564  0.2749 -0.5483 -0.4249
 2271SOL     OW 8486   5.165   1.153   0.186  0.1535 -0.6039 -0.9228
 2271SOL    HW1 8487   5.154   1.058   0.176 -2.3748 -0.2946 -1.9289
 2271SOL    HW2 8488   5.099   1.190   0.128 -2.2982  1.7265  2.9435
 2272SOL     OW 8489   1.688   2.483   7.977  0.1155 -0.5106  0.2405
 2272SOL    HW1 8490   1.606   2.474   8.024 -0.4793 -2.1161 -1.0074
 2272SOL    HW2 8491   1.676   2.560   7.920 -0.6774 -0.9447 -0.1928
 2273SOL     OW 8492   2.413   2.862   2.215  0.5829 -0.1000  0.1586
 2273SOL    HW1 8493   2.368   2.806   2.279  1.3661  0.3316  1.1125
 2273SOL    HW2 8494   2.396   2.951   2.245 -0.2967  0.1883 -1.1099
 2274SOL     OW 8495   7.648   6.842   4.713 -0.5649  0.3286  0.4001
 2274SOL    HW1 8496   7.629   6.865   4.622  0.3145 -0.8468 -0.1121
 2274SOL    HW2 8497   7.572   6.791   4.741 -0.6641  0.3529  0.1807
 2275SOL     OW 8498   2.288   2.349   6.913  0.1244  0.0739  0.3619
 2275SOL    HW1 8499   2.326   2.263   6.934  1.7304  0.2411 -1.5784
 2275SOL    HW2 8500   2.272   2.346   6.819 -1.0381  1.4674  0.4819
 2276SOL     OW 8501   4.598   6.595   6.021  0.0097 -0.4335  0.7283
 2276SOL    HW1 8502   4.674   6.546   6.052 -0.0945 -1.0113  0.1098
 2276SOL    HW2 8503   4.596   6.577   5.927 -0.2519  0.4680  0.5593
 2277SOL     OW 8504   6.654   8.393   3.880 -0.3122  0.2921 -0.0334
 2277SOL    HW1 8505   6.745   8.386   3.852  0.0872  1.5783  0.8528
 2277SOL    HW2 8506   6.609   8.434   3.806  0.1621  1.0843  0.1058
 2278SOL     OW 8507   8.775   9.144   4.219  0.2824  0.6254  0.4045
 2278SOL    HW1 8508   8.791   9.050   4.230  0.9573  0.6499 -0.2608
 2278SOL    HW2 8509   8.751   9.153   4.126  1.3060  1.2416  0.1832
 2279SOL     OW 8510   8.284   4.920   5.156 -0.1839 -0.3131  0.0574
 2279SOL    HW1 8511   8.362   4.939   5.103 -0.0401  0.3215  0.4835
 2279SOL    HW2 8512   8.316   4.864   5.226 -0.5167 -1.7865 -0.9249
 2280SOL     OW 8513   9.443   3.784   6.255  0.4923  0.8165 -0.1269
 2280SOL    HW1 8514   9.389   3.834   6.317 -0.9504  0.0636 -0.7113
 2280SOL    HW2 8515   9.391   3.783   6.174  1.1017 -0.4741 -0.5302
 2281SOL     OW 8516   4.622   3.578   5.996 -0.3680  0.6153  0.5427
 2281SOL    HW1 8517   4.657   3.522   5.926 -1.6613 -0.2177  0.5325
 2281SOL    HW2 8518   4.646   3.667   5.970  0.8922  0.1495  0.0652
 2282SOL     OW 8519   0.817   2.508   0.653 -0.2924 -0.0164  0.3838
 2282SOL    HW1 8520   0.870   2.565   0.709 -0.1347 -0.2698  0.4919
 2282SOL    HW2 8521   0.751   2.567   0.615  0.1277  0.3239  0.1636
 2283SOL     OW 8522   8.391   5.122   7.135  0.2062 -0.0668 -0.0439
 2283SOL    HW1 8523   8.468   5.147   7.186 -0.2541  0.6275  0.3295
 2283SOL    HW2 8524   8.323   5.107   7.200  0.2730 -1.7061 -0.2924
 2284SOL     OW 8525   5.960   0.299   8.454  0.3165  0.1409 -0.5966
 2284SOL    HW1 8526   5.995   0.272   8.539 -0.2364 -0.0346 -0.4208
 2284SOL    HW2 8527   5.989   0.231   8.393 -0.2390 -0.3364 -0.3355
 2285SOL     OW 8528   7.426   9.461   3.553 -0.3242 -0.2399 -0.3115
 2285SOL    HW1 8529   7.443   9.389   3.613 -0.5354  0.8490  1.1099
 2285SOL    HW2 8530   7.334   9.483   3.567 -0.1617  0.5621 -0.4199
 2286SOL     OW 8531   8.800   0.068   9.513 -0.4632  0.3690  0.2900
 2286SOL    HW1 8532   8.719   0.119   9.524 -0.7129 -0.2787  1.6962
 2286SOL    HW2 8533   8.840   0.067   9.600  0.5502 -0.1692 -0.1631
 2287SOL     OW 8534   7.265   4.887   1.567 -0.6372  0.0829  0.0456
 2287SOL    HW1 8535   7.351   4.879   1.608 -0.5850 -0.7143 -0.1973
 2287SOL    HW2 8536   7.237   4.977   1.587  0.9424  0.9000 -1.2437
 2288SOL     OW 8537   1.995   6.438   1.843 -0.0449  1.0025 -0.5782
 2288SOL    HW1 8538   2.056   6.473   1.908 -0.9487  1.0827  0.2396
 2288SOL    HW2 8539   1.989   6.345   1.863  1.8585  0.4101 -2.3542
 2289SOL     OW 8540   5.075   7.225   5.714 -0.0952  0.2198  0.3808
 2289SOL    HW1 8541   5.166   7.253   5.710  0.1547 -0.4287  1.2577
 2289SOL    HW2 8542   5.072   7.164   5.788 -0.7580 -1.4730 -0.9774
 2290SOL     OW 8543   7.028   8.761   1.134 -0.3636  0.0493 -0.2197
 2290SOL    HW1 8544   6.953   8.794   1.183  0.3224 -2.2911  2.6791
 2290SOL    HW2 8545   7.104   8.800   1.176  0.2145 -1.2696  0.0140
 2291SOL     OW 8546   9.229   2.553   8.496 -0.1909  0.4427 -0.3880
 2291SOL    HW1 8547   9.180   2.596   8.426 -2.3173 -0.3572  0.5014
 2291SOL    HW2 8548   9.200   2.462   8.493 -0.5087  0.4308  1.6206
 2292SOL     OW 8549   3.044   6.620   1.372 -0.3955  0.3359 -0.7118
 2292SOL    HW1 8550   2.985   6.617   1.297  0.2156  0.5712 -1.2094
 2292SOL    HW2 8551   3.101   6.695   1.356 -0.7622  0.8720  0.3836
 2293SOL     OW 8552   1.990   3.715   7.839  0.4850  0.3875  0.2695
 2293SOL    HW1 8553   2.065   3.740   7.894  0.2441  0.3922  0.5949
 2293SOL    HW2 8554   1.996   3.620   7.832 -0.4031  0.2096  1.6410
 2294SOL     OW 8555   7.941   5.114   7.876 -0.2062  0.1241 -0.2169
 2294SOL    HW1 8556   7.921   5.023   7.853 -0.5678  0.2437 -0.3847
 2294SOL    HW2 8557   8.019   5.135   7.825  0.3567 -0.3466  0.4395
 2295SOL     OW 8558   2.346   2.347   5.060  0.2632  0.0430 -0.3831
 2295SOL    HW1 8559   2.262   2.302   5.054  0.5805 -0.5691 -0.3471
 2295SOL    HW2 8560   2.409   2.278   5.083  0.9014  0.3497 -1.1690
 2296SOL     OW 8561   7.298   4.040   8.554  0.1899  0.3000  0.3540
 2296SOL    HW1 8562   7.205   4.024   8.541  0.2328 -0.3965  0.8638
 2296SOL    HW2 8563   7.339   4.009   8.474 -0.0844  1.4027 -0.2374
 2297SOL     OW 8564   6.951   2.312   2.396 -0.4980  0.2819  0.0893
 2297SOL    HW1 8565   6.965   2.239   2.336  1.1626  0.3496  0.3538
 2297SOL    HW2 8566   6.869   2.352   2.365 -1.4187 -1.6213 -0.0871
 2298SOL     OW 8567   4.967   4.804   3.671 -0.4978  0.5841  0.2847
 2298SOL    HW1 8568   4.980   4.865   3.598  1.0620 -0.5111 -0.4088
 2298SOL    HW2 8569   4.987   4.856   3.749  2.1925  0.6857 -0.3776
 2299SOL     OW 8570   2.210   3.866   5.126  0.4944 -0.3938 -0.1744
 2299SOL    HW1 8571   2.191   3.946   5.077  1.7010  2.1555  3.1384
 2299SOL    HW2 8572   2.303   3.852   5.114  0.8264  0.3201  1.3063
 2300SOL     OW 8573   6.351   1.186   7.726 -0.0622 -0.2533 -0.8041
 2300SOL    HW1 8574   6.317   1.275   7.734 -0.1399 -0.0591 -2.7985
 2300SOL    HW2 8575   6.444   1.198   7.709  0.4525 -0.6816  1.3874
 2301SOL     OW 8576   9.598   7.832   1.319  0.1933  0.2301  0.1856
 2301SOL    HW1 8577   9.664   7.893   1.351 -1.5337  1.4452  1.6390
 2301SOL    HW2 8578   9.526   7.839   1.382 -1.8304 -0.0923 -1.9362
 2302SOL     OW 8579   3.139   2.638   3.493  0.3578  0.2637 -0.8021
 2302SOL    HW1 8580   3.200   2.627   3.566 -1.4270  1.1308  0.9132
 2302SOL    HW2 8581   3.080   2.563   3.501 -2.1548  2.2662  1.1133
 2303SOL     OW 8582   9.642   3.066   6.001 -0.2037  0.2768 -0.3477
 2303SOL    HW1 8583   9.576   3.073   6.071 -0.1208 -1.5527 -0.0118
 2303SOL    HW2 8584   9.667   3.156   5.982 -0.1574  0.8456  2.0631
 2304SOL     OW 8585   2.381   3.036   4.668 -0.4790 -0.3854  0.1503
 2304SOL    HW1 8586   2.313   3.099   4.642 -2.0573 -2.7365 -1.9270
 2304SOL    HW2 8587   2.356   3.011   4.756  1.1633  2.9416  1.7627
 2305SOL     OW 8588   5.676   4.834   5.735  0.2748 -0.0632  0.0211
 2305SOL    HW1 8589   5.659   4.843   5.829 -0.5720 -1.5417  0.0441
 2305SOL    HW2 8590   5.771   4.829   5.727  0.3307 -0.3741  0.8469
 2306SOL     OW 8591   8.741   0.506   1.437  0.5048  0.7343  0.3804
 2306SOL    HW1 8592   8.670   0.536   1.495  0.2734 -1.9417  1.6129
 2306SOL    HW2 8593   8.695   0.473   1.359  0.1173 -2.4692  1.8266
 2307SOL     OW 8594   1.123   6.597   7.218  0.5182  0.2547  0.5046
 2307SOL    HW1 8595   1.198   6.590   7.277  0.9493  1.3147  0.1116
 2307SOL    HW2 8596   1.092   6.687   7.230  0.0096  0.1728 -0.1574
 2308SOL     OW 8597   4.226   7.445   0.292  0.5655 -0.3252  0.0283
 2308SOL    HW1 8598   4.162   7.512   0.313  0.8676 -0.2266  0.6727
 2308SOL    HW2 8599   4.174   7.369   0.265  0.0088 -1.1018  2.9543
 2309SOL     OW 8600   4.658   1.141   5.052 -0.0505 -0.7785 -0.5294
 2309SOL    HW1 8601   4.654   1.153   4.958 -0.2033 -1.3001 -0.5984
 2309SOL    HW2 8602   4.594   1.203   5.087  0.8970  0.3005 -0.6674
 2310SOL     OW 8603   2.474   0.774   2.721 -0.5193 -0.3557  0.1857
 2310SOL    HW1 8604   2.421   0.718   2.664 -0.3768 -0.1919 -0.1072
 2310SOL    HW2 8605   2.451   0.863   2.696  1.4970 -0.2173 -1.5158
 2311SOL     OW 8606   7.767   6.704   8.098 -0.1705  0.0438 -0.1255
 2311SOL    HW1 8607   7.716   6.697   8.017 -1.0999  0.5985  0.4042
 2311SOL    HW2 8608   7.833   6.634   8.090 -1.3558 -1.0631 -0.5649
 2312SOL     OW 8609   5.970   8.187   4.696 -1.1239 -0.1013 -0.3242
 2312SOL    HW1 8610   5.892   8.136   4.715 -0.8550  0.0241  1.2411
 2312SOL    HW2 8611   5.943   8.247   4.626 -1.6988 -1.7174 -1.5464
 2313SOL     OW 8612   7.330   8.197   4.293  0.0160 -0.2439  0.3702
 2313SOL    HW1 8613   7.374   8.122   4.252  1.2339  0.4399  0.3715
 2313SOL    HW2 8614   7.392   8.228   4.359 -1.2571 -0.3461  1.6547
 2314SOL     OW 8615   8.780   3.755   3.703  0.2240 -0.0631 -0.3848
 2314SOL    HW1 8616   8.744   3.679   3.658  0.1757 -0.8868  0.9952
 2314SOL    HW2 8617   8.858   3.722   3.747 -0.7806  0.1939  1.7256
 2315SOL     OW 8618   3.513   4.398   1.158  0.2126  0.2748  0.7761
 2315SOL    HW1 8619   3.586   4.455   1.181 -0.8114  0.9001  2.6848
 2315SOL    HW2 8620   3.555   4.315   1.135  1.5903  1.0781  0.2395
 2316SOL     OW 8621   5.385   6.347   1.994 -0.2371 -0.2318 -0.3496
 2316SOL    HW1 8622   5.439   6.404   2.049  0.9091 -1.0783 -0.5366
 2316SOL    HW2 8623   5.405   6.375   1.905 -1.0222  0.2217 -0.3871
 2317SOL     OW 8624   1.199   0.622   0.535 -0.5643  0.6121 -0.5111
 2317SOL    HW1 8625   1.251   0.547   0.508 -0.5543  0.9758 -1.5571
 2317SOL    HW2 8626   1.254   0.670   0.597 -0.1800  0.2943 -0.6102
 2318SOL     OW 8627   5.319   4.286   2.558 -0.1152 -0.2596  0.0423
 2318SOL    HW1 8628   5.256   4.342   2.513  0.7693 -0.5901 -1.7018
 2318SOL    HW2 8629   5.387   4.345   2.589  1.1241 -0.3156 -2.3127
 2319SOL     OW 8630   3.500   7.245   7.139 -0.0076  0.0484  0.3083
 2319SOL    HW1 8631   3.440   7.207   7.204  0.8933  0.8163  1.6465
 2319SOL    HW2 8632   3.519   7.173   7.079 -2.0718 -0.2729 -0.0236
 2320SOL     OW 8633   5.261   0.250   3.585  0.0562  0.4457 -0.1434
 2320SOL    HW1 8634   5.337   0.205   3.547  0.4698  1.1875 -0.2244
 2320SOL    HW2 8635   5.202   0.180   3.612  1.6258 -0.2249  1.7203
 2321SOL     OW 8636   1.424   3.288   8.702 -0.3392 -0.7538  0.1258
 2321SOL    HW1 8637   1.436   3.382   8.712  1.6918 -1.0497  1.0002
 2321SOL    HW2 8638   1.353   3.279   8.639 -0.4849  1.3533 -0.0685
 2322SOL     OW 8639   9.348   7.616   4.375  0.0882  0.3631 -0.1241
 2322SOL    HW1 8640   9.292   7.563   4.318  0.5909  0.8510 -1.0837
 2322SOL    HW2 8641   9.291   7.689   4.401 -0.6505 -0.6734  1.3107
 2323SOL     OW 8642   5.975   3.039   9.069  0.2001 -0.3767  0.1602
 2323SOL    HW1 8643   6.034   3.108   9.041  0.9292 -1.1655 -0.3281
 2323SOL    HW2 8644   5.941   3.003   8.987 -0.5576 -0.2665  0.4240
 2324SOL     OW 8645   8.930   5.882   1.291 -0.1356 -0.0939  0.0935
 2324SOL    HW1 8646   8.872   5.806   1.291 -2.0345  1.2368  1.1003
 2324SOL    HW2 8647   8.944   5.902   1.198 -3.2341  0.8011 -0.3211
 2325SOL     OW 8648   0.617   4.088   4.980 -0.4297  0.6537  0.4653
 2325SOL    HW1 8649   0.638   4.046   5.063  1.9781  0.0760 -0.3459
 2325SOL    HW2 8650   0.689   4.150   4.967  0.0342 -0.2807 -1.8262
 2326SOL     OW 8651   9.529   4.102   1.115 -0.3451 -0.2450 -0.1805
 2326SOL    HW1 8652   9.586   4.075   1.186 -0.7203  1.7758  0.9818
 2326SOL    HW2 8653   9.585   4.103   1.037  0.3963 -1.2589  0.3330
 2327SOL     OW 8654   4.192   4.783   4.473 -0.5651 -0.0349 -0.3968
 2327SOL    HW1 8655   4.236   4.745   4.397  0.9169 -0.5685  0.6756
 2327SOL    HW2 8656   4.185   4.876   4.453 -1.2012 -0.3298 -1.6354
 2328SOL     OW 8657   1.666   3.416   3.322 -0.0954  0.5065  0.0924
 2328SOL    HW1 8658   1.678   3.499   3.368  2.1172  0.8771 -1.0108
 2328SOL    HW2 8659   1.744   3.366   3.343 -1.5144 -1.4678  0.9448
 2329SOL     OW 8660   1.660   8.555   2.002 -0.8017 -0.5825 -0.8336
 2329SOL    HW1 8661   1.628   8.644   1.988 -2.1830 -1.2604 -2.2813
 2329SOL    HW2 8662   1.641   8.536   2.094  0.9135  1.1225 -0.0775
 2330SOL     OW 8663   2.633   6.183   1.117  0.2352 -0.0711 -0.1174
 2330SOL    HW1 8664   2.692   6.205   1.188 -0.2475  0.0194  0.2624
 2330SOL    HW2 8665   2.555   6.237   1.132 -0.1519 -0.5633 -0.3101
 2331SOL     OW 8666   0.110   7.606   2.107  0.1623 -0.1930  0.2705
 2331SOL    HW1 8667   0.023   7.645   2.117 -0.1812 -0.7920 -0.3355
 2331SOL    HW2 8668   0.120   7.548   2.183  0.9081  1.4464  1.5003
 2332SOL     OW 8669   1.970   0.910   7.319 -0.7328  0.0913 -0.1624
 2332SOL    HW1 8670   2.002   0.909   7.229  0.0268  2.1828  0.0450
 2332SOL    HW2 8671   1.879   0.940   7.312 -0.1936  1.7759 -0.1239
 2333SOL     OW 8672   3.118   9.486   5.392  0.6563  0.3167 -0.0181
 2333SOL    HW1 8673   3.134   9.571   5.433  2.2447 -0.8217  1.8902
 2333SOL    HW2 8674   3.205   9.458   5.361  0.0936 -0.4888 -0.9187
 2334SOL     OW 8675   4.879   2.893   9.112  0.0059  0.3607 -0.3817
 2334SOL    HW1 8676   4.849   2.875   9.023 -0.3275  0.0063 -0.2018
 2334SOL    HW2 8677   4.957   2.838   9.123  1.2305  1.8938 -1.1290
 2335SOL     OW 8678   1.318   4.654   0.991 -0.2888 -0.0975  0.1555
 2335SOL    HW1 8679   1.267   4.580   0.958 -0.1058 -0.7868  1.3477
 2335SOL    HW2 8680   1.298   4.657   1.084 -0.5017  1.5509  0.0807
 2336SOL     OW 8681   0.095   6.137   3.346  0.2744 -0.3129  0.2290
 2336SOL    HW1 8682   0.081   6.043   3.335  1.3080 -0.4345 -0.2474
 2336SOL    HW2 8683   0.169   6.143   3.406 -0.4408  0.2269  1.0650
 2337SOL     OW 8684   2.079   8.533   4.470  0.5747  0.2661  0.3745
 2337SOL    HW1 8685   1.988   8.561   4.482 -0.7729 -3.0720 -0.8859
 2337SOL    HW2 8686   2.081   8.491   4.384  3.7563  1.5937 -0.3310
 2338SOL     OW 8687   4.494   5.412   7.906  0.1669  0.4176 -0.0308
 2338SOL    HW1 8688   4.497   5.317   7.904  2.0161  0.3717  1.9486
 2338SOL    HW2 8689   4.578   5.440   7.869 -1.0814  1.3933 -2.3274
 2339SOL     OW 8690   4.012   2.001   1.157 -0.4868 -1.0961 -0.2789
 2339SOL    HW1 8691   3.960   2.058   1.214 -3.1228 -2.2716 -1.3034
 2339SOL    HW2 8692   4.026   1.922   1.209 -1.4106 -1.4963 -0.6015
 2340SOL     OW 8693   5.147   5.446   4.072 -0.3478  0.3210 -1.1304
 2340SOL    HW1 8694   5.115   5.361   4.103  1.0904  0.3689  0.6146
 2340SOL    HW2 8695   5.239   5.429   4.049  1.2684  2.1521  3.0841
 2341SOL     OW 8696   1.929   8.874   3.530  0.2313  0.1021  0.0213
 2341SOL    HW1 8697   1.913   8.968   3.516 -0.9814 -0.1643 -0.5460
 2341SOL    HW2 8698   1.854   8.845   3.582  0.5834 -0.5647  0.1682
 2342SOL     OW 8699   1.083   8.166   2.861 -0.2751 -0.2799 -0.0174
 2342SOL    HW1 8700   1.121   8.245   2.824 -0.5429 -0.5349 -0.8643
 2342SOL    HW2 8701   1.146   8.097   2.839 -1.1630 -0.6976 -1.3936
 2343SOL     OW 8702   2.284   5.599   6.278  0.5852  0.1939 -0.2130
 2343SOL    HW1 8703   2.258   5.650   6.355 -2.2195  0.5029 -1.2521
 2343SOL    HW2 8704   2.289   5.663   6.207 -1.2450 -0.6587 -1.1624
 2344SOL     OW 8705   9.071   7.801   2.442  0.7026  0.0867 -0.2084
 2344SOL    HW1 8706   9.133   7.863   2.481  0.7708  0.7793 -1.3650
 2344SOL    HW2 8707   8.985   7.842   2.453  0.9208  1.3826 -2.6661
 2345SOL     OW 8708   5.580   8.670   4.228 -0.2564  0.3157  0.6563
 2345SOL    HW1 8709   5.503   8.723   4.212  0.3353  0.6739 -1.1720
 2345SOL    HW2 8710   5.555   8.582   4.200 -0.0162  0.4355  0.0450
 2346SOL     OW 8711   0.522   0.524   4.700  0.2015  0.1732 -0.5724
 2346SOL    HW1 8712   0.460   0.457   4.671 -0.8146 -0.5424  2.8866
 2346SOL    HW2 8713   0.587   0.476   4.751  1.6829  1.3995 -1.2298
 2347SOL     OW 8714   2.166   7.401   4.152 -0.9409 -0.0868  0.3577
 2347SOL    HW1 8715   2.163   7.308   4.131 -0.2298  0.2144 -1.2615
 2347SOL    HW2 8716   2.109   7.411   4.228 -1.3786 -1.7644  0.2818
 2348SOL     OW 8717   5.022   7.581   8.510 -0.2846  0.4907 -0.5200
 2348SOL    HW1 8718   5.038   7.575   8.415 -1.4479 -0.5427 -0.6822
 2348SOL    HW2 8719   5.017   7.675   8.527  1.2594  0.7430 -1.2259
 2349SOL     OW 8720   2.453   5.395   9.433 -0.2499  0.0654 -0.3390
 2349SOL    HW1 8721   2.462   5.398   9.528  0.0632 -1.0514 -0.3224
 2349SOL    HW2 8722   2.460   5.302   9.411 -0.7073  0.2734 -1.4180
 2350SOL     OW 8723   3.800   4.307   8.665 -0.5373  0.0775 -0.2180
 2350SOL    HW1 8724   3.778   4.398   8.684 -2.2455 -0.0831 -1.2405
 2350SOL    HW2 8725   3.786   4.298   8.571  1.5922 -0.7389 -0.5013
 2351SOL     OW 8726   7.273   3.413   7.405 -0.3404 -0.0744  0.2029
 2351SOL    HW1 8727   7.223   3.446   7.480  0.6377  1.5497  0.1884
 2351SOL    HW2 8728   7.261   3.318   7.408 -0.4982 -0.0334  2.2834
 2352SOL     OW 8729   6.750   1.050   1.774  1.2369 -0.2194  0.2085
 2352SOL    HW1 8730   6.673   1.083   1.820  2.1264  1.2205  0.7328
 2352SOL    HW2 8731   6.739   0.955   1.771 -0.8756  0.0085 -0.3416
 2353SOL     OW 8732   1.620   8.280   9.434 -0.1594  0.2371 -0.0014
 2353SOL    HW1 8733   1.649   8.249   9.348 -1.0513 -0.1257 -0.1771
 2353SOL    HW2 8734   1.531   8.310   9.420  0.0073  1.0478  0.6086
 2354SOL     OW 8735   8.819   7.962   7.541 -0.0577  0.0496 -0.1467
 2354SOL    HW1 8736   8.871   7.889   7.575 -0.0260  0.4153  0.6094
 2354SOL    HW2 8737   8.795   8.013   7.619  0.3166  1.1020 -0.6947
 2355SOL     OW 8738   4.247   4.325   0.142 -0.0110  0.4688  0.1801
 2355SOL    HW1 8739   4.199   4.384   0.083 -2.7964 -0.1888  1.6430
 2355SOL    HW2 8740   4.326   4.374   0.164 -0.0982  1.7936 -2.0492
 2356SOL     OW 8741   2.609   6.713   0.550  0.1123 -0.0591 -0.5248
 2356SOL    HW1 8742   2.687   6.742   0.503  1.2716 -0.0391  1.3154
 2356SOL    HW2 8743   2.612   6.617   0.544 -1.5261 -0.0609 -3.1451
 2357SOL     OW 8744   5.621   4.736   6.022 -0.3104  0.3327  0.6838
 2357SOL    HW1 8745   5.571   4.687   6.088  0.9662 -0.4096  1.1444
 2357SOL    HW2 8746   5.686   4.784   6.072 -0.0763  0.6854  0.0486
 2358SOL     OW 8747   2.145   0.545   9.031  0.5258 -0.1746 -0.2995
 2358SOL    HW1 8748   2.120   0.632   9.001 -0.0010 -0.3581 -0.4030
 2358SOL    HW2 8749   2.075   0.519   9.091  2.3202  0.8249  2.4087
 2359SOL     OW 8750   2.756   6.402   6.049  0.4376 -0.3634 -0.0028
 2359SOL    HW1 8751   2.795   6.448   6.124 -1.2316  0.5945  0.3148
 2359SOL    HW2 8752   2.761   6.464   5.977  1.7441 -1.1676 -0.6520
 2360SOL     OW 8753   5.652   2.665   8.543 -0.1811 -0.6861  0.6619
 2360SOL    HW1 8754   5.734   2.657   8.591  0.6454  0.4290 -0.4821
 2360SOL    HW2 8755   5.644   2.759   8.526 -0.5186 -1.0086 -1.1871
 2361SOL     OW 8756   2.427   8.497   3.393 -0.0680  0.0074 -0.4134
 2361SOL    HW1 8757   2.472   8.434   3.336 -0.1318 -0.4934  0.0895
 2361SOL    HW2 8758   2.336   8.494   3.364  0.2102  1.0703 -1.4769
 2362SOL     OW 8759   7.927   2.736   6.344 -0.0766  0.0975  0.1831
 2362SOL    HW1 8760   7.945   2.659   6.291  0.9262  0.7758 -0.5119
 2362SOL    HW2 8761   7.965   2.716   6.430 -1.0692 -0.7186  0.4523
 2363SOL     OW 8762   2.156   7.209   5.494 -0.1609  0.2008 -0.6308
 2363SOL    HW1 8763   2.093   7.138   5.479  2.2346 -2.4963  1.0595
 2363SOL    HW2 8764   2.103   7.280   5.532 -2.4043 -1.3210 -0.7064
 2364SOL     OW 8765   8.740   2.340   4.237 -0.1176  0.2188 -0.2680
 2364SOL    HW1 8766   8.787   2.287   4.302  1.1147  0.7921 -0.6642
 2364SOL    HW2 8767   8.765   2.430   4.257  0.8084  0.3741 -1.9040
 2365SOL     OW 8768   6.042   0.323   3.475 -0.1417  0.1553  0.5250
 2365SOL    HW1 8769   6.131   0.342   3.505 -0.5086 -2.7832  4.3826
 2365SOL    HW2 8770   6.028   0.381   3.401  4.0343  2.5907  1.3349
 2366SOL     OW 8771   5.311   8.828   5.808 -0.4352 -0.2679 -0.1870
 2366SOL    HW1 8772   5.392   8.786   5.837  0.3030  1.0662 -0.2688
 2366SOL    HW2 8773   5.310   8.816   5.713  0.3330  0.8387 -0.3440
 2367SOL     OW 8774   0.213   8.646   6.177 -1.0576  0.0701  0.4454
 2367SOL    HW1 8775   0.229   8.599   6.096 -0.1573  0.2393  0.5128
 2367SOL    HW2 8776   0.185   8.579   6.239 -0.6214 -0.2435  0.3075
 2368SOL     OW 8777   4.725   2.748   4.036 -0.2564 -0.3888 -1.0970
 2368SOL    HW1 8778   4.748   2.828   3.987 -0.1086 -0.8853 -1.8538
 2368SOL    HW2 8779   4.798   2.735   4.096 -0.6928  0.5297 -0.3415
 2369SOL     OW 8780   1.359   0.178   4.648  0.4352  0.4307  0.0573
 2369SOL    HW1 8781   1.274   0.134   4.639 -0.3971  1.8601  0.5715
 2369SOL    HW2 8782   1.409   0.123   4.708 -0.1661 -0.3596 -0.1495
 2370SOL     OW 8783   1.930   4.004   0.686  0.5699  0.3777 -0.0034
 2370SOL    HW1 8784   1.957   4.075   0.629  0.1430  0.1670 -0.4800
 2370SOL    HW2 8785   1.980   3.928   0.656 -0.9988 -0.1835 -1.3485
 2371SOL     OW 8786   2.325   3.228   0.284  0.0145  0.5342  0.3308
 2371SOL    HW1 8787   2.387   3.300   0.298 -0.2480  0.6289  1.0143
 2371SOL    HW2 8788   2.250   3.270   0.242  0.0416  0.5795  0.3271
 2372SOL     OW 8789   1.373   1.474   2.836 -0.5980 -0.0618  0.1487
 2372SOL    HW1 8790   1.383   1.526   2.916  0.2565 -1.9047  1.2822
 2372SOL    HW2 8791   1.407   1.388   2.858 -1.5037 -0.9962 -1.8348
 2373SOL     OW 8792   3.853   2.504   3.217 -0.0898  0.3731  0.0153
 2373SOL    HW1 8793   3.860   2.436   3.284  1.5671  2.0671  1.7153
 2373SOL    HW2 8794   3.764   2.536   3.225  0.2784  1.0527  2.0525
 2374SOL     OW 8795   9.594   9.138   5.928  0.0638  0.3988  0.1704
 2374SOL    HW1 8796   9.551   9.210   5.974  0.6571  2.0742 -1.7515
 2374SOL    HW2 8797   9.642   9.180   5.857  0.3915 -1.9119 -1.0773
 2375SOL     OW 8798   2.552   3.842   5.821  0.1557  0.1180  1.0498
 2375SOL    HW1 8799   2.476   3.794   5.787  0.5793  0.5204 -0.5519
 2375SOL    HW2 8800   2.534   3.933   5.800  0.4340  0.3901  1.9664
 2376SOL     OW 8801   8.087   4.392   2.037  0.1233  0.2145  0.3658
 2376SOL    HW1 8802   8.130   4.360   1.958  0.1067 -1.5222  1.0137
 2376SOL    HW2 8803   8.131   4.345   2.108 -2.1313 -0.8585  1.1201
 2377SOL     OW 8804   3.363   6.734   7.328  0.0113 -0.2407  0.1498
 2377SOL    HW1 8805   3.328   6.803   7.271 -0.2746 -0.8204 -0.3827
 2377SOL    HW2 8806   3.418   6.781   7.391  0.4497  0.4014 -0.6923
 2378SOL     OW 8807   5.342   6.285   8.368 -0.0513 -0.0680 -0.7161
 2378SOL    HW1 8808   5.311   6.266   8.280 -0.2831 -0.4947 -0.5483
 2378SOL    HW2 8809   5.394   6.365   8.359  1.0282 -0.8260 -1.4624
 2379SOL     OW 8810   1.677   8.569   4.959  0.2215  0.6285  0.5164
 2379SOL    HW1 8811   1.607   8.511   4.928  0.9939  0.7002 -1.5278
 2379SOL    HW2 8812   1.665   8.573   5.054 -1.0259 -1.3233  0.4955
 2380SOL     OW 8813   9.598   6.627   4.808  0.1341 -0.5560  0.1069
 2380SOL    HW1 8814   9.626   6.619   4.716 -1.5690  1.5692 -0.6677
 2380SOL    HW2 8815   9.533   6.558   4.819  0.1007 -0.6049 -0.3799
 2381SOL     OW 8816   6.194   4.111   0.234 -0.0813  0.2556 -0.1745
 2381SOL    HW1 8817   6.257   4.179   0.209 -0.6452  0.9374  0.2140
 2381SOL    HW2 8818   6.188   4.117   0.329  0.7225 -1.1311 -0.0138
 2382SOL     OW 8819   7.807   8.243   7.251  0.3687 -0.5954 -0.7813
 2382SOL    HW1 8820   7.789   8.269   7.161 -0.1813 -0.1807 -0.5513
 2382SOL    HW2 8821   7.877   8.302   7.280 -0.4691  0.2640 -0.4560
 2383SOL     OW 8822   2.664   3.960   3.437  0.1265  0.4163 -0.1994
 2383SOL    HW1 8823   2.571   3.944   3.422  0.4071 -2.5893  0.5117
 2383SOL    HW2 8824   2.682   3.920   3.522  2.2468  0.0145 -0.7669
 2384SOL     OW 8825   4.889   3.913   0.729 -0.3628  0.4831  0.2472
 2384SOL    HW1 8826   4.951   3.866   0.673  1.3794  1.7285  1.0153
 2384SOL    HW2 8827   4.859   3.986   0.675 -1.5165 -0.3576 -0.2688
 2385SOL     OW 8828   3.313   0.175   2.110  0.0169  0.0929 -0.1976
 2385SOL    HW1 8829   3.288   0.265   2.133 -0.6350  0.2616 -1.4944
 2385SOL    HW2 8830   3.373   0.149   2.180  0.8458  1.8119 -0.2021
 2386SOL     OW 8831   8.063   6.403   7.286 -0.0739  0.0625  0.1916
 2386SOL    HW1 8832   8.064   6.476   7.349 -0.3114 -1.0443  1.5398
 2386SOL    HW2 8833   8.150   6.363   7.295 -0.7766 -1.2975  1.3219
 2387SOL     OW 8834   4.023   8.750   9.000 -0.6906 -0.3203  0.0418
 2387SOL    HW1 8835   4.083   8.711   9.064  0.5146 -0.1121 -0.9284
 2387SOL    HW2 8836   4.078   8.767   8.923 -1.9018  0.3179 -0.7047
 2388SOL     OW 8837   5.453   8.768   9.144  0.5838  0.4926  0.7473
 2388SOL    HW1 8838   5.404   8.842   9.180  1.6232  1.1210  0.9311
 2388SOL    HW2 8839   5.527   8.757   9.204  1.3165  0.3465 -0.1623
 2389SOL     OW 8840   0.395   5.187   6.318  0.2036 -0.0984 -0.1705
 2389SOL    HW1 8841   0.400   5.243   6.240  0.9766  0.1876  0.0790
 2389SOL    HW2 8842   0.418   5.245   6.391  0.7384 -0.6727  0.1252
 2390SOL     OW 8843   2.896   4.827   7.411 -0.1290  0.3356 -0.2421
 2390SOL    HW1 8844   2.912   4.848   7.319 -0.1910  0.2580 -0.2708
 2390SOL    HW2 8845   2.938   4.898   7.459 -2.2369  1.7442 -0.3886
 2391SOL     OW 8846   7.300   4.638   5.735 -0.0383  0.1014 -0.9547
 2391SOL    HW1 8847   7.262   4.593   5.811 -0.8492 -0.0346 -1.4231
 2391SOL    HW2 8848   7.389   4.660   5.762 -1.0262  2.1671  0.9380
 2392SOL     OW 8849   9.665   9.238   7.862 -0.3356 -0.0653 -0.2636
 2392SOL    HW1 8850   9.592   9.181   7.888 -0.7592  0.5345 -0.1377
 2392SOL    HW2 8851   9.624   9.319   7.834  0.1727 -0.3553 -1.9673
 2393SOL     OW 8852   2.699   8.713   8.959 -0.4985 -0.0609  0.3775
 2393SOL    HW1 8853   2.787   8.718   8.997 -0.8442  1.1149  1.0702
 2393SOL    HW2 8854   2.715   8.714   8.864  0.2215  1.2153  0.4799
 2394SOL     OW 8855   0.770   3.556   3.618 -0.0151 -0.1200 -0.1525
 2394SOL    HW1 8856   0.774   3.461   3.605 -1.4339  0.0878 -2.9128
 2394SOL    HW2 8857   0.702   3.585   3.558  0.6771  2.7280  0.2986
 2395SOL     OW 8858   7.197   4.201   1.161 -0.5423  0.3371  0.4007
 2395SOL    HW1 8859   7.212   4.128   1.221 -1.1721 -0.5006 -0.4176
 2395SOL    HW2 8860   7.262   4.267   1.186 -0.3479 -0.2531  1.5463
 2396SOL     OW 8861   5.813   6.391   4.311 -0.5501  0.3160 -0.9151
 2396SOL    HW1 8862   5.743   6.327   4.294 -0.3644 -0.4960  1.0829
 2396SOL    HW2 8863   5.890   6.354   4.268 -0.9452  0.3678 -1.6931
 2397SOL     OW 8864   0.277   4.224   5.056 -0.1721 -0.0399  0.2866
 2397SOL    HW1 8865   0.228   4.233   4.974  1.5331 -0.8515 -0.8860
 2397SOL    HW2 8866   0.343   4.294   5.052  0.0719 -0.2359  0.8390
 2398SOL     OW 8867   1.479   2.687   0.629  0.3354 -0.4813 -0.0755
 2398SOL    HW1 8868   1.489   2.771   0.585  0.4528 -0.5455 -0.1704
 2398SOL    HW2 8869   1.555   2.680   0.687  0.0993 -0.3246  0.2569
 2399SOL     OW 8870   2.929   0.776   0.975 -0.8485 -0.1513 -0.1012
 2399SOL    HW1 8871   2.853   0.790   1.032  0.1198  0.2358  1.1475
 2399SOL    HW2 8872   2.952   0.684   0.988 -1.8780 -0.6405 -1.5106
 2400SOL     OW 8873   6.827   9.029   9.623 -0.4146  0.0954 -0.0153
 2400SOL    HW1 8874   6.734   9.007   9.614 -0.0727 -0.3354 -3.9749
 2400SOL    HW2 8875   6.827   9.117   9.661 -2.2866 -0.5578  1.7136
 2401SOL     OW 8876   6.749   8.150   0.795 -0.4034 -0.0494  0.2336
 2401SOL    HW1 8877   6.814   8.174   0.861 -1.3186 -1.4500  1.7158
 2401SOL    HW2 8878   6.666   8.182   0.830 -0.9026 -0.7777 -0.2418
 2402SOL     OW 8879   3.385   7.655   5.190 -0.3127  0.3288  0.4455
 2402SOL    HW1 8880   3.336   7.664   5.109 -0.3332  2.2752  0.6336
 2402SOL    HW2 8881   3.441   7.732   5.194  1.1380 -0.7011  1.3459
 2403SOL     OW 8882   0.286   3.550   5.204 -0.0136  0.2168  0.0908
 2403SOL    HW1 8883   0.243   3.464   5.204  1.3892 -0.5550  1.5465
 2403SOL    HW2 8884   0.270   3.585   5.117 -0.3993 -1.6480 -0.6372
 2404SOL     OW 8885   1.963   7.980   1.955 -0.0673 -0.8251  0.3034
 2404SOL    HW1 8886   1.981   7.924   1.880 -0.0580 -2.5155  1.5250
 2404SOL    HW2 8887   1.872   8.008   1.943  0.0675 -0.6990 -0.5399
 2405SOL     OW 8888   3.810   6.261   4.096 -0.5863  0.1315  0.0716
 2405SOL    HW1 8889   3.775   6.338   4.050  0.4449  0.9882  0.6794
 2405SOL    HW2 8890   3.870   6.221   4.033 -0.9719 -0.0691 -0.1732
 2406SOL     OW 8891   1.287   8.712   0.813  0.4013  0.2731 -0.4824
 2406SOL    HW1 8892   1.272   8.785   0.874  0.1943  0.3341 -0.6090
 2406SOL    HW2 8893   1.383   8.705   0.810  0.4707 -1.7493  2.2683
 2407SOL     OW 8894   2.688   7.245   5.425 -0.1674 -0.2450 -0.0259
 2407SOL    HW1 8895   2.633   7.194   5.485  0.8426  0.3626  1.4871
 2407SOL    HW2 8896   2.775   7.206   5.433  0.1707  0.4080 -0.4171
 2408SOL     OW 8897   6.457   7.584   9.311  0.4857  0.3026 -0.3873
 2408SOL    HW1 8898   6.507   7.569   9.392  0.4857  0.6249 -0.3269
 2408SOL    HW2 8899   6.383   7.637   9.339 -0.7113 -1.3745 -0.1983
 2409SOL     OW 8900   7.912   0.178   7.520 -0.2106 -0.2410 -0.7494
 2409SOL    HW1 8901   7.844   0.117   7.547 -0.2152  0.0784 -0.0268
 2409SOL    HW2 8902   7.878   0.264   7.545  0.8305 -0.1532  0.4120
 2410SOL     OW 8903   6.582   9.540   2.374  0.1424 -0.7541 -0.1525
 2410SOL    HW1 8904   6.504   9.520   2.426 -0.7896  0.0136 -1.1943
 2410SOL    HW2 8905   6.566   9.498   2.289  0.3580  0.2670 -0.7255
 2411SOL     OW 8906   1.570   0.491   7.931  0.8266  0.3173 -0.7737
 2411SOL    HW1 8907   1.506   0.463   7.997  0.8229 -1.0747 -1.3212
 2411SOL    HW2 8908   1.603   0.575   7.963 -0.7406  0.7198 -0.1103
 2412SOL     OW 8909   3.957   3.786   5.790  0.7171  0.1901 -0.5802
 2412SOL    HW1 8910   3.869   3.814   5.816  0.2183 -0.4013 -1.5894
 2412SOL    HW2 8911   3.984   3.726   5.860  1.0688  1.7185  0.6674
 2413SOL     OW 8912   6.533   5.583   2.366 -0.3851  0.1120 -0.6037
 2413SOL    HW1 8913   6.608   5.548   2.414 -1.5713  0.1829  1.4338
 2413SOL    HW2 8914   6.560   5.670   2.339  0.1023  0.3412  0.5739
 2414SOL     OW 8915   5.211   8.111   7.422 -0.6187 -0.3198 -0.0426
 2414SOL    HW1 8916   5.208   8.017   7.406  1.0919 -0.2841 -0.7707
 2414SOL    HW2 8917   5.266   8.120   7.500 -1.2888  0.0504  0.3945
 2415SOL     OW 8918   5.479   0.293   5.614  0.2545 -0.4228 -0.1307
 2415SOL    HW1 8919   5.405   0.237   5.638 -1.7336  1.6030 -1.1473
 2415SOL    HW2 8920   5.545   0.232   5.582 -1.1922 -2.3013  0.2437
 2416SOL     OW 8921   3.316   2.508   6.825 -0.8561 -0.3377 -0.2075
 2416SOL    HW1 8922   3.232   2.545   6.855 -0.3944 -0.2483  1.0495
 2416SOL    HW2 8923   3.291   2.439   6.764 -1.7921  0.9130 -1.3158
 2417SOL     OW 8924   3.225   7.468   5.768  0.1176 -0.2109 -0.5550
 2417SOL    HW1 8925   3.191   7.537   5.710  0.7919  0.2668 -0.3940
 2417SOL    HW2 8926   3.160   7.463   5.838 -0.9169 -1.0842 -1.5469
 2418SOL     OW 8927   7.958   4.882   9.621  0.3276  0.4053  0.3997
 2418SOL    HW1 8928   8.011   4.840   9.688  1.1268  3.2203  1.6996
 2418SOL    HW2 8929   7.891   4.930   9.669  0.3598  1.7914 -0.8534
 2419SOL     OW 8930   4.502   7.986   2.630  0.3428 -0.1166 -0.2500
 2419SOL    HW1 8931   4.538   7.983   2.542 -0.1321 -0.2355 -0.4385
 2419SOL    HW2 8932   4.540   8.065   2.669  0.5238 -0.0471 -0.5686
 2420SOL     OW 8933   1.781   6.335   8.255 -0.0910 -0.3926 -0.2870
 2420SOL    HW1 8934   1.703   6.355   8.202  0.1374 -1.4300 -1.0406
 2420SOL    HW2 8935   1.849   6.391   8.217 -0.7456  1.5710  1.2690
 2421SOL     OW 8936   3.160   6.366   5.679 -0.0753  0.1808  0.2164
 2421SOL    HW1 8937   3.077   6.336   5.717 -0.3089  0.7562  0.1814
 2421SOL    HW2 8938   3.180   6.446   5.727  1.2690 -0.7591  1.2797
 2422SOL     OW 8939   5.974   3.128   9.325 -0.3509 -0.3231 -0.1660
 2422SOL    HW1 8940   5.990   3.109   9.232  1.3810 -1.0515  0.2596
 2422SOL    HW2 8941   5.887   3.168   9.325  1.0216  3.2202 -2.5854
 2423SOL     OW 8942   3.638   7.058   3.365 -0.3378 -0.3098  0.0321
 2423SOL    HW1 8943   3.577   7.055   3.292  1.5505  0.5262 -1.6679
 2423SOL    HW2 8944   3.674   7.146   3.363  0.1997 -0.4494  1.6354
 2424SOL     OW 8945   3.945   5.274   4.332 -0.9259  0.0106 -0.1153
 2424SOL    HW1 8946   3.861   5.305   4.367 -0.2330  0.2550  1.4191
 2424SOL    HW2 8947   3.982   5.351   4.288 -1.0893  0.1761  0.0329
 2425SOL     OW 8948   2.914   0.266   8.219  0.4707  0.0491 -0.1401
 2425SOL    HW1 8949   2.916   0.361   8.222  0.5186  0.1202 -1.5604
 2425SOL    HW2 8950   2.960   0.244   8.138 -0.0113 -1.1571 -0.1038
 2426SOL     OW 8951   3.543   5.629   1.432  0.1165 -0.6239  0.2364
 2426SOL    HW1 8952   3.611   5.569   1.462 -0.4262 -1.3573  0.0276
 2426SOL    HW2 8953   3.462   5.579   1.439 -0.5068  0.4876  1.1814
 2427SOL     OW 8954   8.580   7.921   7.454 -0.0430 -0.2604  0.5995
 2427SOL    HW1 8955   8.672   7.926   7.479 -0.5400  0.9475  2.4560
 2427SOL    HW2 8956   8.556   7.829   7.469  1.0309 -0.7855 -0.7267
 2428SOL     OW 8957   3.952   4.270   0.037 -0.0474 -0.1207  0.0836
 2428SOL    HW1 8958   4.002   4.197   0.001 -0.8046 -0.0853 -1.0824
 2428SOL    HW2 8959   3.932   4.325  -0.039  0.3523  1.2219  0.9044
 2429SOL     OW 8960   3.431   5.172   9.350 -0.2427  0.4340 -0.1682
 2429SOL    HW1 8961   3.483   5.164   9.429  0.0447 -0.8364 -0.4537
 2429SOL    HW2 8962   3.462   5.251   9.308 -0.1199  0.9054  0.7838
 2430SOL     OW 8963   8.533   3.766   5.516 -0.0721 -0.3591 -0.1684
 2430SOL    HW1 8964   8.546   3.857   5.488 -1.6194  0.2259  0.9010
 2430SOL    HW2 8965   8.527   3.770   5.611  0.3262 -1.6730 -0.0635
 2431SOL     OW 8966   6.721   8.032   6.526 -0.4005 -0.5530 -0.2383
 2431SOL    HW1 8967   6.782   8.011   6.597 -0.6422  2.8189  1.1391
 2431SOL    HW2 8968   6.777   8.040   6.448  0.7149  0.8468  0.6700
 2432SOL     OW 8969   4.359   8.820   9.067 -0.1328  0.0943 -0.2504
 2432SOL    HW1 8970   4.304   8.898   9.058  0.9724  0.9681  0.3679
 2432SOL    HW2 8971   4.374   8.791   8.977 -1.8728 -0.3843 -0.4248
 2433SOL     OW 8972   0.395   7.855   6.199 -0.0077 -0.1366 -0.4465
 2433SOL    HW1 8973   0.487   7.832   6.182  0.2417  0.7087 -0.2701
 2433SOL    HW2 8974   0.380   7.933   6.146 -0.1042  0.7780  0.9112
 2434SOL     OW 8975   4.947   6.149   7.316  0.0204  0.0003  0.8686
 2434SOL    HW1 8976   4.945   6.222   7.253 -1.7508 -0.6429  0.1253
 2434SOL    HW2 8977   4.864   6.156   7.363 -0.1986 -1.5289  0.7679
 2435SOL     OW 8978   0.806   6.439   4.975  0.1277 -0.8935 -0.0071
 2435SOL    HW1 8979   0.731   6.498   4.980 -0.9977 -2.2828  0.2433
 2435SOL    HW2 8980   0.882   6.494   4.995 -0.7698  0.6231 -0.6172
 2436SOL     OW 8981   0.809   9.600   8.077  0.4544  0.1701  0.0699
 2436SOL    HW1 8982   0.714   9.608   8.076  0.6328  3.6110 -0.2543
 2436SOL    HW2 8983   0.830   9.539   8.006 -1.4290  0.9064 -1.1730
 2437SOL     OW 8984   7.896   2.410   0.975 -0.1487  0.0959 -0.2614
 2437SOL    HW1 8985   7.814   2.438   0.935 -0.4382 -0.2208  0.1042
 2437SOL    HW2 8986   7.961   2.472   0.943 -0.9137  1.7515  1.2047
 2438SOL     OW 8987   0.111   8.013   9.299  0.1065 -0.3333  0.1212
 2438SOL    HW1 8988   0.064   7.974   9.225  0.2333 -0.7570  0.2562
 2438SOL    HW2 8989   0.076   8.102   9.306  0.6750 -0.0128 -0.9572
 2439SOL     OW 8990   7.385   6.163   5.733 -0.4519 -0.2489 -0.2969
 2439SOL    HW1 8991   7.333   6.120   5.666  0.2794  0.8575 -1.6136
 2439SOL    HW2 8992   7.466   6.111   5.737  0.1363  0.5617 -1.3799
 2440SOL     OW 8993   6.701   5.328   0.115  0.3076  0.3060 -0.2104
 2440SOL    HW1 8994   6.791   5.319   0.083 -0.0857 -0.2440 -1.1982
 2440SOL    HW2 8995   6.664   5.398   0.062  0.1364  0.4944  0.1578
 2441SOL     OW 8996   4.397   9.642   0.006 -0.9914 -0.0105  0.6629
 2441SOL    HW1 8997   4.476   9.690  -0.020 -1.9143  1.0558 -0.2159
 2441SOL    HW2 8998   4.347   9.705   0.058 -1.5372 -0.4957  0.7280
 2442SOL     OW 8999   7.169   9.398   2.371 -0.8185 -0.1469  0.0793
 2442SOL    HW1 9000   7.131   9.362   2.451  0.1769 -0.1470  0.5765
 2442SOL    HW2 9001   7.109   9.372   2.302 -0.6221 -1.9596  0.5494
 2443SOL     OW 9002   2.802   5.393   1.388 -0.4731 -0.1757 -0.4742
 2443SOL    HW1 9003   2.725   5.336   1.380 -1.0858  0.6072 -0.2677
 2443SOL    HW2 9004   2.780   5.453   1.460 -0.9980  2.0593 -2.3696
 2444SOL     OW 9005   0.685   2.683   9.272  0.5464  0.0227 -0.3564
 2444SOL    HW1 9006   0.593   2.699   9.294  0.2489 -1.2684 -0.5772
 2444SOL    HW2 9007   0.695   2.719   9.184  0.2287  0.0686 -0.3754
 2445SOL     OW 9008   7.179   5.781   8.201 -0.1279 -0.3522 -0.1115
 2445SOL    HW1 9009   7.234   5.845   8.246  0.9413 -1.0018 -0.4567
 2445SOL    HW2 9010   7.093   5.791   8.242  0.4847 -0.0039  1.1478
 2446SOL     OW 9011   5.601   0.999   9.265 -0.0803 -0.4373 -0.2998
 2446SOL    HW1 9012   5.525   0.994   9.323  0.4080  0.1151  0.4005
 2446SOL    HW2 9013   5.606   0.912   9.225 -2.1314  0.0173 -1.7344
 2447SOL     OW 9014   2.771   8.825   0.589  0.4698 -0.3762  0.1377
 2447SOL    HW1 9015   2.822   8.750   0.621  0.0933 -0.5285  0.3755
 2447SOL    HW2 9016   2.681   8.807   0.617  0.6087  0.8914  1.5265
 2448SOL     OW 9017   3.049   4.130   5.950 -0.0808  0.4175  0.7300
 2448SOL    HW1 9018   3.126   4.180   5.922  0.1495  0.3219  1.1878
 2448SOL    HW2 9019   3.052   4.133   6.045  0.1760 -0.8256  0.7745
 2449SOL     OW 9020   2.195   5.538   9.132 -0.3559  0.4946  0.0417
 2449SOL    HW1 9021   2.115   5.570   9.090 -0.0577  0.4845 -0.5329
 2449SOL    HW2 9022   2.211   5.453   9.093 -1.6311 -0.8215  2.1848
 2450SOL     OW 9023   2.834   3.605   5.214  0.2878 -0.4683 -0.6855
 2450SOL    HW1 9024   2.792   3.551   5.148  0.3498 -1.3346 -0.0391
 2450SOL    HW2 9025   2.792   3.691   5.205 -1.4157 -1.2079 -0.2781
 2451SOL     OW 9026   3.067   4.543   8.662  0.8566 -0.3496 -0.2897
 2451SOL    HW1 9027   3.018   4.538   8.580  0.1936 -1.5015  0.1576
 2451SOL    HW2 9028   3.146   4.492   8.645  2.1329  1.7257 -1.1013
 2452SOL     OW 9029   2.809   0.643   7.658  0.1244 -0.0837  0.5403
 2452SOL    HW1 9030   2.888   0.697   7.655  0.2911 -0.3376 -2.0356
 2452SOL    HW2 9031   2.741   0.696   7.617  0.0146 -1.3233 -0.9939
 2453SOL     OW 9032   9.081   3.151   8.553  0.3409  1.1765  0.4262
 2453SOL    HW1 9033   9.132   3.193   8.623  0.3140 -1.0114  1.8532
 2453SOL    HW2 9034   9.139   3.083   8.519 -1.2814 -0.9441  1.6579
 2454SOL     OW 9035   4.670   1.359   9.476  0.0864  0.0412  0.4245
 2454SOL    HW1 9036   4.673   1.267   9.450  1.0902  0.3136 -0.4968
 2454SOL    HW2 9037   4.599   1.396   9.424 -0.3957 -0.2240  0.8803
 2455SOL     OW 9038   1.878   1.479   4.524  0.5647 -0.5412  0.1777
 2455SOL    HW1 9039   1.959   1.492   4.573 -0.5285  0.4169  1.7911
 2455SOL    HW2 9040   1.869   1.384   4.518  1.9782 -0.6707 -0.3653
 2456SOL     OW 9041   5.631   1.803   8.329  0.1820  0.1100 -0.5991
 2456SOL    HW1 9042   5.707   1.861   8.323 -1.2820  2.9623  3.9703
 2456SOL    HW2 9043   5.662   1.729   8.382 -0.0918  1.3520  1.4078
 2457SOL     OW 9044   8.062   1.888   4.508 -0.2517 -0.1993  0.1098
 2457SOL    HW1 9045   8.149   1.852   4.490  1.1941  1.8417  2.3457
 2457SOL    HW2 9046   8.033   1.841   4.587  0.3963  1.3892  1.3556
 2458SOL     OW 9047   0.874   3.074   5.275 -0.4114 -0.6701 -0.3188
 2458SOL    HW1 9048   0.790   3.056   5.233 -1.2467  0.9842  0.5690
 2458SOL    HW2 9049   0.867   3.164   5.306  1.5915 -0.5951  0.0418
 2459SOL     OW 9050   1.941   5.004   4.465 -0.0136 -0.1812 -0.2518
 2459SOL    HW1 9051   2.008   5.005   4.397 -0.6832 -0.3222 -0.9190
 2459SOL    HW2 9052   1.919   4.912   4.476  2.1029 -0.5172  2.1913
 2460SOL     OW 9053   0.376   7.518   5.090 -0.0666 -0.2816  0.0252
 2460SOL    HW1 9054   0.393   7.445   5.149  1.5399 -0.3311 -0.4422
 2460SOL    HW2 9055   0.282   7.535   5.099  0.0492 -0.5169  2.3022
 2461SOL     OW 9056   1.377   4.197   7.494 -0.1975  0.1458 -0.4765
 2461SOL    HW1 9057   1.298   4.237   7.531  0.6511  0.8081  0.7000
 2461SOL    HW2 9058   1.360   4.192   7.400 -1.0696  1.6067 -0.4196
 2462SOL     OW 9059   6.018   1.613   5.641  0.3990  0.3382  0.5718
 2462SOL    HW1 9060   6.009   1.703   5.610  0.5278  0.2339  0.2285
 2462SOL    HW2 9061   6.112   1.597   5.640  0.3178 -0.1310 -0.3254
 2463SOL     OW 9062   3.066   3.606   1.629 -0.6316 -0.2022  0.0083
 2463SOL    HW1 9063   2.988   3.652   1.597  0.9262  1.3319 -1.8724
 2463SOL    HW2 9064   3.125   3.676   1.656  1.1704 -1.1275 -1.3067
 2464SOL     OW 9065   0.555   0.116   7.060  0.5347 -0.3611  0.1360
 2464SOL    HW1 9066   0.568   0.088   7.151  1.5441  1.0736  0.4726
 2464SOL    HW2 9067   0.641   0.104   7.019  0.1338 -0.8169 -0.5916
 2465SOL     OW 9068   0.686   3.131   3.753 -0.3924  0.4211 -0.1606
 2465SOL    HW1 9069   0.605   3.112   3.801 -0.0798  0.0922  0.2386
 2465SOL    HW2 9070   0.656   3.171   3.671 -0.9051  1.4819  0.5267
 2466SOL     OW 9071   6.242   5.230   0.073 -0.3684  0.0210 -0.1633
 2466SOL    HW1 9072   6.326   5.183   0.075 -0.0459  0.6086  0.5944
 2466SOL    HW2 9073   6.188   5.181   0.011  0.1248 -1.0616  0.2518
 2467SOL     OW 9074   7.956   5.626   2.935  0.1752  0.4880  0.7684
 2467SOL    HW1 9075   7.871   5.583   2.940  0.4388 -0.0058  1.2397
 2467SOL    HW2 9076   7.936   5.719   2.928 -0.4015  0.4107  1.2871
 2468SOL     OW 9077   5.230   9.533   2.540  0.1678  0.4791 -0.0110
 2468SOL    HW1 9078   5.254   9.441   2.529 -1.6208 -0.3671  2.2342
 2468SOL    HW2 9079   5.295   9.568   2.600  0.8992  0.7314 -0.9332
 2469SOL     OW 9080   5.959   6.381   8.880  0.8164  0.6169  0.3105
 2469SOL    HW1 9081   5.869   6.409   8.893  0.8371  0.4537  0.8286
 2469SOL    HW2 9082   5.954   6.315   8.810  0.6776  1.3596 -0.4019
 2470SOL     OW 9083   7.481   9.379   5.755  0.0646  0.0486 -0.0982
 2470SOL    HW1 9084   7.538   9.393   5.680  0.1880 -0.9754 -0.2062
 2470SOL    HW2 9085   7.524   9.310   5.806  0.1725  0.9756  1.1129
 2471SOL     OW 9086   2.362   8.608   1.949 -0.2961 -0.2471 -0.0345
 2471SOL    HW1 9087   2.332   8.696   1.930 -0.9608 -0.9270 -2.4615
 2471SOL    HW2 9088   2.446   8.620   1.994 -0.4737  1.5955 -0.1359
 2472SOL     OW 9089   0.391   0.612   0.629  0.2478  0.6381 -0.2377
 2472SOL    HW1 9090   0.365   0.587   0.717  1.1149 -0.8309 -0.3673
 2472SOL    HW2 9091   0.436   0.696   0.640  0.4402  0.4162  0.7181
 2473SOL     OW 9092   6.583   9.062   8.013 -0.1635  0.1528  0.6124
 2473SOL    HW1 9093   6.501   9.048   8.061  0.4338  2.5224  2.5617
 2473SOL    HW2 9094   6.565   9.137   7.956  0.1895 -0.3412 -0.1566
 2474SOL     OW 9095   3.219   4.631   2.205 -0.4146  0.9407  1.2112
 2474SOL    HW1 9096   3.229   4.633   2.300  1.8621 -1.4785  1.1356
 2474SOL    HW2 9097   3.295   4.679   2.172 -0.4903  0.6314  0.5823
 2475SOL     OW 9098   8.963   1.256   9.074 -0.0826 -0.1527  0.6346
 2475SOL    HW1 9099   8.976   1.171   9.116 -0.2697 -1.7385 -2.2502
 2475SOL    HW2 9100   9.049   1.280   9.040 -0.0066  0.9109  1.5292
 2476SOL     OW 9101   2.732   3.397   5.067 -0.0662  0.0967  0.6551
 2476SOL    HW1 9102   2.783   3.323   5.033 -1.0064 -1.3385  2.1872
 2476SOL    HW2 9103   2.708   3.448   4.989  2.9533  0.3933 -0.1873
 2477SOL     OW 9104   8.101   4.416   9.272  0.3269  0.3103 -0.1303
 2477SOL    HW1 9105   8.149   4.499   9.278 -0.2493  0.5460  1.6222
 2477SOL    HW2 9106   8.167   4.349   9.292  0.1118  0.5981  1.7081
 2478SOL     OW 9107   9.286   0.764   9.455 -0.4753  0.7091  0.5430
 2478SOL    HW1 9108   9.209   0.714   9.429 -0.0371  0.3123 -0.0059
 2478SOL    HW2 9109   9.289   0.755   9.550  0.5282 -1.7373  0.3616
 2479SOL     OW 9110   7.139   8.045   9.043  0.5048  0.7265  0.1673
 2479SOL    HW1 9111   7.181   7.960   9.036 -1.4357 -0.2380 -0.1885
 2479SOL    HW2 9112   7.079   8.036   9.117  0.7822  2.0266  0.5802
 2480SOL     OW 9113   8.003   8.691   9.200 -0.1121 -0.0720  1.0491
 2480SOL    HW1 9114   7.993   8.633   9.124  0.8187  2.2739 -1.0116
 2480SOL    HW2 9115   8.083   8.660   9.243  1.1160  0.3926 -0.7705
 2481SOL     OW 9116   7.503   8.993   2.684 -0.2669 -0.0699  0.1513
 2481SOL    HW1 9117   7.486   9.025   2.773 -0.1108  1.0577 -0.1970
 2481SOL    HW2 9118   7.510   9.073   2.632 -1.9141 -0.7369 -1.1787
 2482SOL     OW 9119   3.320   6.775   1.227  0.8693  0.1028  0.4112
 2482SOL    HW1 9120   3.249   6.834   1.250 -1.0223 -1.1720 -1.7266
 2482SOL    HW2 9121   3.396   6.832   1.214 -0.3927  1.8135  0.3055
 2483SOL     OW 9122   3.550   4.844   4.572  0.0430 -0.5552 -0.6516
 2483SOL    HW1 9123   3.599   4.922   4.599  0.8135 -1.2480  0.0056
 2483SOL    HW2 9124   3.495   4.874   4.499  0.2751  0.6119 -0.3654
 2484SOL     OW 9125   7.220   1.433   1.889 -0.4652  0.2209  0.1002
 2484SOL    HW1 9126   7.167   1.405   1.814 -0.2224  0.4682 -0.1710
 2484SOL    HW2 9127   7.303   1.385   1.878 -0.6003 -0.1064  0.4780
 2485SOL     OW 9128   8.241   7.203   5.598 -0.2756  0.1508 -0.1706
 2485SOL    HW1 9129   8.168   7.194   5.660  0.9558  0.4372  1.3795
 2485SOL    HW2 9130   8.233   7.127   5.541 -1.6660  0.0737  0.0764
 2486SOL     OW 9131   8.286   4.139   2.557 -0.0484 -0.1957  0.2126
 2486SOL    HW1 9132   8.246   4.109   2.475 -1.5951  1.6686  0.2334
 2486SOL    HW2 9133   8.219   4.124   2.624 -0.4074  2.0505  0.4219
 2487SOL     OW 9134   8.040   3.679   1.755 -0.2708  0.1384 -0.1296
 2487SOL    HW1 9135   7.946   3.663   1.749 -0.6486  1.6424  1.2059
 2487SOL    HW2 9136   8.071   3.674   1.665 -1.4529 -1.2670 -0.4961
 2488SOL     OW 9137   1.140   0.119   4.336  0.2117  0.1195  0.3827
 2488SOL    HW1 9138   1.208   0.155   4.281 -1.5907 -0.2487 -2.2615
 2488SOL    HW2 9139   1.165   0.027   4.348 -0.3909 -0.3639 -1.6810
 2489SOL     OW 9140   5.757   8.085   1.326  0.7822 -0.2612  0.0500
 2489SOL    HW1 9141   5.728   7.999   1.295 -0.8128  0.6281 -1.0589
 2489SOL    HW2 9142   5.844   8.095   1.289  1.1100 -1.5024  0.4288
 2490SOL     OW 9143   4.742   6.917   0.128 -0.2734 -0.0083  0.2115
 2490SOL    HW1 9144   4.741   6.867   0.046 -1.4494 -0.2509  0.3609
 2490SOL    HW2 9145   4.815   6.880   0.178  0.9583  0.6571 -1.0155
 2491SOL     OW 9146   4.745   4.256   7.333 -0.1707 -0.4262 -0.1113
 2491SOL    HW1 9147   4.735   4.225   7.424 -3.3440 -0.7301 -0.4590
 2491SOL    HW2 9148   4.661   4.237   7.292  1.2703 -0.5846 -3.2683
 2492SOL     OW 9149   6.946   1.249   6.462  0.3793  0.3001  0.0841
 2492SOL    HW1 9150   6.940   1.249   6.558  0.5314 -2.2768  0.1553
 2492SOL    HW2 9151   6.866   1.292   6.433 -0.7997 -0.9059  1.3762
 2493SOL     OW 9152   6.535   4.957   8.652 -0.6142 -0.0917  0.3022
 2493SOL    HW1 9153   6.500   5.045   8.659 -0.6124 -0.1490  1.2525
 2493SOL    HW2 9154   6.475   4.911   8.593 -0.0964  0.7802 -0.9292
 2494SOL     OW 9155   7.894   2.464   6.796  0.3449 -0.1743  0.6567
 2494SOL    HW1 9156   7.860   2.447   6.709  1.1781 -0.0533  0.2915
 2494SOL    HW2 9157   7.843   2.538   6.829 -0.0990 -0.3408  0.3498
 2495SOL     OW 9158   6.501   4.679   1.610 -0.2408 -0.6167  0.3467
 2495SOL    HW1 9159   6.481   4.586   1.620  0.8816 -1.0970 -1.3511
 2495SOL    HW2 9160   6.440   4.708   1.542  1.0372 -0.7547 -0.9041
 2496SOL     OW 9161   3.127   2.613   5.915 -0.2738 -0.0621  0.0795
 2496SOL    HW1 9162   3.052   2.607   5.974  0.9226  0.2142  1.6655
 2496SOL    HW2 9163   3.100   2.563   5.838 -2.1898  0.2625  0.4875
 2497SOL     OW 9164   2.937   8.214   3.261  0.3735  0.5459  0.0565
 2497SOL    HW1 9165   2.958   8.200   3.168 -1.3751 -1.3313 -0.1473
 2497SOL    HW2 9166   2.919   8.307   3.268 -1.0110  0.4950 -1.8984
 2498SOL     OW 9167   8.584   9.607   2.980  0.0041  0.3953  0.8234
 2498SOL    HW1 9168   8.577   9.515   3.006 -2.4244  0.1215 -0.4960
 2498SOL    HW2 9169   8.626   9.604   2.894 -1.1644  0.3587  0.2285
 2499SOL     OW 9170   0.602   7.274   0.356 -0.5509 -0.6343  0.0641
 2499SOL    HW1 9171   0.561   7.345   0.306  0.2303  0.3685  0.7932
 2499SOL    HW2 9172   0.643   7.218   0.290  0.4494  0.6527 -0.4448
 2500SOL     OW 9173   4.756   8.031   4.615  0.7175  0.0289  0.7044
 2500SOL    HW1 9174   4.774   7.941   4.589 -0.5128 -0.0133 -0.1360
 2500SOL    HW2 9175   4.750   8.079   4.532  0.2728  0.6512  1.0856
 2501SOL     OW 9176   6.322   6.298   4.267 -0.4053 -0.2228  0.0821
 2501SOL    HW1 9177   6.334   6.269   4.176 -0.5338  1.7392 -0.6110
 2501SOL    HW2 9178   6.409   6.287   4.306 -0.2474 -0.7173 -0.3856
 2502SOL     OW 9179   3.795   3.017   5.805 -0.1239  0.7863  0.0226
 2502SOL    HW1 9180   3.835   2.930   5.799 -1.5145  0.1345 -0.1794
 2502SOL    HW2 9181   3.814   3.046   5.895 -0.1608  0.0130  0.2858
 2503SOL     OW 9182   3.620   4.156   9.367  0.1168  0.0189 -0.1321
 2503SOL    HW1 9183   3.525   4.146   9.370  0.2509 -1.5576  2.6313
 2503SOL    HW2 9184   3.645   4.114   9.284 -1.5888  1.1263 -1.2809
 2504SOL     OW 9185   6.303   5.088   8.768  0.1891 -0.1239 -0.5874
 2504SOL    HW1 9186   6.300   5.178   8.735  0.7561 -0.7390 -2.4081
 2504SOL    HW2 9187   6.213   5.056   8.761  0.0825  0.1263 -0.3932
 2505SOL     OW 9188   3.551   4.996   1.433 -0.3639 -0.2710  0.4513
 2505SOL    HW1 9189   3.584   5.080   1.403 -0.1013 -1.1671 -1.9761
 2505SOL    HW2 9190   3.495   4.965   1.362 -1.1594 -1.7800  1.6587
 2506SOL     OW 9191   7.740   8.587   4.339 -0.2703  0.2396  0.1615
 2506SOL    HW1 9192   7.762   8.680   4.344 -1.8885  0.8034 -2.0351
 2506SOL    HW2 9193   7.645   8.584   4.346 -0.2224 -1.3049  0.5195
 2507SOL     OW 9194   5.940   2.988   8.804  0.3820  0.0321  0.3544
 2507SOL    HW1 9195   5.929   2.914   8.745 -1.9842  0.2002  0.4901
 2507SOL    HW2 9196   5.971   3.059   8.748  1.9408 -0.8260  0.0880
 2508SOL     OW 9197   4.939   7.449   1.143  0.3025  0.3144 -0.7290
 2508SOL    HW1 9198   4.857   7.430   1.189  1.7634 -1.9399  1.0997
 2508SOL    HW2 9199   4.971   7.364   1.114  3.0532  0.8259  0.4974
 2509SOL     OW 9200   7.854   2.571   1.971  0.3642  0.4768 -0.5341
 2509SOL    HW1 9201   7.869   2.583   1.877  1.9858 -0.6439 -0.4712
 2509SOL    HW2 9202   7.930   2.611   2.013  0.6860 -0.7846  0.1680
 2510SOL     OW 9203   1.348   9.613   0.653  0.1372  0.0352 -0.3230
 2510SOL    HW1 9204   1.359   9.705   0.632 -1.0771  0.4649  0.7951
 2510SOL    HW2 9205   1.257   9.606   0.683  0.6153 -1.2554  0.9397
 2511SOL     OW 9206   0.009   8.909   3.620  0.3707  0.2009  0.1551
 2511SOL    HW1 9207   0.102   8.887   3.610  0.3875  0.5150 -0.3978
 2511SOL    HW2 9208  -0.037   8.827   3.601  0.4884  0.3274 -0.7122
 2512SOL     OW 9209   2.174   0.832   4.416  0.0705  0.0975 -0.6621
 2512SOL    HW1 9210   2.205   0.877   4.338 -1.3076  1.6742 -0.3546
 2512SOL    HW2 9211   2.092   0.876   4.439  1.5651  1.3742  3.0457
 2513SOL     OW 9212   3.159   1.113   0.432 -0.5248  0.8541  0.7623
 2513SOL    HW1 9213   3.239   1.088   0.477 -0.2249  1.2156  0.4299
 2513SOL    HW2 9214   3.181   1.194   0.387 -0.5869  0.1015 -0.6612
 2514SOL     OW 9215   4.493   9.023   5.202  0.1460  0.0108  0.6671
 2514SOL    HW1 9216   4.454   9.082   5.137 -0.9622 -1.2925  0.0940
 2514SOL    HW2 9217   4.586   9.044   5.200  0.0757  0.3162 -1.0251
 2515SOL     OW 9218   2.306   8.106   8.664  0.2000 -0.0694 -0.6288
 2515SOL    HW1 9219   2.271   8.076   8.748 -0.9151 -0.7205 -1.2907
 2515SOL    HW2 9220   2.253   8.183   8.642  0.8063  0.3867 -0.5218
 2516SOL     OW 9221   7.017   3.580   1.716  0.4842 -0.3067 -0.6056
 2516SOL    HW1 9222   6.980   3.579   1.627 -0.9481 -1.2827 -0.0491
 2516SOL    HW2 9223   6.941   3.565   1.773  1.5772 -1.1097  0.6974
 2517SOL     OW 9224   3.802   1.153   5.789  0.2827  0.1889  0.7604
 2517SOL    HW1 9225   3.707   1.145   5.783  0.2474  1.5948 -0.9814
 2517SOL    HW2 9226   3.836   1.088   5.728  0.2565  2.8372 -2.3438
 2518SOL     OW 9227   7.175   1.305   3.049  0.3980 -0.3855 -0.0442
 2518SOL    HW1 9228   7.188   1.218   3.013 -0.4951 -0.0496 -1.2396
 2518SOL    HW2 9229   7.105   1.295   3.113 -1.0231 -0.2515 -1.5189
 2519SOL     OW 9230   6.584   6.497   7.413 -0.4466 -0.3548 -0.1165
 2519SOL    HW1 9231   6.591   6.457   7.327 -0.9121  1.7972 -1.2196
 2519SOL    HW2 9232   6.671   6.535   7.429 -0.6013 -0.0258 -0.0376
 2520SOL     OW 9233   2.789   2.095   6.674  0.0844  0.3805  0.1249
 2520SOL    HW1 9234   2.755   2.007   6.690  0.2045  0.6945  2.4759
 2520SOL    HW2 9235   2.768   2.112   6.582  0.1269 -2.1021 -0.4372
 2521SOL     OW 9236   1.597   4.259   3.092  0.1400 -0.1173 -0.4116
 2521SOL    HW1 9237   1.578   4.258   2.999 -0.3425 -0.2677 -0.3174
 2521SOL    HW2 9238   1.542   4.329   3.127  1.1933  0.7331 -0.4090
 2522SOL     OW 9239   3.236   5.112   7.400 -0.0957 -0.1511  0.4329
 2522SOL    HW1 9240   3.295   5.038   7.387  0.2224  0.0268  0.8318
 2522SOL    HW2 9241   3.219   5.145   7.312  2.5728  1.4722  0.4205
 2523SOL     OW 9242   3.808   3.477   6.019  0.3476 -0.5717  0.0192
 2523SOL    HW1 9243   3.880   3.503   5.961 -0.3391 -0.3908 -0.7776
 2523SOL    HW2 9244   3.770   3.400   5.976  0.2534 -0.8513  0.5943
 2524SOL     OW 9245   3.310   1.354   9.216 -0.4631 -0.0525 -0.2204
 2524SOL    HW1 9246   3.388   1.377   9.267  0.0843 -0.3047 -0.9319
 2524SOL    HW2 9247   3.326   1.392   9.130 -1.5243  0.6343 -0.1251
 2525SOL     OW 9248   0.270   0.774   1.189  0.7088 -0.4033  0.3621
 2525SOL    HW1 9249   0.281   0.733   1.103  0.9560  0.2647  0.0709
 2525SOL    HW2 9250   0.250   0.865   1.170 -3.7694 -1.0531  0.8788
 2526SOL     OW 9251   4.519   8.965   8.277 -0.3986  0.2748 -0.2454
 2526SOL    HW1 9252   4.605   9.000   8.255  0.6231  0.3289  3.1903
 2526SOL    HW2 9253   4.479   9.033   8.332 -1.0020 -1.2899  1.3538
 2527SOL     OW 9254   0.901   4.583   4.356 -0.4218  0.6576  0.1345
 2527SOL    HW1 9255   0.856   4.580   4.272 -0.1160  1.1173 -0.0494
 2527SOL    HW2 9256   0.877   4.668   4.393 -1.3339  0.0606  0.9531
 2528SOL     OW 9257   0.621   3.955   8.273  0.4450 -0.3480  0.2111
 2528SOL    HW1 9258   0.673   3.883   8.238 -2.5303 -2.0638 -1.1159
 2528SOL    HW2 9259   0.596   4.006   8.197 -0.1909  0.1417  0.7344
 2529SOL     OW 9260   3.200   5.684   7.114  0.4491  0.2337 -0.6110
 2529SOL    HW1 9261   3.185   5.732   7.195 -1.3557  0.3163 -0.9525
 2529SOL    HW2 9262   3.167   5.742   7.045  1.1906 -0.1785 -1.3347
 2530SOL     OW 9263   8.224   1.299   1.018 -0.5155 -0.4563 -0.4994
 2530SOL    HW1 9264   8.232   1.288   1.113 -0.4070  0.1644 -0.4309
 2530SOL    HW2 9265   8.149   1.245   0.994 -0.0808 -1.2375 -0.1801
 2531SOL     OW 9266   8.603   4.008   0.858 -0.0060  0.1318  0.0482
 2531SOL    HW1 9267   8.592   3.939   0.924 -0.4263  0.5429  0.4180
 2531SOL    HW2 9268   8.614   3.961   0.775 -0.8180 -0.3680  0.2176
 2532SOL     OW 9269   8.133   7.287   2.066 -0.1732  0.1218  0.1239
 2532SOL    HW1 9270   8.192   7.312   1.995 -0.8185 -1.5432 -1.0652
 2532SOL    HW2 9271   8.083   7.367   2.084 -0.3889  0.4389 -1.6913
 2533SOL     OW 9272   5.232   1.770   8.074 -0.4693  0.1371 -0.0371
 2533SOL    HW1 9273   5.287   1.703   8.033 -0.9951 -1.2166  1.3683
 2533SOL    HW2 9274   5.285   1.804   8.146 -0.5793  0.5448 -0.1455
 2534SOL     OW 9275   8.425   9.422   6.157 -0.1349  0.3184 -0.4844
 2534SOL    HW1 9276   8.467   9.338   6.173  0.3453  0.5582 -0.4745
 2534SOL    HW2 9277   8.332   9.402   6.153 -0.1510 -0.0016  0.9721
 2535SOL     OW 9278   6.432   1.948   8.637 -0.1340 -0.2710 -0.1637
 2535SOL    HW1 9279   6.364   1.944   8.703 -0.7624 -1.2724 -0.8417
 2535SOL    HW2 9280   6.513   1.962   8.686 -0.6632 -0.3724  0.7531
 2536SOL     OW 9281   1.550   6.321   4.307  0.2730  0.2509 -0.1404
 2536SOL    HW1 9282   1.607   6.398   4.307  0.7522 -0.0918 -0.4920
 2536SOL    HW2 9283   1.478   6.343   4.249  0.4373  0.4135 -0.2818
 2537SOL     OW 9284   2.503   2.756   4.117 -0.0829  0.0446  0.6990
 2537SOL    HW1 9285   2.522   2.709   4.036 -0.5362 -0.2268  0.7487
 2537SOL    HW2 9286   2.484   2.845   4.089 -1.2793 -0.2854  0.3869
 2538SOL     OW 9287   3.517   3.529   1.054 -0.6386 -0.1255  0.4076
 2538SOL    HW1 9288   3.601   3.568   1.077 -0.3803 -0.9750  0.9300
 2538SOL    HW2 9289   3.454   3.600   1.068 -0.0731  0.3772  0.4711
 2539SOL     OW 9290   3.582   2.601   3.494  0.8922 -0.0031  0.6134
 2539SOL    HW1 9291   3.611   2.562   3.412  0.7814  0.0474  0.5511
 2539SOL    HW2 9292   3.637   2.559   3.561  0.9287 -0.1000  0.5224
 2540SOL     OW 9293   5.964   2.751   6.998  0.0684  0.0690 -0.5992
 2540SOL    HW1 9294   6.012   2.675   7.031 -0.0311 -0.2245 -1.1335
 2540SOL    HW2 9295   6.033   2.814   6.976  0.1216  0.5265  0.7596
 2541SOL     OW 9296   2.783   8.089   1.581  0.5009 -0.2654 -0.2137
 2541SOL    HW1 9297   2.803   8.002   1.548  0.0350 -0.5061  0.1364
 2541SOL    HW2 9298   2.855   8.109   1.640  0.1692 -0.7702  0.3681
 2542SOL     OW 9299   4.280   1.888   1.622  0.2946  0.0114 -0.5866
 2542SOL    HW1 9300   4.194   1.859   1.593  0.5068  0.4570 -1.7048
 2542SOL    HW2 9301   4.282   1.867   1.716 -0.8614 -0.3813 -0.6338
 2543SOL     OW 9302   4.039   5.063   5.203 -0.1239 -0.4571 -0.5166
 2543SOL    HW1 9303   4.024   4.969   5.217 -1.7758 -0.4524 -1.8589
 2543SOL    HW2 9304   3.953   5.102   5.216  0.0621  0.5655 -2.1550
 2544SOL     OW 9305   2.505   0.318   2.204 -0.3221  0.0449 -0.2002
 2544SOL    HW1 9306   2.482   0.286   2.116 -0.2344  0.0827 -0.2369
 2544SOL    HW2 9307   2.579   0.377   2.189  0.5552 -0.9558  0.0352
 2545SOL     OW 9308   6.219   6.589   5.610 -0.6044 -0.0984  0.3638
 2545SOL    HW1 9309   6.202   6.499   5.580 -0.5227 -0.1043  0.3350
 2545SOL    HW2 9310   6.313   6.601   5.596 -0.8862  0.5754 -1.2514
 2546SOL     OW 9311   3.643   3.802   2.336  0.3318  0.7300 -0.4886
 2546SOL    HW1 9312   3.700   3.770   2.266 -1.7566 -1.6118 -1.2822
 2546SOL    HW2 9313   3.554   3.789   2.302 -0.7273  2.5743  1.3704
 2547SOL     OW 9314   9.367   6.922   5.211 -0.6770  0.5405  0.2141
 2547SOL    HW1 9315   9.367   6.993   5.146 -1.1099 -0.7783 -1.3092
 2547SOL    HW2 9316   9.459   6.896   5.218 -0.5205  1.2222  0.7601
 2548SOL     OW 9317   9.624   5.837   5.892 -0.1605 -0.5900  0.0340
 2548SOL    HW1 9318   9.644   5.756   5.938 -1.4664 -1.4578 -0.8787
 2548SOL    HW2 9319   9.565   5.811   5.821  0.6794  0.9035 -1.2941
 2549SOL     OW 9320   1.787   3.215   1.550  0.3714 -0.6550  0.3064
 2549SOL    HW1 9321   1.759   3.132   1.511  0.3345 -0.2070 -0.6577
 2549SOL    HW2 9322   1.706   3.266   1.558  0.6108 -0.0556 -0.7762
 2550SOL     OW 9323   1.819   3.141   3.684  0.3751  0.0236  0.3895
 2550SOL    HW1 9324   1.794   3.232   3.668 -0.4348 -0.3407 -0.5208
 2550SOL    HW2 9325   1.757   3.089   3.632  0.2968 -1.0823  1.5172
 2551SOL     OW 9326   4.677   9.022   4.014 -0.0496 -0.4132  0.0964
 2551SOL    HW1 9327   4.619   9.041   4.087 -0.2846  1.7101 -0.5759
 2551SOL    HW2 9328   4.699   8.929   4.024 -0.6600 -0.3697  2.4116
 2552SOL     OW 9329   7.501   0.597   2.839 -0.1649 -0.2276  0.1484
 2552SOL    HW1 9330   7.419   0.568   2.876  0.1836  1.7914  2.8179
 2552SOL    HW2 9331   7.567   0.576   2.905  1.5432 -1.7767 -1.8987
 2553SOL     OW 9332   0.237   4.959   5.880  0.4705  0.0928  0.2984
 2553SOL    HW1 9333   0.150   4.919   5.886  0.0966  0.8543 -0.0313
 2553SOL    HW2 9334   0.223   5.051   5.903  0.6720  0.9161 -2.5437
 2554SOL     OW 9335   0.723   3.318   9.112 -0.2336 -0.3320 -0.0558
 2554SOL    HW1 9336   0.812   3.291   9.090 -0.1343  0.6448 -0.9557
 2554SOL    HW2 9337   0.694   3.255   9.178  1.5618  0.0542  1.1809
 2555SOL     OW 9338   1.536   2.888   4.595  0.0839  0.0048 -0.4977
 2555SOL    HW1 9339   1.602   2.824   4.620  0.8485  0.8304 -0.3335
 2555SOL    HW2 9340   1.477   2.841   4.536  0.7572 -0.7748 -0.5640
 2556SOL     OW 9341   8.525   2.695   9.152  0.1893 -0.2812  0.5114
 2556SOL    HW1 9342   8.603   2.661   9.196 -0.2698 -0.1363  1.4854
 2556SOL    HW2 9343   8.538   2.790   9.152  0.7739 -0.3388 -0.8464
 2557SOL     OW 9344   6.478   5.495   6.048  0.2647  1.0076  0.0257
 2557SOL    HW1 9345   6.464   5.407   6.082 -0.1897  0.4882 -1.4499
 2557SOL    HW2 9346   6.493   5.549   6.126 -0.8400 -0.1063  1.0389
 2558SOL     OW 9347   3.308   3.297   2.403  0.1193  0.5022 -0.1065
 2558SOL    HW1 9348   3.229   3.351   2.404  0.2933  0.7727 -0.5968
 2558SOL    HW2 9349   3.293   3.231   2.470 -0.2045  1.0039  0.3208
 2559SOL     OW 9350   0.933   2.975   8.979 -0.3556 -0.5026 -0.5948
 2559SOL    HW1 9351   1.000   3.041   8.998  0.5427 -1.3978 -0.5933
 2559SOL    HW2 9352   0.946   2.907   9.044 -2.6653  0.2496  0.7858
 2560SOL     OW 9353   8.611   5.450   7.764 -0.2825  0.1310 -0.0859
 2560SOL    HW1 9354   8.678   5.477   7.701 -0.1178  1.1105  0.4921
 2560SOL    HW2 9355   8.644   5.367   7.799 -0.5703 -0.6432 -1.5480
 2561SOL     OW 9356   7.275   1.714   2.488 -0.5981 -0.2243 -0.1772
 2561SOL    HW1 9357   7.294   1.625   2.457  0.0613 -0.6432  1.3099
 2561SOL    HW2 9358   7.357   1.761   2.476 -0.7703  0.0189 -0.4035
 2562SOL     OW 9359   1.106   4.225   0.966 -0.1946 -0.5846  0.2907
 2562SOL    HW1 9360   1.064   4.194   0.886  0.3577  0.2327 -0.3398
 2562SOL    HW2 9361   1.163   4.153   0.994 -0.1465 -0.7553 -0.2411
 2563SOL     OW 9362   2.197   7.963   5.806 -0.5087 -0.3712  0.0977
 2563SOL    HW1 9363   2.135   7.930   5.872 -1.1103  1.1136  0.3361
 2563SOL    HW2 9364   2.190   8.058   5.814  2.2143 -0.1280  0.4954
 2564SOL     OW 9365   1.459   6.633   4.201 -0.2575 -0.6315 -0.3360
 2564SOL    HW1 9366   1.405   6.575   4.147  0.3195 -0.4034 -1.1778
 2564SOL    HW2 9367   1.545   6.632   4.159 -0.1770  0.6562 -0.2553
 2565SOL     OW 9368   1.373   5.705   1.754 -0.4809  0.1081 -0.3181
 2565SOL    HW1 9369   1.342   5.747   1.674 -0.3980 -0.9750 -0.9382
 2565SOL    HW2 9370   1.329   5.620   1.755 -1.0387  0.3859  1.1633
 2566SOL     OW 9371   1.210   6.463   3.404 -0.1746  0.5500 -0.1573
 2566SOL    HW1 9372   1.209   6.461   3.308 -0.0042  1.0561 -0.1682
 2566SOL    HW2 9373   1.215   6.370   3.429 -0.3814  0.4050 -0.6321
 2567SOL     OW 9374   9.178   9.156   4.853  0.4265  0.1272  0.6914
 2567SOL    HW1 9375   9.189   9.251   4.844  0.3719  0.1317  0.6747
 2567SOL    HW2 9376   9.261   9.120   4.822 -0.7885 -0.0014 -2.8503
 2568SOL     OW 9377   6.704   2.431   2.697 -0.3288 -0.2903 -0.0637
 2568SOL    HW1 9378   6.661   2.364   2.751  0.4798 -0.0693  0.8988
 2568SOL    HW2 9379   6.793   2.397   2.685 -0.9561 -1.2330 -2.8632
 2569SOL     OW 9380   7.984   2.814   9.270  0.0708 -0.0565  0.3653
 2569SOL    HW1 9381   8.067   2.780   9.238 -1.2029 -1.9984 -1.1100
 2569SOL    HW2 9382   8.004   2.846   9.358  2.6037  0.7021 -0.3940
 2570SOL     OW 9383   7.123   8.371   1.388  0.1073  0.4785  0.0289
 2570SOL    HW1 9384   7.047   8.363   1.330 -1.1527  1.2828  1.4749
 2570SOL    HW2 9385   7.129   8.285   1.430  2.5798 -0.9949 -2.9547
 2571SOL     OW 9386   7.490   6.280   6.279  0.5782 -0.3710 -0.1716
 2571SOL    HW1 9387   7.477   6.329   6.360 -0.3534 -0.4506 -0.2588
 2571SOL    HW2 9388   7.519   6.193   6.307 -0.6867 -0.7153  0.1457
 2572SOL     OW 9389   9.260   4.507   4.356  0.0611 -0.0425 -0.4101
 2572SOL    HW1 9390   9.333   4.445   4.346 -1.4736 -2.0535  0.1105
 2572SOL    HW2 9391   9.254   4.550   4.271  1.0114 -0.8224 -0.9037
 2573SOL     OW 9392   1.161   8.221   5.314  0.2464 -0.2281 -0.1708
 2573SOL    HW1 9393   1.160   8.310   5.349  1.4090 -0.6897  1.1341
 2573SOL    HW2 9394   1.071   8.190   5.326 -0.3326  0.9519 -1.2170
 2574SOL     OW 9395   1.846   6.789   7.647 -0.1228 -0.1789  0.2989
 2574SOL    HW1 9396   1.852   6.822   7.558  2.8946 -0.6129  0.2283
 2574SOL    HW2 9397   1.883   6.701   7.643  0.5435 -0.0248  2.0350
 2575SOL     OW 9398   5.243   9.646   7.435  1.0006  0.3057 -0.0389
 2575SOL    HW1 9399   5.338   9.651   7.441  1.2350 -2.0097 -0.8211
 2575SOL    HW2 9400   5.225   9.628   7.343 -0.0976 -0.6585  0.3429
 2576SOL     OW 9401   7.011   0.960   6.637  0.2723  0.1761  0.4497
 2576SOL    HW1 9402   7.022   1.053   6.655 -0.6817  0.3713  0.0938
 2576SOL    HW2 9403   6.998   0.921   6.724  0.8176  0.3492  0.6120
 2577SOL     OW 9404   7.091   3.197   5.931  0.5228 -0.2736  0.3083
 2577SOL    HW1 9405   7.111   3.241   6.014 -1.6433  0.7636  0.3549
 2577SOL    HW2 9406   7.089   3.267   5.866  1.2571 -0.9503 -0.4820
 2578SOL     OW 9407   7.201   9.086   5.591 -0.0675 -0.5473  0.0814
 2578SOL    HW1 9408   7.203   9.069   5.685  1.2926 -2.7404 -0.2713
 2578SOL    HW2 9409   7.265   9.157   5.578 -0.2663 -0.2299  0.7990
 2579SOL     OW 9410   7.097   0.124   7.832 -0.3546  0.4976 -0.3543
 2579SOL    HW1 9411   7.062   0.169   7.755 -1.0466  0.9875  0.2343
 2579SOL    HW2 9412   7.034   0.143   7.901  1.7840  2.5672  1.1385
 2580SOL     OW 9413   4.469   1.123   7.353 -0.1863 -0.4371  0.2478
 2580SOL    HW1 9414   4.379   1.119   7.320 -0.4861 -0.3518  1.0436
 2580SOL    HW2 9415   4.511   1.191   7.300 -0.0232 -1.7833 -1.4580
 2581SOL     OW 9416   2.608   4.592   6.194 -0.7875  0.0121 -0.0471
 2581SOL    HW1 9417   2.529   4.606   6.142 -0.2713 -1.0642 -1.1942
 2581SOL    HW2 9418   2.603   4.501   6.221 -0.0155 -0.0218 -0.0016
 2582SOL     OW 9419   2.437   6.680   4.679  0.1332 -0.0381 -0.1370
 2582SOL    HW1 9420   2.395   6.709   4.760 -0.7640 -3.4388  0.7738
 2582SOL    HW2 9421   2.528   6.707   4.688 -0.3383  1.2473  1.1337
 2583SOL     OW 9422   9.591   7.355   0.314 -0.1349 -0.3182  0.3530
 2583SOL    HW1 9423   9.643   7.279   0.289  0.2012 -1.1127  3.0805
 2583SOL    HW2 9424   9.645   7.400   0.379  0.6705  3.6290 -2.6698
 2584SOL     OW 9425   3.593   9.368   8.944  0.1223 -0.9358  0.0859
 2584SOL    HW1 9426   3.504   9.334   8.947  0.5186 -1.9369  0.9934
 2584SOL    HW2 9427   3.649   9.291   8.952  1.0505 -0.1611  1.6322
 2585SOL     OW 9428   4.522   4.487   8.814  0.5899  0.1964  0.2169
 2585SOL    HW1 9429   4.453   4.453   8.757  0.7154  1.1605 -0.5577
 2585SOL    HW2 9430   4.510   4.442   8.897  1.4234 -2.5156 -1.0354
 2586SOL     OW 9431   1.604   0.074   6.197 -0.2124  0.1326  0.7184
 2586SOL    HW1 9432   1.575   0.151   6.148  1.4151  0.7397  0.6476
 2586SOL    HW2 9433   1.525   0.020   6.206 -0.9568  0.8719 -0.9404
 2587SOL     OW 9434   7.437   5.441   0.824  0.1787 -0.0459  0.7010
 2587SOL    HW1 9435   7.370   5.503   0.796  0.7655 -0.0738 -0.9081
 2587SOL    HW2 9436   7.406   5.408   0.908 -2.4808 -0.9515 -0.4981
 2588SOL     OW 9437   1.404   5.127   6.981  0.7091 -0.4637 -0.4346
 2588SOL    HW1 9438   1.464   5.083   7.041  1.2043  1.3896  0.5229
 2588SOL    HW2 9439   1.459   5.154   6.908  1.0113  0.8191  0.2236
 2589SOL     OW 9440   1.958   4.501   8.534 -0.0362 -0.1618  0.4362
 2589SOL    HW1 9441   1.927   4.524   8.446 -1.2079 -2.0604  0.2887
 2589SOL    HW2 9442   2.053   4.495   8.526 -0.0175  1.0167 -0.3517
 2590SOL     OW 9443   8.933   8.918   3.664 -0.1671  0.4869 -0.2193
 2590SOL    HW1 9444   9.012   8.970   3.653  0.4978 -0.4382  0.1080
 2590SOL    HW2 9445   8.945   8.842   3.607 -0.5483  0.0383  0.2757
 2591SOL     OW 9446   0.175   3.610   2.619  0.6239 -0.1540 -0.1715
 2591SOL    HW1 9447   0.098   3.662   2.641 -0.6885 -2.4394  0.9821
 2591SOL    HW2 9448   0.249   3.665   2.642 -0.6918  1.0805  1.3022
 2592SOL     OW 9449   0.750   8.502   6.502  0.6371  0.2389 -0.0765
 2592SOL    HW1 9450   0.820   8.449   6.465  1.5302  2.2813 -1.5062
 2592SOL    HW2 9451   0.790   8.547   6.576  0.9896  1.6360 -1.0722
 2593SOL     OW 9452   4.322   5.342   9.509 -0.3273 -0.0270 -0.2237
 2593SOL    HW1 9453   4.281   5.428   9.518  2.3602  1.1476  2.2315
 2593SOL    HW2 9454   4.325   5.327   9.414 -2.0289  1.9345 -0.6742
 2594SOL     OW 9455   4.636   2.006   1.471 -0.2154 -0.1642 -0.2791
 2594SOL    HW1 9456   4.660   2.098   1.483 -0.7045 -0.1006  0.2647
 2594SOL    HW2 9457   4.587   2.004   1.389 -0.6164  0.1538 -0.0567
 2595SOL     OW 9458   8.680   5.891   7.625  0.2523 -0.6698 -0.3577
 2595SOL    HW1 9459   8.661   5.983   7.604 -0.7503 -0.7729  0.0523
 2595SOL    HW2 9460   8.759   5.894   7.679  1.2593 -0.1903 -1.7942
 2596SOL     OW 9461   0.672   8.135   6.606  0.1848  0.4285  0.0369
 2596SOL    HW1 9462   0.651   8.123   6.514 -2.4687 -2.1693  0.8075
 2596SOL    HW2 9463   0.605   8.196   6.638 -0.2744 -0.3662  0.6317
 2597SOL     OW 9464   3.580   4.013   8.861 -0.2929 -0.7740  0.0524
 2597SOL    HW1 9465   3.675   4.003   8.860 -0.1609  0.3571 -0.2284
 2597SOL    HW2 9466   3.555   4.004   8.769 -0.4102 -0.6699  0.0750
 2598SOL     OW 9467   6.106   6.063   3.952 -0.2014  0.5224 -0.3301
 2598SOL    HW1 9468   6.099   6.109   3.869  0.4609  1.1842 -0.0353
 2598SOL    HW2 9469   6.158   5.985   3.932 -0.1476  0.6186 -0.5641
 2599SOL     OW 9470   8.093   1.359   9.087  0.0101 -0.5648  0.3373
 2599SOL    HW1 9471   8.142   1.295   9.036  1.6628  1.4843 -0.8283
 2599SOL    HW2 9472   8.137   1.363   9.171 -0.9976 -1.9382  0.9649
 2600SOL     OW 9473   2.363   4.809   5.211  0.4409  0.4660  0.1457
 2600SOL    HW1 9474   2.456   4.824   5.230  0.5200  0.9606 -0.6253
 2600SOL    HW2 9475   2.333   4.890   5.171 -0.2474  0.1886  0.0926
 2601SOL     OW 9476   8.603   1.767   4.085  0.1127 -0.2439 -0.1775
 2601SOL    HW1 9477   8.569   1.689   4.040 -0.6138  0.1513 -0.3225
 2601SOL    HW2 9478   8.571   1.841   4.033  0.4650  0.1672  0.1858
 2602SOL     OW 9479   2.526   5.661   2.746  0.1047  0.1675  0.0079
 2602SOL    HW1 9480   2.518   5.756   2.752 -0.3560  0.1952 -0.9199
 2602SOL    HW2 9481   2.491   5.629   2.828  0.3381  0.8026  0.3640
 2603SOL     OW 9482   7.441   3.733   2.761  0.3777 -0.3335 -0.0471
 2603SOL    HW1 9483   7.455   3.646   2.797 -0.5355 -0.3114  0.3918
 2603SOL    HW2 9484   7.371   3.770   2.815  0.0844  0.3014 -0.8476
 2604SOL     OW 9485   2.555   3.872   2.465 -0.0302 -0.0686  0.2278
 2604SOL    HW1 9486   2.645   3.881   2.432  0.2359 -0.7217  0.7635
 2604SOL    HW2 9487   2.503   3.856   2.387  0.6072 -1.6833  0.1006
 2605SOL     OW 9488   7.718   1.744   5.098 -0.3590  0.0061 -0.0738
 2605SOL    HW1 9489   7.658   1.697   5.040 -0.0817 -1.7121  1.0001
 2605SOL    HW2 9490   7.797   1.758   5.045 -0.9517  0.5233 -0.8406
 2606SOL     OW 9491   1.985   8.031   0.898 -0.1299 -0.9762 -0.2067
 2606SOL    HW1 9492   1.927   7.966   0.938  0.8972 -0.8918  1.5171
 2606SOL    HW2 9493   1.931   8.109   0.887 -1.1270 -1.7948 -1.4656
 2607SOL     OW 9494   5.250   4.850   5.573 -0.1353  0.4215  0.3310
 2607SOL    HW1 9495   5.192   4.800   5.515  0.1527 -1.6312  1.7029
 2607SOL    HW2 9496   5.196   4.869   5.650 -0.0707  1.8506  0.0571
 2608SOL     OW 9497   0.317   3.870   8.185 -0.1934  0.5110  0.0824
 2608SOL    HW1 9498   0.304   3.959   8.217  0.1641  0.1675  1.2577
 2608SOL    HW2 9499   0.228   3.837   8.171 -0.3350  0.9743 -0.1306
 2609SOL     OW 9500   2.111   3.031   6.904  0.0739 -0.0773  0.9850
 2609SOL    HW1 9501   2.089   2.938   6.897  2.1682 -0.5178 -0.8110
 2609SOL    HW2 9502   2.120   3.046   6.998  0.7796 -1.9901  1.2729
 2610SOL     OW 9503   0.070   5.963   6.933  0.6541 -0.2188 -0.5074
 2610SOL    HW1 9504  -0.000   6.023   6.957  2.1419  1.1420  0.6244
 2610SOL    HW2 9505   0.043   5.878   6.968 -1.0766 -0.0653 -1.3722
 2611SOL     OW 9506   2.208   8.758   9.215  0.0579 -0.4940 -0.1916
 2611SOL    HW1 9507   2.299   8.762   9.188  0.0700  1.0314 -0.0347
 2611SOL    HW2 9508   2.197   8.671   9.253  1.1199 -1.1387 -1.3082
 2612SOL     OW 9509   5.027   7.955   3.536 -0.4226 -0.5698  0.4445
 2612SOL    HW1 9510   4.935   7.978   3.529 -0.4373  0.0735  2.4019
 2612SOL    HW2 9511   5.054   7.941   3.445 -2.1521  0.3396 -0.2648
 2613SOL     OW 9512   2.459   8.743   0.417 -0.2625  0.1473 -0.0675
 2613SOL    HW1 9513   2.489   8.820   0.369  1.7394 -0.3026  0.3647
 2613SOL    HW2 9514   2.435   8.776   0.504  1.6372  0.1873  0.4858
 2614SOL     OW 9515   2.577   9.396   0.960  0.8495 -0.1792 -0.1563
 2614SOL    HW1 9516   2.599   9.316   1.008  2.2079  0.1032 -0.2596
 2614SOL    HW2 9517   2.630   9.391   0.880  0.4908  0.5355 -0.4492
 2615SOL     OW 9518   1.402   2.968   4.836 -0.0720 -0.4578 -0.0208
 2615SOL    HW1 9519   1.494   2.967   4.861  0.0782 -0.9731 -0.5769
 2615SOL    HW2 9520   1.402   2.940   4.744 -0.6848  0.5093 -0.3324
 2616SOL     OW 9521   8.242   8.922   5.429  0.3152  0.0604  0.3450
 2616SOL    HW1 9522   8.170   8.910   5.368  0.5379  1.5052 -0.2388
 2616SOL    HW2 9523   8.313   8.959   5.376  0.3100  1.9363  1.5445
 2617SOL     OW 9524   6.329   0.414   3.197  0.1402  0.7988  0.6900
 2617SOL    HW1 9525   6.420   0.384   3.189  0.6277  2.3400  0.1601
 2617SOL    HW2 9526   6.329   0.502   3.160 -1.6177  0.7693  0.5322
 2618SOL     OW 9527   2.255   6.338   4.542 -0.0066 -0.3254  0.0062
 2618SOL    HW1 9528   2.180   6.283   4.519  1.2773 -2.4724  0.6636
 2618SOL    HW2 9529   2.219   6.404   4.602 -1.0910 -2.5366  1.9594
 2619SOL     OW 9530   1.955   0.653   9.400  0.0116 -0.3408 -0.2213
 2619SOL    HW1 9531   2.006   0.720   9.356  1.5663 -2.1113 -1.2725
 2619SOL    HW2 9532   1.989   0.651   9.490  0.0260  0.1719 -0.2123
 2620SOL     OW 9533   3.569   6.097   8.751  0.2342  0.0441  0.2396
 2620SOL    HW1 9534   3.489   6.140   8.781 -0.3786 -0.2940 -0.8500
 2620SOL    HW2 9535   3.634   6.118   8.818 -0.6423  0.7148  0.9081
 2621SOL     OW 9536   8.046   5.043   1.331  0.2067 -0.0312  0.1537
 2621SOL    HW1 9537   8.127   5.029   1.379 -0.7351  0.9547  2.1341
 2621SOL    HW2 9538   8.013   5.127   1.362 -0.0660  1.1005 -2.8763
 2622SOL     OW 9539   1.922   2.720   1.295  0.1839  0.1870  0.5659
 2622SOL    HW1 9540   1.881   2.670   1.366  0.6663  0.6956  1.2119
 2622SOL    HW2 9541   1.919   2.661   1.220  1.2604 -1.0582  1.4563
 2623SOL     OW 9542   0.475   8.179   4.510  0.2880 -0.0754  0.0139
 2623SOL    HW1 9543   0.469   8.207   4.601 -0.1914 -0.9858  0.2747
 2623SOL    HW2 9544   0.429   8.248   4.461 -3.4034 -1.6568  0.9276
 2624SOL     OW 9545   8.221   3.927   1.213 -0.4230  0.9828 -0.2495
 2624SOL    HW1 9546   8.224   3.967   1.300  1.4096 -1.2274  0.8045
 2624SOL    HW2 9547   8.141   3.874   1.213  0.3817 -0.2998  0.7734
 2625SOL     OW 9548   3.164   8.797   3.304  0.2236  0.2136  0.3324
 2625SOL    HW1 9549   3.111   8.728   3.342  0.5309  0.8562  2.0481
 2625SOL    HW2 9550   3.103   8.869   3.287  0.3642  0.6130  1.4335
 2626SOL     OW 9551   3.741   2.954   0.421 -0.6399  0.1889 -0.1506
 2626SOL    HW1 9552   3.772   2.982   0.507 -0.7917  1.1940 -0.4118
 2626SOL    HW2 9553   3.651   2.985   0.416 -0.4402  0.6654 -0.9056
 2627SOL     OW 9554   7.422   4.660   4.506  0.1959  0.1272  0.4406
 2627SOL    HW1 9555   7.491   4.605   4.470  0.5412  0.6800  0.2516
 2627SOL    HW2 9556   7.446   4.671   4.598  1.6720  2.2480 -0.1280
 2628SOL     OW 9557   2.847   1.466   4.393  0.6463 -0.1349 -0.0901
 2628SOL    HW1 9558   2.764   1.513   4.382  0.3550 -0.6393 -0.0668
 2628SOL    HW2 9559   2.896   1.485   4.313  1.4530  2.0173  0.8304
 2629SOL     OW 9560   6.254   6.413   9.263 -0.0943  0.3499 -0.0214
 2629SOL    HW1 9561   6.160   6.413   9.244  0.2995  0.2679 -2.2469
 2629SOL    HW2 9562   6.267   6.336   9.318 -1.3135  0.3268  0.2581
 2630SOL     OW 9563   6.807   7.495   0.381  0.5482  0.3718  0.6166
 2630SOL    HW1 9564   6.861   7.565   0.345 -0.5743  0.8463 -0.2059
 2630SOL    HW2 9565   6.760   7.536   0.454 -1.9362  1.2621 -1.3224
 2631SOL     OW 9566   3.188   9.077   7.583 -0.5358 -0.0931  0.3352
 2631SOL    HW1 9567   3.265   9.134   7.576 -0.6194 -0.0334 -0.1092
 2631SOL    HW2 9568   3.173   9.046   7.493 -1.8718  0.9967  0.1627
 2632SOL     OW 9569   2.895   5.956   1.637  0.5581  0.1408 -0.7771
 2632SOL    HW1 9570   2.867   6.024   1.575  2.0876  1.7202  0.1583
 2632SOL    HW2 9571   2.988   5.944   1.618  0.0962 -2.7188 -1.7638
 2633SOL     OW 9572   5.150   5.180   8.194 -0.1669  0.0895 -0.0176
 2633SOL    HW1 9573   5.164   5.267   8.233  2.7068 -0.1166 -0.3794
 2633SOL    HW2 9574   5.151   5.196   8.100  1.2647 -0.3648 -0.1138
 2634SOL     OW 9575   1.746   7.691   8.551 -0.0456  0.1065 -0.2510
 2634SOL    HW1 9576   1.774   7.623   8.490  0.4220  0.1563 -0.0941
 2634SOL    HW2 9577   1.718   7.643   8.629 -1.7057 -0.0301 -0.8916
 2635SOL     OW 9578   4.910   3.878   8.547  0.4385 -0.2072  0.6696
 2635SOL    HW1 9579   4.952   3.802   8.590  0.2045 -0.2784  0.7714
 2635SOL    HW2 9580   4.943   3.953   8.596  1.4449 -0.1554 -0.0425
 2636SOL     OW 9581   8.130   6.037   4.212 -0.2815  0.2156 -0.4309
 2636SOL    HW1 9582   8.059   6.096   4.186 -1.5920 -1.5440 -1.0433
 2636SOL    HW2 9583   8.157   5.996   4.130  0.3394 -0.3287  0.0448
 2637SOL     OW 9584   3.181   9.336   0.126 -0.0924  0.0798 -0.3479
 2637SOL    HW1 9585   3.090   9.365   0.121  0.3141  1.3452 -0.7941
 2637SOL    HW2 9586   3.203   9.310   0.037  0.0426 -0.0244 -0.2845
 2638SOL     OW 9587   1.125   1.356   6.885 -0.5193 -0.2480 -0.2876
 2638SOL    HW1 9588   1.034   1.326   6.893 -0.6040 -0.0734 -0.5520
 2638SOL    HW2 9589   1.152   1.327   6.798 -0.2207 -0.5592 -0.0900
 2639SOL     OW 9590   6.441   5.280   6.299  0.7520 -0.4847  0.0144
 2639SOL    HW1 9591   6.533   5.288   6.327  1.0587  0.0565 -1.0931
 2639SOL    HW2 9592   6.441   5.205   6.239  0.9670  0.8833 -1.7963
 2640SOL     OW 9593   4.360   3.014   5.813 -0.7555  1.1090  0.0412
 2640SOL    HW1 9594   4.350   2.948   5.882  1.4685 -0.8035 -1.2809
 2640SOL    HW2 9595   4.297   2.988   5.745 -1.9574  2.1590  0.7225
 2641SOL     OW 9596   4.204   1.211   9.421  0.4106  0.1615 -0.1335
 2641SOL    HW1 9597   4.219   1.128   9.378 -1.7841  0.5601 -1.8864
 2641SOL    HW2 9598   4.277   1.267   9.394  0.5416 -0.4484 -1.0659
 2642SOL     OW 9599   4.173   2.194   6.946 -0.4134  0.3437 -0.1041
 2642SOL    HW1 9600   4.251   2.215   6.895 -0.2778 -1.4777 -0.7046
 2642SOL    HW2 9601   4.192   2.110   6.987 -1.7871  0.1998  0.3009
 2643SOL     OW 9602   0.189   5.926   5.485 -0.1886  0.6948  0.2671
 2643SOL    HW1 9603   0.149   5.850   5.527 -1.1644  1.0849  0.0881
 2643SOL    HW2 9604   0.283   5.914   5.496 -0.3150 -0.6705  0.0009
 2644SOL     OW 9605   2.353   0.660   0.984 -0.3996 -0.0653  0.0951
 2644SOL    HW1 9606   2.435   0.619   1.014  0.0357  0.5980 -0.1545
 2644SOL    HW2 9607   2.331   0.722   1.053 -0.8494 -0.4333  0.2895
 2645SOL     OW 9608   6.845   9.373   1.357 -0.0129  0.4364 -0.0558
 2645SOL    HW1 9609   6.787   9.380   1.281  0.4024  0.0877 -0.4142
 2645SOL    HW2 9610   6.917   9.433   1.337  1.5312 -1.6655 -1.2826
 2646SOL     OW 9611   2.200   1.166   3.371  0.3109 -0.1122  0.6080
 2646SOL    HW1 9612   2.224   1.163   3.279  1.7913  1.1224  0.9018
 2646SOL    HW2 9613   2.282   1.185   3.417 -0.2073 -1.5698  2.2842
 2647SOL     OW 9614   2.356   4.857   9.439  0.1722  0.5460 -0.0469
 2647SOL    HW1 9615   2.330   4.793   9.373 -0.9453 -1.0882  1.8717
 2647SOL    HW2 9616   2.449   4.838   9.455  0.7958  1.7324 -1.8847
 2648SOL     OW 9617   4.839   0.831   0.859 -0.3371  0.4731  0.0546
 2648SOL    HW1 9618   4.769   0.767   0.868 -1.0007  1.1735 -0.0230
 2648SOL    HW2 9619   4.805   0.896   0.797  0.9666  0.0496 -1.1367
 2649SOL     OW 9620   6.512   2.917   0.488  0.4078  0.0761  0.0117
 2649SOL    HW1 9621   6.509   3.009   0.462 -1.8215  0.2245  0.5918
 2649SOL    HW2 9622   6.541   2.919   0.579 -0.1601  0.2680  0.1942
 2650SOL     OW 9623   2.474   8.076   5.880  0.1645  0.4807 -0.2278
 2650SOL    HW1 9624   2.414   8.113   5.815 -0.1735 -1.1064 -0.8607
 2650SOL    HW2 9625   2.470   7.981   5.866  2.2880  0.2782  0.1856
 2651SOL     OW 9626   1.166   0.388   1.564  0.2300 -0.3488 -0.1696
 2651SOL    HW1 9627   1.119   0.466   1.536 -0.0228 -0.7291 -0.8333
 2651SOL    HW2 9628   1.188   0.343   1.483  1.8368 -0.1350  0.1112
 2652SOL     OW 9629   7.030   5.261   7.433 -0.2477  0.4962  0.6124
 2652SOL    HW1 9630   7.089   5.220   7.369 -0.3888  0.3252  0.5928
 2652SOL    HW2 9631   7.089   5.302   7.497 -0.0884  1.6344 -0.2343
 2653SOL     OW 9632   8.606   7.338   2.289  0.0962  0.1007 -0.5466
 2653SOL    HW1 9633   8.516   7.333   2.321 -0.0196 -0.0719 -0.8929
 2653SOL    HW2 9634   8.660   7.301   2.359 -0.1643 -0.3901 -0.6033
 2654SOL     OW 9635   3.886   3.844   0.344  0.0254  0.0413  0.2687
 2654SOL    HW1 9636   3.970   3.844   0.390  0.5984 -3.0711 -0.5874
 2654SOL    HW2 9637   3.902   3.896   0.266  1.2748 -0.7135 -0.0086
 2655SOL     OW 9638   3.841   3.398   2.948 -0.2665  0.1681  0.3699
 2655SOL    HW1 9639   3.764   3.353   2.984 -0.1260  0.0889  0.5747
 2655SOL    HW2 9640   3.866   3.347   2.872 -0.1452 -0.0642  0.5655
 2656SOL     OW 9641   6.778   4.131   8.698 -0.2198 -0.8335 -0.1068
 2656SOL    HW1 9642   6.774   4.226   8.687 -1.1867 -0.8075  0.3890
 2656SOL    HW2 9643   6.767   4.117   8.792  0.3410 -1.4191 -0.1237
 2657SOL     OW 9644   6.665   5.037   5.256  0.2353  0.2544 -0.4190
 2657SOL    HW1 9645   6.698   4.950   5.276 -0.5796 -0.0999 -0.5944
 2657SOL    HW2 9646   6.577   5.039   5.293 -0.6091  0.2229 -2.3096
 2658SOL     OW 9647   5.799   2.159   1.546  0.5648 -0.5092 -0.0738
 2658SOL    HW1 9648   5.888   2.129   1.525 -0.1129 -1.6432 -1.4415
 2658SOL    HW2 9649   5.807   2.254   1.554  1.4293 -0.2523 -2.8755
 2659SOL     OW 9650   3.198   0.684   2.204  0.4792 -0.0099 -0.1684
 2659SOL    HW1 9651   3.284   0.652   2.178 -0.3160 -1.8961 -0.6708
 2659SOL    HW2 9652   3.140   0.654   2.134 -0.2155  3.8153 -1.4414
 2660SOL     OW 9653   3.334   7.366   4.156 -0.6592  0.3799  0.2925
 2660SOL    HW1 9654   3.412   7.415   4.129 -0.7826  0.6578  0.4332
 2660SOL    HW2 9655   3.347   7.349   4.249  0.0843 -1.1771 -0.0733
 2661SOL     OW 9656   2.771   5.118   8.077 -0.1123 -0.1587  0.2680
 2661SOL    HW1 9657   2.691   5.108   8.027  0.4408 -1.8679 -0.3755
 2661SOL    HW2 9658   2.747   5.093   8.167 -0.5239  0.3301  0.2921
 2662SOL     OW 9659   5.922   3.954   1.542  0.1648  1.0215  0.1287
 2662SOL    HW1 9660   5.958   3.866   1.530 -3.1089 -0.3443 -0.8168
 2662SOL    HW2 9661   5.955   4.004   1.468  1.0166  0.2479 -0.0357
 2663SOL     OW 9662   9.478   9.578   8.820 -0.6111 -0.1587 -0.1202
 2663SOL    HW1 9663   9.526   9.501   8.849  0.5071  1.1312  1.6999
 2663SOL    HW2 9664   9.473   9.570   8.725 -2.4558 -3.5294  0.1133
 2664SOL     OW 9665   9.206   3.831   6.452 -0.3000 -0.0003 -0.9316
 2664SOL    HW1 9666   9.232   3.866   6.537  2.0025 -0.9396 -1.1731
 2664SOL    HW2 9667   9.213   3.906   6.393  0.5403  0.1083 -0.7143
 2665SOL     OW 9668   3.290   4.839   6.235 -0.2749 -0.1823  0.2226
 2665SOL    HW1 9669   3.266   4.902   6.166  0.0268 -1.5689 -1.2017
 2665SOL    HW2 9670   3.344   4.774   6.190 -0.1237 -1.1731  1.7792
 2666SOL     OW 9671   1.573   5.703   0.972  0.2226 -0.2616  0.3051
 2666SOL    HW1 9672   1.512   5.631   0.984 -1.1492  0.8049  0.0315
 2666SOL    HW2 9673   1.518   5.782   0.975  1.4220  0.6886 -1.0102
 2667SOL     OW 9674   2.169   9.023   5.238 -0.2450  0.2376  0.2328
 2667SOL    HW1 9675   2.234   8.973   5.187 -0.0512  0.0098  0.7020
 2667SOL    HW2 9676   2.213   9.042   5.321 -0.9027 -0.2139  0.6901
 2668SOL     OW 9677   2.061   8.993   9.161 -0.0541 -0.4754  0.0582
 2668SOL    HW1 9678   1.993   8.925   9.158  0.9322 -1.4862  0.2101
 2668SOL    HW2 9679   2.125   8.967   9.095  0.5223  0.1260  0.3659
 2669SOL     OW 9680   0.990   0.349   7.405 -0.0577 -0.1754  0.6802
 2669SOL    HW1 9681   0.992   0.422   7.466  1.6885 -0.3128  0.8287
 2669SOL    HW2 9682   1.030   0.383   7.325  0.1042 -0.7518  0.5080
 2670SOL     OW 9683   4.529   9.195   2.833  0.2899 -0.4804 -0.5802
 2670SOL    HW1 9684   4.614   9.165   2.798  1.1680  0.0353  1.0192
 2670SOL    HW2 9685   4.470   9.122   2.817  1.6308 -1.8467  0.4089
 2671SOL     OW 9686   4.718   5.225   0.016  0.2208  0.5250 -0.3465
 2671SOL    HW1 9687   4.766   5.224  -0.067 -0.1451  1.2994 -0.5855
 2671SOL    HW2 9688   4.786   5.234   0.083  0.5510 -0.5573 -0.5198
 2672SOL     OW 9689   7.363   0.966   4.011  0.3821  0.2448 -0.0945
 2672SOL    HW1 9690   7.426   0.995   4.078 -0.4401  0.0722  0.7720
 2672SOL    HW2 9691   7.415   0.913   3.951  1.2070  0.6841  0.2105
 2673SOL     OW 9692   6.298   3.821   0.446  0.1696  0.6493  0.2898
 2673SOL    HW1 9693   6.272   3.898   0.497  2.3593  0.4710  1.8483
 2673SOL    HW2 9694   6.303   3.853   0.355  1.7922  2.6547  0.9888
 2674SOL     OW 9695   4.555   5.262   5.249 -0.0738 -0.2826  0.4125
 2674SOL    HW1 9696   4.461   5.245   5.243 -0.0885 -0.1289  0.1729
 2674SOL    HW2 9697   4.596   5.176   5.254 -0.1819 -0.3798 -0.2329
 2675SOL     OW 9698   5.788   8.768   6.141  0.6464 -0.2336 -0.7100
 2675SOL    HW1 9699   5.711   8.738   6.093  1.9027 -1.1141 -2.2715
 2675SOL    HW2 9700   5.807   8.854   6.104  0.3271  0.0563 -0.2071
 2676SOL     OW 9701   3.252   6.496   5.296 -0.4138 -0.3849 -0.0853
 2676SOL    HW1 9702   3.343   6.515   5.317 -0.9365  0.7955  1.2912
 2676SOL    HW2 9703   3.202   6.564   5.341 -1.9502 -0.6177 -1.3378
 2677SOL     OW 9704   4.351   4.012   5.340 -0.2836 -0.4336 -0.3486
 2677SOL    HW1 9705   4.426   4.059   5.375  1.5914 -2.5418 -1.2838
 2677SOL    HW2 9706   4.365   4.010   5.246 -2.9616  1.3646 -0.9077
 2678SOL     OW 9707   6.323   2.449   5.506 -0.1395 -0.2265  0.1372
 2678SOL    HW1 9708   6.298   2.436   5.598 -0.0606  0.8856  0.3335
 2678SOL    HW2 9709   6.327   2.361   5.470 -3.2694 -0.5563  0.3457
 2679SOL     OW 9710   0.174   1.283   1.476  0.4284 -0.8237 -0.7751
 2679SOL    HW1 9711   0.091   1.246   1.505  0.0620 -0.1758 -0.9675
 2679SOL    HW2 9712   0.175   1.270   1.382  1.1043 -1.9129 -0.6340
 2680SOL     OW 9713   0.625   7.276   6.844  0.2343  0.8472 -0.4338
 2680SOL    HW1 9714   0.558   7.344   6.842 -0.1303  0.6607  2.1628
 2680SOL    HW2 9715   0.698   7.315   6.892 -0.2602 -0.7540  1.7454
 2681SOL     OW 9716   8.189   0.877   5.181  0.0082 -0.4755  0.4784
 2681SOL    HW1 9717   8.195   0.944   5.113  0.4632  1.4506  2.2979
 2681SOL    HW2 9718   8.244   0.806   5.150  0.9512  0.7298 -0.7476
 2682SOL     OW 9719   1.792   7.583   5.763  0.5807 -0.8323  0.4645
 2682SOL    HW1 9720   1.843   7.509   5.729  1.0538 -0.1492 -0.3592
 2682SOL    HW2 9721   1.753   7.622   5.686  0.3817 -0.1842  0.8913
 2683SOL     OW 9722   6.200   6.152   4.647  0.2677 -0.1139 -0.5613
 2683SOL    HW1 9723   6.219   6.119   4.735 -0.2227 -0.0514 -0.4339
 2683SOL    HW2 9724   6.223   6.245   4.650 -0.3970  0.0472 -0.2981
 2684SOL     OW 9725   3.569   7.462   5.217 -0.3095  0.4283 -0.3727
 2684SOL    HW1 9726   3.545   7.404   5.145 -0.5624 -0.6166  0.5269
 2684SOL    HW2 9727   3.506   7.533   5.214  0.8938  1.5036 -2.4125
 2685SOL     OW 9728   1.424   0.082   7.036 -0.2945  0.1901  0.2913
 2685SOL    HW1 9729   1.451   0.021   7.105  1.4065  0.6477  0.0917
 2685SOL    HW2 9730   1.408   0.165   7.083  1.1052  0.5683  0.1489
 2686SOL     OW 9731   4.720   7.585   4.887 -0.1569 -0.8080  0.0727
 2686SOL    HW1 9732   4.684   7.612   4.803  0.9615  1.7403  0.3054
 2686SOL    HW2 9733   4.711   7.663   4.943  1.9065 -1.3987  1.3356
 2687SOL     OW 9734   3.867   3.449   3.240  0.1121 -0.2944 -0.7337
 2687SOL    HW1 9735   3.911   3.534   3.239  1.3489 -0.8792  0.4044
 2687SOL    HW2 9736   3.792   3.460   3.182 -0.7420  2.0885  0.6622
 2688SOL     OW 9737   1.212   1.294   3.406  0.1049 -0.0829  0.0199
 2688SOL    HW1 9738   1.161   1.262   3.332  0.0535 -0.8934  0.3872
 2688SOL    HW2 9739   1.299   1.255   3.395 -0.0614 -0.6672  0.6650
 2689SOL     OW 9740   6.756   8.960   4.991  0.0705 -0.3253 -0.1668
 2689SOL    HW1 9741   6.833   8.961   4.934 -0.4663 -0.1014 -0.9069
 2689SOL    HW2 9742   6.685   8.930   4.935 -0.7557  1.1725 -0.0019
 2690SOL     OW 9743   5.673   7.619   5.126  0.1013  0.3365  0.2942
 2690SOL    HW1 9744   5.762   7.637   5.097  0.2789  0.1518  0.7164
 2690SOL    HW2 9745   5.654   7.531   5.093  0.6441 -0.2582  1.5128
 2691SOL     OW 9746   3.010   2.136   3.745  0.6971 -0.1313 -0.0319
 2691SOL    HW1 9747   2.964   2.057   3.774  0.2491  0.5045  1.0359
 2691SOL    HW2 9748   2.990   2.143   3.652 -3.5083  1.4323  0.7817
 2692SOL     OW 9749   8.460   4.023   7.467 -0.3634  0.0192 -0.4144
 2692SOL    HW1 9750   8.523   3.954   7.489  0.0920  0.1199 -1.4002
 2692SOL    HW2 9751   8.439   4.063   7.552 -1.2510 -1.8304  0.3060
 2693SOL     OW 9752   4.127   3.598   5.124  0.0063  0.0163  0.1406
 2693SOL    HW1 9753   4.171   3.529   5.074  0.8453  0.2018  0.6126
 2693SOL    HW2 9754   4.184   3.613   5.199 -0.3526  0.9808  0.2273
 2694SOL     OW 9755   9.282   1.651   4.571 -0.0283 -0.1151 -0.0803
 2694SOL    HW1 9756   9.364   1.662   4.619  0.0103  0.1812 -0.2086
 2694SOL    HW2 9757   9.255   1.561   4.589  1.0283 -0.6760 -1.1369
 2695SOL     OW 9758   5.590   4.385   6.613 -0.3280 -0.0071 -0.3963
 2695SOL    HW1 9759   5.557   4.367   6.525 -1.2764  0.1374 -0.0766
 2695SOL    HW2 9760   5.606   4.479   6.615 -1.9082  0.2747  0.1019
 2696SOL     OW 9761   2.347   1.353   7.892  0.2363  0.7232  0.4281
 2696SOL    HW1 9762   2.296   1.276   7.919 -0.8427  1.1500 -0.3224
 2696SOL    HW2 9763   2.307   1.426   7.939 -0.0124  1.1014 -0.3574
 2697SOL     OW 9764   1.973   6.713   3.977  0.1021 -0.0607  0.3403
 2697SOL    HW1 9765   1.914   6.693   3.904  0.7983 -1.1974  0.0689
 2697SOL    HW2 9766   2.012   6.797   3.954  2.2410 -1.5205 -1.9324
 2698SOL     OW 9767   3.822   4.764   3.528  0.0328 -0.1584 -0.7566
 2698SOL    HW1 9768   3.795   4.856   3.521 -0.4524 -0.4023 -2.6921
 2698SOL    HW2 9769   3.760   4.725   3.589 -1.3661  0.2620 -1.8651
 2699SOL     OW 9770   9.213   3.731   2.365 -0.2730 -0.4667  0.1938
 2699SOL    HW1 9771   9.307   3.743   2.375 -0.5117  2.6083 -0.2386
 2699SOL    HW2 9772   9.189   3.786   2.290 -2.7444  1.0692  1.9367
 2700SOL     OW 9773   5.817   9.440   8.864 -0.7974 -0.0486  0.3612
 2700SOL    HW1 9774   5.805   9.364   8.922 -0.3905 -1.2953 -1.1162
 2700SOL    HW2 9775   5.791   9.408   8.778  1.6746  0.7293 -0.7553
 2701SOL     OW 9776   8.371   7.736   4.298 -0.5251 -0.3559 -0.3780
 2701SOL    HW1 9777   8.304   7.721   4.232 -0.8799 -0.6831  0.0478
 2701SOL    HW2 9778   8.354   7.824   4.331  0.6377  0.4537 -1.8321
 2702SOL     OW 9779   9.280   6.634   7.334  0.1450  0.4219 -0.3064
 2702SOL    HW1 9780   9.244   6.548   7.358  0.5868 -0.2727 -2.0291
 2702SOL    HW2 9781   9.257   6.645   7.242 -1.1605  2.8420  0.2277
 2703SOL     OW 9782   5.846   3.068   4.504  0.1675 -0.3086 -0.1975
 2703SOL    HW1 9783   5.789   3.142   4.523  0.1602  0.4242 -2.7348
 2703SOL    HW2 9784   5.919   3.105   4.455  0.9893 -1.7427 -0.1250
 2704SOL     OW 9785   6.641   0.568   2.911  0.1748  0.4024 -0.0498
 2704SOL    HW1 9786   6.572   0.503   2.892 -0.7702  1.0110  1.1409
 2704SOL    HW2 9787   6.613   0.647   2.865  0.3081  0.5178  0.0660
 2705SOL     OW 9788   4.122   5.112   8.651  0.0221 -0.2459 -0.3565
 2705SOL    HW1 9789   4.062   5.065   8.708  0.4142 -0.9466 -0.5035
 2705SOL    HW2 9790   4.078   5.113   8.566  0.0260 -0.3784 -0.3610
 2706SOL     OW 9791   1.514   5.594   6.285  0.2608  0.4402  0.4331
 2706SOL    HW1 9792   1.523   5.518   6.342  0.4879 -0.6785 -1.0417
 2706SOL    HW2 9793   1.592   5.647   6.303  0.7719 -0.3350  0.5347
 2707SOL     OW 9794   2.645   5.665   7.667 -0.2784 -0.1428  0.3043
 2707SOL    HW1 9795   2.703   5.716   7.611 -0.5220  1.4044  1.3987
 2707SOL    HW2 9796   2.678   5.576   7.661 -0.0259  0.0541 -1.9064
 2708SOL     OW 9797   6.374   5.019   1.879  0.0243 -0.3167 -0.0921
 2708SOL    HW1 9798   6.407   5.109   1.882  0.1810 -0.1638 -3.3335
 2708SOL    HW2 9799   6.448   4.965   1.906  0.4555  0.4168  0.2172
 2709SOL     OW 9800   7.183   9.095   2.649 -0.0939 -1.0208  0.2448
 2709SOL    HW1 9801   7.243   9.163   2.618 -0.9047  0.1104  1.0479
 2709SOL    HW2 9802   7.107   9.144   2.681  0.6852 -1.9912  4.1078
 2710SOL     OW 9803   9.109   2.243   3.580 -0.1146  0.8379  0.3176
 2710SOL    HW1 9804   9.094   2.211   3.669 -2.6406  0.7216 -0.0763
 2710SOL    HW2 9805   9.148   2.169   3.534 -1.0809  0.0548  0.7240
 2711SOL     OW 9806   9.676   5.883   0.608 -0.2189  0.0185  0.2690
 2711SOL    HW1 9807   9.623   5.963   0.606 -1.1227 -0.5615  0.3440
 2711SOL    HW2 9808   9.613   5.813   0.598  0.4132 -0.7545  1.5567
 2712SOL     OW 9809   4.452   6.493   1.264  0.4178 -0.6752  0.4368
 2712SOL    HW1 9810   4.523   6.507   1.202  0.4733 -0.9068  0.4464
 2712SOL    HW2 9811   4.488   6.521   1.348  0.8748 -1.7916  0.6352
 2713SOL     OW 9812   3.856   4.229   7.284 -0.4167  0.7955  0.2534
 2713SOL    HW1 9813   3.887   4.202   7.370 -1.5188  0.9628  0.7173
 2713SOL    HW2 9814   3.775   4.181   7.271 -0.0586  0.4475 -0.8885
 2714SOL     OW 9815   0.061   2.445   6.077 -0.4924  0.2422  0.1337
 2714SOL    HW1 9816  -0.017   2.437   6.022 -0.1826 -0.4657 -0.2060
 2714SOL    HW2 9817   0.059   2.367   6.133  0.7987 -0.6187 -0.9574
 2715SOL     OW 9818   5.880   3.356   7.147  0.3593  0.0552 -0.3152
 2715SOL    HW1 9819   5.818   3.369   7.218  0.8884  1.7699 -0.1335
 2715SOL    HW2 9820   5.867   3.264   7.120 -0.3546 -0.4023  1.4797
 2716SOL     OW 9821   8.912   0.849   3.736  0.7021 -0.1989 -0.0741
 2716SOL    HW1 9822   8.831   0.810   3.704  0.8760 -0.4292 -0.2386
 2716SOL    HW2 9823   8.895   0.868   3.829  0.5803 -0.5637 -0.0225
 2717SOL     OW 9824   0.875   2.434   1.023  0.1151 -0.1458 -0.1250
 2717SOL    HW1 9825   0.794   2.384   1.014 -0.4946  0.7278  0.3431
 2717SOL    HW2 9826   0.847   2.525   1.027  1.2908  0.3587 -2.1384
 2718SOL     OW 9827   2.846   1.232   4.090  0.3220 -0.1062 -0.5768
 2718SOL    HW1 9828   2.891   1.282   4.023 -0.6455  1.7666  0.0748
 2718SOL    HW2 9829   2.911   1.171   4.123  2.2207  1.9840 -0.1701
 2719SOL     OW 9830   2.978   6.139   0.510 -0.5122  0.3196  0.6409
 2719SOL    HW1 9831   2.900   6.085   0.520  0.9814 -2.0503  0.2381
 2719SOL    HW2 9832   3.035   6.113   0.583  0.6114  0.7127 -0.0698
 2720SOL     OW 9833   3.589   1.940   1.201  0.1242 -0.3137  0.0665
 2720SOL    HW1 9834   3.676   1.906   1.221  0.3922  0.0354 -0.4717
 2720SOL    HW2 9835   3.531   1.897   1.263  0.7651 -0.1137  0.8139
 2721SOL     OW 9836   2.900   0.128   4.506  0.1049 -0.4170 -0.0738
 2721SOL    HW1 9837   2.944   0.166   4.430 -0.3997 -0.0390 -0.1780
 2721SOL    HW2 9838   2.807   0.130   4.484  0.0129 -1.0188  0.2321
 2722SOL     OW 9839   7.270   8.046   6.478 -0.2962 -0.1532  0.7284
 2722SOL    HW1 9840   7.283   8.079   6.389  0.4328 -1.8402  0.1587
 2722SOL    HW2 9841   7.213   7.970   6.467 -0.4183 -0.2154  1.7287
 2723SOL     OW 9842   6.184   8.343   7.081 -0.4555 -0.5258  0.4780
 2723SOL    HW1 9843   6.262   8.393   7.106 -0.6613 -0.1609  0.3896
 2723SOL    HW2 9844   6.218   8.276   7.020  0.0225 -1.3432  1.6082
 2724SOL     OW 9845   5.022   1.705   4.077 -0.1004 -0.4413  0.8951
 2724SOL    HW1 9846   5.007   1.733   3.987 -0.9069 -1.9307  0.5475
 2724SOL    HW2 9847   4.937   1.676   4.108  0.0936  0.3834  2.2819
 2725SOL     OW 9848   1.323   2.737   3.551 -0.6697 -0.2951  0.2263
 2725SOL    HW1 9849   1.265   2.812   3.564  0.5050  0.9109 -1.1364
 2725SOL    HW2 9850   1.411   2.775   3.547 -0.0346 -1.7461 -0.4513
 2726SOL     OW 9851   4.416   0.445   3.536  0.0968  0.6789 -0.0046
 2726SOL    HW1 9852   4.453   0.532   3.519 -0.9835  1.3463  0.8986
 2726SOL    HW2 9853   4.491   0.392   3.562  0.5366  1.8698  1.3222
 2727SOL     OW 9854   3.328   6.977   4.700  0.6419 -0.4899 -0.3565
 2727SOL    HW1 9855   3.286   6.909   4.646  0.9082 -1.1320  0.2309
 2727SOL    HW2 9856   3.264   7.048   4.702  0.9949 -0.0519 -2.2706
 2728SOL     OW 9857   4.765   7.978   1.017  0.0791  0.2289  0.0751
 2728SOL    HW1 9858   4.780   8.072   1.008  2.4673 -0.1495 -0.4872
 2728SOL    HW2 9859   4.781   7.942   0.930 -0.9131 -0.7015  0.2608
 2729SOL     OW 9860   1.713   4.365   1.379 -0.3954 -0.3779 -0.0002
 2729SOL    HW1 9861   1.711   4.437   1.315  2.9166 -0.8488 -0.8277
 2729SOL    HW2 9862   1.713   4.286   1.325  0.4751 -0.8505  0.6757
 2730SOL     OW 9863   1.998   4.484   2.887  0.2508 -0.5817 -0.2945
 2730SOL    HW1 9864   2.013   4.389   2.889 -0.8383 -0.7571  0.8878
 2730SOL    HW2 9865   1.981   4.507   2.978  0.2497  0.7092 -0.6115
 2731SOL     OW 9866   2.283   3.545   4.890 -0.2693  0.1973  0.1064
 2731SOL    HW1 9867   2.305   3.573   4.801  0.5734  1.0395  0.5571
 2731SOL    HW2 9868   2.350   3.586   4.945  0.3505 -1.8078  0.9453
 2732SOL     OW 9869   0.939   8.316   9.658 -0.4637  0.1689  0.0773
 2732SOL    HW1 9870   0.965   8.283   9.744 -0.9100 -1.4908 -0.3922
 2732SOL    HW2 9871   0.874   8.253   9.627 -3.3780  2.8848  0.1935
 2733SOL     OW 9872   3.714   7.053   4.278  0.1715 -0.2398  0.5508
 2733SOL    HW1 9873   3.754   7.092   4.356 -0.7945  1.8188  0.0710
 2733SOL    HW2 9874   3.635   7.011   4.310 -1.0618  1.9269  0.5618
 2734SOL     OW 9875   7.283   0.656   6.246 -0.5143  0.2199  0.0171
 2734SOL    HW1 9876   7.193   0.682   6.266 -0.8906 -0.0100 -1.2437
 2734SOL    HW2 9877   7.319   0.732   6.199 -0.3429 -0.0172 -0.2374
 2735SOL     OW 9878   9.434   1.348   0.645  0.3638 -0.5904  0.0075
 2735SOL    HW1 9879   9.447   1.348   0.739  0.2661 -1.0595  0.0224
 2735SOL    HW2 9880   9.470   1.431   0.615  0.1430 -0.3221  0.4908
 2736SOL     OW 9881   8.249   2.685   9.640  0.0667  0.1697 -0.0716
 2736SOL    HW1 9882   8.224   2.663   9.730 -0.9941 -0.1328 -0.4174
 2736SOL    HW2 9883   8.185   2.752   9.614  0.9202  0.9088 -0.3041
 2737SOL     OW 9884   3.606   9.368   6.809 -0.6949 -0.2843  0.3077
 2737SOL    HW1 9885   3.545   9.305   6.769 -0.5181 -0.3792  0.1868
 2737SOL    HW2 9886   3.582   9.452   6.771  1.7789 -0.8093 -2.8628
 2738SOL     OW 9887   8.915   2.337   0.591 -0.4542 -0.1665 -0.0898
 2738SOL    HW1 9888   8.928   2.383   0.674 -1.1917  2.7980 -1.4508
 2738SOL    HW2 9889   8.850   2.270   0.610 -0.7226  0.5583  1.7132
 2739SOL     OW 9890   8.495   3.663   0.793  0.3539  0.1522  0.3420
 2739SOL    HW1 9891   8.449   3.674   0.710 -0.6561 -1.5364  0.6238
 2739SOL    HW2 9892   8.459   3.732   0.849 -0.4375  0.0547 -0.0257
 2740SOL     OW 9893   4.128   2.449   9.178  0.5761  0.3168 -0.7068
 2740SOL    HW1 9894   4.173   2.482   9.256  2.6979 -0.9341 -1.3185
 2740SOL    HW2 9895   4.184   2.477   9.105  0.4632 -1.4218 -1.5015
 2741SOL     OW 9896   3.503   4.385   6.251 -0.3697  0.1717  0.0699
 2741SOL    HW1 9897   3.569   4.405   6.317  1.1446 -0.9474 -1.0290
 2741SOL    HW2 9898   3.459   4.306   6.283 -1.4757  1.1138  0.9726
 2742SOL     OW 9899   1.134   7.725   7.804  0.3465  0.1572 -0.0490
 2742SOL    HW1 9900   1.104   7.725   7.895 -0.6408 -0.9366 -0.3553
 2742SOL    HW2 9901   1.054   7.736   7.753  0.6772 -1.0186 -0.8346
 2743SOL     OW 9902   0.189   5.847   4.184 -0.1538  0.1400  0.6817
 2743SOL    HW1 9903   0.173   5.805   4.100 -0.5372 -1.2777  1.4175
 2743SOL    HW2 9904   0.138   5.928   4.181 -0.2503  0.0500 -0.3991
 2744SOL     OW 9905   8.016   5.107   7.529  0.2089  0.2076  0.0539
 2744SOL    HW1 9906   8.074   5.112   7.453 -0.4550 -0.4851 -0.5199
 2744SOL    HW2 9907   8.068   5.141   7.602  0.8604  0.8883 -0.7091
 2745SOL     OW 9908   1.609   8.153   1.446  0.5131 -0.0969  0.2337
 2745SOL    HW1 9909   1.530   8.204   1.426  2.2422  2.5526 -0.3945
 2745SOL    HW2 9910   1.658   8.208   1.508  0.8613 -2.7152  2.4254
 2746SOL     OW 9911   7.373   4.355   7.294  0.0173 -0.1407  0.2580
 2746SOL    HW1 9912   7.281   4.381   7.289 -0.2561 -1.2066 -0.8954
 2746SOL    HW2 9913   7.374   4.281   7.356  0.0320 -0.3448  0.0176
 2747SOL     OW 9914   8.120   1.534   7.840 -0.3614 -0.2623 -0.2769
 2747SOL    HW1 9915   8.048   1.501   7.894 -0.9339  2.1754  0.5482
 2747SOL    HW2 9916   8.184   1.569   7.902 -0.5761  1.6970 -1.0946
 2748SOL     OW 9917   0.193   7.202   1.793 -0.3262  0.0963  0.4063
 2748SOL    HW1 9918   0.201   7.286   1.749 -0.1414  0.0380  0.3255
 2748SOL    HW2 9919   0.145   7.221   1.873 -2.0104 -0.0465 -0.5310
 2749SOL     OW 9920   4.275   6.906   5.297  0.0804  0.0077 -0.8921
 2749SOL    HW1 9921   4.250   6.851   5.222  1.4682  0.1235 -1.4774
 2749SOL    HW2 9922   4.362   6.939   5.274 -0.1283  1.3038  0.0954
 2750SOL     OW 9923   5.301   3.236   9.525  0.4481 -0.1688 -0.0781
 2750SOL    HW1 9924   5.242   3.283   9.583  1.9942  0.4027  1.1113
 2750SOL    HW2 9925   5.245   3.201   9.456 -1.0102  1.8163  0.0304
 2751SOL     OW 9926   2.097   4.294   6.174 -0.0821 -0.4950  0.1496
 2751SOL    HW1 9927   2.051   4.328   6.097 -3.0561 -1.5145  1.3359
 2751SOL    HW2 9928   2.060   4.343   6.248  2.5842  0.3520  1.0388
 2752SOL     OW 9929   2.414   2.018   4.555  0.3438 -0.6067 -0.0144
 2752SOL    HW1 9930   2.471   2.093   4.536  0.7164 -0.7582  0.4747
 2752SOL    HW2 9931   2.465   1.941   4.529 -0.8923 -0.6323 -2.6437
 2753SOL     OW 9932   8.029   3.032   4.728 -0.6351 -0.2828 -0.0312
 2753SOL    HW1 9933   7.959   2.990   4.678 -0.5291  0.4327 -0.7936
 2753SOL    HW2 9934   7.997   3.032   4.819 -2.3065  1.3463 -0.5626
 2754SOL     OW 9935   4.323   9.144   8.476 -0.0862 -0.3797 -0.8186
 2754SOL    HW1 9936   4.288   9.223   8.436  0.3645 -0.5321 -1.5334
 2754SOL    HW2 9937   4.266   9.128   8.552 -1.0255 -0.1447 -1.4524
 2755SOL     OW 9938   0.495   0.183   1.930 -0.2711  0.4785 -0.1065
 2755SOL    HW1 9939   0.422   0.231   1.969 -1.1372 -0.2455 -0.7833
 2755SOL    HW2 9940   0.462   0.154   1.845  0.6695 -0.2057 -0.2579
 2756SOL     OW 9941   5.657   5.328   7.263 -0.3942 -0.1736  0.4512
 2756SOL    HW1 9942   5.593   5.360   7.327  1.6154 -0.4277  2.7425
 2756SOL    HW2 9943   5.661   5.396   7.197 -0.5093  1.5185  2.1096
 2757SOL     OW 9944   3.375   2.372   3.332 -0.1520  0.5501 -0.0334
 2757SOL    HW1 9945   3.431   2.372   3.410  0.0390  1.1381 -0.1709
 2757SOL    HW2 9946   3.316   2.298   3.346 -0.1948  0.7188  0.7257
 2758SOL     OW 9947   4.393   5.222   1.851  0.3936  0.0267  0.3813
 2758SOL    HW1 9948   4.360   5.206   1.762 -1.8554  0.3829  1.0955
 2758SOL    HW2 9949   4.370   5.313   1.869 -0.8989 -0.5691  1.9948
 2759SOL     OW 9950   7.923   8.841   8.142 -0.5801  0.3659  0.1052
 2759SOL    HW1 9951   7.950   8.827   8.051  0.4771 -1.1545  0.6119
 2759SOL    HW2 9952   7.865   8.767   8.161  0.6669 -0.3872  1.1796
 2760SOL     OW 9953   5.844   6.387   2.622 -0.9097 -0.2046 -0.7860
 2760SOL    HW1 9954   5.765   6.335   2.635 -0.8155 -0.4874 -1.3152
 2760SOL    HW2 9955   5.839   6.455   2.689  0.0687 -2.1558  1.3791
 2761SOL     OW 9956   8.544   5.221   8.007  0.0517  0.6578  0.0165
 2761SOL    HW1 9957   8.627   5.235   7.961  0.1434  1.3602  0.3890
 2761SOL    HW2 9958   8.486   5.186   7.939  1.0909 -1.4582  0.1222
 2762SOL     OW 9959   0.467   2.903   0.620  0.2842  0.3626 -0.1719
 2762SOL    HW1 9960   0.481   2.808   0.621  1.7874  0.5653  0.5007
 2762SOL    HW2 9961   0.382   2.915   0.663  0.2485 -0.6508  0.0728
 2763SOL     OW 9962   2.826   8.155   0.382 -0.5201  0.0302  0.5205
 2763SOL    HW1 9963   2.886   8.080   0.373 -1.9719 -1.5067  2.7266
 2763SOL    HW2 9964   2.739   8.117   0.372 -1.2727  1.7216  0.2982
 2764SOL     OW 9965   1.861   9.667   3.706  0.1552  0.3252 -0.8294
 2764SOL    HW1 9966   1.842   9.705   3.620  0.5550 -1.3607 -1.6877
 2764SOL    HW2 9967   1.932   9.606   3.691 -0.5659 -0.8995  0.4677
 2765SOL     OW 9968   3.523   3.613   1.728 -0.3017  0.1401 -0.2817
 2765SOL    HW1 9969   3.471   3.678   1.682 -0.8157  0.4293  0.6815
 2765SOL    HW2 9970   3.601   3.661   1.758  0.1932 -0.1245 -1.1053
 2766SOL     OW 9971   6.289   3.655   0.953 -0.5944 -0.1203 -0.0436
 2766SOL    HW1 9972   6.362   3.683   0.899 -1.6581  0.8573 -1.0261
 2766SOL    HW2 9973   6.232   3.731   0.958 -1.3703 -0.7448  1.0148
 2767SOL     OW 9974   8.077   7.100   8.132  0.6241  0.2818 -0.9145
 2767SOL    HW1 9975   8.132   7.031   8.095  0.2327 -1.0098  0.7592
 2767SOL    HW2 9976   8.026   7.132   8.058 -0.1532 -2.1796 -1.5622
 2768SOL     OW 9977   3.574   2.544   6.754  0.2446 -0.5678  0.2464
 2768SOL    HW1 9978   3.494   2.525   6.804  0.4551 -0.8707  0.4679
 2768SOL    HW2 9979   3.627   2.597   6.814 -0.8730  1.9307 -0.7891
 2769SOL     OW 9980   4.076   7.030   3.094 -0.4132  0.5893 -0.3492
 2769SOL    HW1 9981   4.057   6.962   3.029  0.2704 -0.1451  0.1986
 2769SOL    HW2 9982   4.012   7.015   3.164  1.3885 -1.2528  1.0310
 2770SOL     OW 9983   8.759   0.566   6.885  0.0344 -0.1696 -0.1091
 2770SOL    HW1 9984   8.729   0.598   6.970  1.6379  2.2120 -0.3678
 2770SOL    HW2 9985   8.685   0.582   6.826  0.1149  1.3975  0.1710
 2771SOL     OW 9986   8.394   1.009   0.310 -0.3843 -0.0663  0.0837
 2771SOL    HW1 9987   8.401   1.097   0.347 -0.2585  1.0624 -2.4461
 2771SOL    HW2 9988   8.314   0.974   0.349 -0.1647  0.9227  1.5401
 2772SOL     OW 9989   1.651   3.628   4.903  0.0858 -0.0488 -0.6888
 2772SOL    HW1 9990   1.669   3.599   4.992  1.7058  0.8037 -0.7191
 2772SOL    HW2 9991   1.577   3.688   4.912  0.0406 -0.2058  0.0386
 2773SOL     OW 9992   3.093   0.382   5.403  0.2128  0.0879 -0.0541
 2773SOL    HW1 9993   3.072   0.428   5.322 -0.2904  0.1002  0.0765
 2773SOL    HW2 9994   3.122   0.450   5.463 -1.6567  0.4341  0.5190
 2774SOL     OW 9995   1.241   3.612   5.143  0.1553  0.3833 -0.3557
 2774SOL    HW1 9996   1.203   3.524   5.147  0.0365  0.4741  2.3762
 2774SOL    HW2 9997   1.282   3.616   5.057 -0.2347 -2.1787 -0.7503
 2775SOL     OW 9998   6.443   9.657   8.787 -0.2064 -0.2654 -0.2288
 2775SOL    HW1 9999   6.494   9.737   8.771 -1.4736  0.6648  0.2057
 2775SOL    HW210000   6.445   9.611   8.703 -0.9459  1.1289 -1.0532
 2776SOL     OW10001   0.975   9.375   0.650 -0.4137  0.3172  0.4004
 2776SOL    HW110002   0.925   9.306   0.694 -2.2070  1.2413 -0.0987
 2776SOL    HW210003   0.924   9.455   0.664  0.7810  1.2567 -0.3853
 2777SOL     OW10004   1.786   3.196   5.755  0.1210  0.2270  0.0839
 2777SOL    HW110005   1.783   3.284   5.717 -0.1550  1.5779  2.9270
 2777SOL    HW210006   1.698   3.183   5.791 -0.2166 -1.7795 -1.3541
 2778SOL     OW10007   6.003   6.757   4.536 -0.1514  0.4130 -0.6473
 2778SOL    HW110008   6.033   6.673   4.572  0.4413  0.7078 -0.4289
 2778SOL    HW210009   6.039   6.759   4.447  2.6160  1.7961  0.3818
 2779SOL     OW10010   5.324   3.895   1.717 -0.2916  0.7908 -0.7234
 2779SOL    HW110011   5.354   3.806   1.698  2.0169  0.8171  2.2291
 2779SOL    HW210012   5.256   3.884   1.782  0.6874  1.1736  0.3953
 2780SOL     OW10013   5.308   5.899   6.290 -0.2682 -0.3802 -0.0751
 2780SOL    HW110014   5.318   5.808   6.263  0.4937 -0.5261  0.6415
 2780SOL    HW210015   5.335   5.950   6.214  2.7358 -0.7820  0.5935
 2781SOL     OW10016   2.216   8.003   1.053 -0.0006  0.5145 -0.1987
 2781SOL    HW110017   2.197   7.948   1.129 -0.3954  0.8582 -0.0463
 2781SOL    HW210018   2.135   8.003   1.002  0.5692 -0.5238 -1.1441
 2782SOL     OW10019   9.423   6.967   9.190  0.0953  0.0254 -0.0515
 2782SOL    HW110020   9.488   6.912   9.147  0.2013  0.3262 -0.2744
 2782SOL    HW210021   9.419   7.046   9.137 -1.6206 -0.6256 -0.9871
 2783SOL     OW10022   1.939   7.082   6.067  0.5570  0.2107  0.0149
 2783SOL    HW110023   1.960   7.040   6.151  0.0559  1.3447  0.7309
 2783SOL    HW210024   2.017   7.133   6.045 -0.1073  1.7376  0.9828
 2784SOL     OW10025   8.853   9.482   8.981 -0.0380  0.5739  0.1926
 2784SOL    HW110026   8.824   9.440   8.900 -0.8800  0.7611  0.3948
 2784SOL    HW210027   8.827   9.574   8.972  0.8906  0.8461  0.1890
 2785SOL     OW10028   5.175   1.393   8.443 -0.0687  0.1816  0.0635
 2785SOL    HW110029   5.254   1.364   8.489  0.8268  0.0927 -1.4574
 2785SOL    HW210030   5.164   1.484   8.470 -1.0188 -0.5595  2.3485
 2786SOL     OW10031   1.715   3.416   1.875 -0.3989  0.1350  0.5277
 2786SOL    HW110032   1.629   3.392   1.841 -0.1844  0.1663 -0.0502
 2786SOL    HW210033   1.762   3.332   1.883 -0.2299  0.1892  0.1273
 2787SOL     OW10034   4.296   4.366   3.257 -0.7698  0.1615  0.2748
 2787SOL    HW110035   4.257   4.316   3.329  1.0767 -2.1709 -0.2032
 2787SOL    HW210036   4.367   4.309   3.225  0.6726  2.6159 -1.1536
 2788SOL     OW10037   7.475   1.989   9.226  0.1876 -0.1703 -0.0484
 2788SOL    HW110038   7.477   2.039   9.145  1.2583  0.7596  0.5337
 2788SOL    HW210039   7.523   2.042   9.289  0.2804 -1.3577  0.9242
 2789SOL     OW10040   6.339   5.926   1.274  0.1591 -0.0100 -0.3701
 2789SOL    HW110041   6.345   5.860   1.206  1.5541  1.6549 -1.9482
 2789SOL    HW210042   6.317   6.007   1.228  1.9039  1.3361  1.0076
 2790SOL     OW10043   1.024   8.938   0.100  0.5247  0.3850  0.4712
 2790SOL    HW110044   0.966   8.876   0.055  0.6801  0.5782  0.0067
 2790SOL    HW210045   1.041   8.897   0.185 -1.7650  1.1278  1.3967
 2791SOL     OW10046   3.618   1.430   1.750 -0.1392 -0.0969 -0.0398
 2791SOL    HW110047   3.659   1.421   1.665 -0.6663 -0.4900 -0.2596
 2791SOL    HW210048   3.524   1.441   1.731 -0.3181 -0.6329  0.5012
 2792SOL     OW10049   7.735   4.245   5.778 -0.2350 -0.4591 -0.0504
 2792SOL    HW110050   7.760   4.208   5.862 -1.0099 -0.2124  0.2997
 2792SOL    HW210051   7.692   4.173   5.732 -1.8601 -0.0038  0.6828
 2793SOL     OW10052   1.194   0.472   3.041  0.2649 -0.0487 -0.2938
 2793SOL    HW110053   1.239   0.497   3.122 -0.9239 -1.3271  0.8140
 2793SOL    HW210054   1.254   0.411   2.998  0.5845  0.0583 -0.0055
 2794SOL     OW10055   5.068   5.484   9.060  0.1898  0.1116  0.2713
 2794SOL    HW110056   5.088   5.578   9.063  0.4513  0.0423  1.1881
 2794SOL    HW210057   5.001   5.475   8.993  0.1943  0.9521  0.1474
 2795SOL     OW10058   0.529   7.723   2.581  0.9171  0.6644  0.5297
 2795SOL    HW110059   0.500   7.799   2.632 -0.0748  0.4658  0.2656
 2795SOL    HW210060   0.566   7.664   2.646 -4.1076 -1.5078  1.8376
 2796SOL     OW10061   5.867   7.082   5.093 -0.7311  0.6779  0.8436
 2796SOL    HW110062   5.850   7.077   4.999  0.3373 -1.0533  0.7031
 2796SOL    HW210063   5.787   7.048   5.134 -0.0145 -1.7416  0.4000
 2797SOL     OW10064   2.627   1.236   2.783 -0.3826  0.5924  0.0619
 2797SOL    HW110065   2.675   1.316   2.761 -0.2665  0.4004 -0.4065
 2797SOL    HW210066   2.549   1.239   2.727 -0.1947  0.2021 -0.2304
 2798SOL     OW10067   5.267   1.668   3.799  0.5862 -1.3243  0.0445
 2798SOL    HW110068   5.341   1.629   3.752 -0.1903 -1.9481 -0.6805
 2798SOL    HW210069   5.283   1.762   3.795  0.6123 -1.3727 -1.3427
 2799SOL     OW10070   5.890   8.078   2.014  0.0541 -0.5476  0.3639
 2799SOL    HW110071   5.899   8.007   1.951  0.6030 -0.6683  0.5717
 2799SOL    HW210072   5.979   8.093   2.046 -0.2819 -0.8166  1.4722
 2800SOL     OW10073   8.348   8.295   9.635  0.8316 -0.0455  0.3223
 2800SOL    HW110074   8.432   8.298   9.681  0.8598  0.8591  0.2479
 2800SOL    HW210075   8.366   8.245   9.556  1.9491  2.0827 -0.8660
 2801SOL     OW10076   5.474   5.281   0.021 -0.6342  0.1011  0.1668
 2801SOL    HW110077   5.455   5.198  -0.021  0.0515  0.1213 -0.2035
 2801SOL    HW210078   5.426   5.278   0.104 -2.5079  0.3176 -0.8653
 2802SOL     OW10079   5.218   9.297   9.407 -0.3482  0.3602 -0.7802
 2802SOL    HW110080   5.296   9.256   9.370 -1.3605 -1.4977 -0.9916
 2802SOL    HW210081   5.193   9.363   9.342  0.9768  0.9174 -0.7426
 2803SOL     OW10082   7.091   5.818   6.021 -0.3929  0.6432  0.3011
 2803SOL    HW110083   7.003   5.787   6.039 -0.9404  2.2748  0.5725
 2803SOL    HW210084   7.095   5.828   5.926 -0.3133  0.0694  0.2413
 2804SOL     OW10085   2.160   8.332   4.977 -0.1890  0.2874 -0.1755
 2804SOL    HW110086   2.179   8.345   4.884 -0.5671  0.5043 -0.2213
 2804SOL    HW210087   2.078   8.379   4.992 -0.6346 -0.5368  0.0533
 2805SOL     OW10088   7.972   6.924   6.512 -0.2122 -0.0189  0.6451
 2805SOL    HW110089   7.951   6.919   6.605 -0.6592 -1.8475  0.4773
 2805SOL    HW210090   7.908   6.866   6.470  1.8134 -1.5811 -0.4674
 2806SOL     OW10091   7.978   6.665   0.935  0.4165 -0.0734 -0.0013
 2806SOL    HW110092   7.952   6.664   1.026  0.7871 -0.0659  0.1082
 2806SOL    HW210093   8.057   6.719   0.933  0.0476  0.4690 -0.4283
 2807SOL     OW10094   7.831   6.072   8.232  0.0192  0.7540 -0.1087
 2807SOL    HW110095   7.805   6.162   8.248 -2.1991  0.5731 -2.1466
 2807SOL    HW210096   7.766   6.020   8.280 -0.3789  0.2745 -1.1382
 2808SOL     OW10097   8.177   6.271   7.831 -0.5271 -0.1586 -0.5590
 2808SOL    HW110098   8.135   6.224   7.759  0.2216  0.7311 -1.6058
 2808SOL    HW210099   8.133   6.238   7.909 -0.8693 -1.6933 -1.3422
 2809SOL     OW10100   4.679   9.479   3.847  0.0505 -0.1163 -0.2065
 2809SOL    HW110101   4.626   9.558   3.834 -2.9944 -1.4562  2.4515
 2809SOL    HW210102   4.740   9.502   3.917  1.1542  0.6065 -1.3564
 2810SOL     OW10103   2.684   2.155   1.668 -0.5613 -0.0451 -0.4785
 2810SOL    HW110104   2.686   2.193   1.756 -1.0757  0.7403 -0.7990
 2810SOL    HW210105   2.614   2.090   1.672 -0.2678 -0.3505 -0.1811
 2811SOL     OW10106   2.371   5.430   3.557  0.0225 -0.0346 -0.0147
 2811SOL    HW110107   2.368   5.339   3.585 -0.5569  0.4131  1.4504
 2811SOL    HW210108   2.458   5.460   3.583 -0.1914  0.1343  0.5116
 2812SOL     OW10109   6.455   7.093   2.378  0.5035 -0.4626 -0.3545
 2812SOL    HW110110   6.540   7.069   2.416  0.4532  1.1676  0.9329
 2812SOL    HW210111   6.410   7.010   2.366  1.5092 -1.2382  0.8816
 2813SOL     OW10112   7.401   7.162   8.106 -0.3566  0.5600 -0.4322
 2813SOL    HW110113   7.494   7.140   8.111 -0.4141  0.0817 -1.3293
 2813SOL    HW210114   7.385   7.214   8.185  0.6187  0.4702 -0.1571
 2814SOL     OW10115   5.960   8.882   8.219 -0.5938  0.6041 -0.0773
 2814SOL    HW110116   5.945   8.889   8.125  0.6919  3.2412 -0.1668
 2814SOL    HW210117   6.046   8.840   8.227 -0.7452  0.2944 -0.0663
 2815SOL     OW10118   5.101   4.918   5.807  0.2726 -0.0670  0.1059
 2815SOL    HW110119   5.033   4.975   5.770  0.0621 -0.1384  0.3789
 2815SOL    HW210120   5.092   4.928   5.901 -0.5683 -1.4626  0.1988
 2816SOL     OW10121   9.159   1.924   2.154  0.1109 -0.1427 -0.1627
 2816SOL    HW110122   9.089   1.859   2.147  0.8916 -0.9534 -0.6733
 2816SOL    HW210123   9.182   1.944   2.063  0.8073 -0.1800  0.0025
 2817SOL     OW10124   4.753   4.092   1.312 -0.1501  0.5146  0.6456
 2817SOL    HW110125   4.776   4.018   1.257  1.9125  0.6443  1.2565
 2817SOL    HW210126   4.665   4.118   1.282  0.4522 -0.0532 -1.8577
 2818SOL     OW10127   0.732   0.525   0.846  0.3385 -0.0082 -0.3571
 2818SOL    HW110128   0.725   0.593   0.779  0.0791  1.3154  0.9375
 2818SOL    HW210129   0.662   0.546   0.908  1.2318 -0.5325  0.8711
 2819SOL     OW10130   3.971   1.400   5.453  0.2221 -0.5037  0.3983
 2819SOL    HW110131   3.945   1.328   5.395  1.6733 -1.4839  0.8973
 2819SOL    HW210132   4.066   1.405   5.442  0.0066  2.5169 -0.9365
 2820SOL     OW10133   7.077   2.994   0.994  0.3849 -0.5471  0.0757
 2820SOL    HW110134   7.145   2.928   1.009 -0.6367 -1.9644 -1.2255
 2820SOL    HW210135   7.015   2.982   1.066  1.2770  0.5101  1.0641
 2821SOL     OW10136   0.376   3.876   7.742 -0.5378 -0.3809  0.1081
 2821SOL    HW110137   0.353   3.848   7.653 -0.9463 -1.2067  0.4629
 2821SOL    HW210138   0.349   3.968   7.746 -0.3694 -0.2959 -0.6729
 2822SOL     OW10139   0.330   8.298   1.203  0.5263  0.0603 -0.0483
 2822SOL    HW110140   0.274   8.327   1.132  1.1594  1.4533 -0.0255
 2822SOL    HW210141   0.340   8.204   1.190 -1.6899 -0.2136 -0.0974
 2823SOL     OW10142   3.251   9.390   5.848 -0.0291 -0.1037  0.5099
 2823SOL    HW110143   3.165   9.414   5.815 -0.8191 -2.4502  0.6864
 2823SOL    HW210144   3.247   9.409   5.942  0.1511  1.0815  0.2852
 2824SOL     OW10145   4.867   7.154   3.050  0.7707  0.3700  0.9626
 2824SOL    HW110146   4.897   7.218   2.985  1.8372  0.2525  1.3180
 2824SOL    HW210147   4.829   7.207   3.120 -1.6903  0.4680 -0.3001
 2825SOL     OW10148   8.637   3.532   3.945  0.2663 -0.3064 -0.2991
 2825SOL    HW110149   8.653   3.452   3.995 -1.6430 -0.3163  0.3760
 2825SOL    HW210150   8.699   3.596   3.982 -0.2625 -0.6599  1.2568
 2826SOL     OW10151   0.220   6.719   3.800  0.5789 -0.0216 -0.2973
 2826SOL    HW110152   0.263   6.695   3.717  0.9097 -2.4755  0.5191
 2826SOL    HW210153   0.271   6.674   3.867 -0.6529  0.6292  1.1205
 2827SOL     OW10154   6.788   5.185   7.598 -1.0516  0.4067 -0.4347
 2827SOL    HW110155   6.853   5.205   7.531 -1.1152 -0.6374 -0.8250
 2827SOL    HW210156   6.838   5.148   7.670 -1.2341 -0.9974 -0.9815
 2828SOL     OW10157   1.751   9.102   8.482  0.3764  0.1269  0.0972
 2828SOL    HW110158   1.809   9.155   8.428 -0.7223  0.4186 -0.8491
 2828SOL    HW210159   1.802   9.081   8.560  1.3270  1.3649 -0.1656
 2829SOL     OW10160   2.659   1.869   1.802 -0.3376  0.1815 -0.4308
 2829SOL    HW110161   2.641   1.777   1.820 -0.3086  0.4312  0.9583
 2829SOL    HW210162   2.579   1.901   1.760 -1.3489  0.1038  1.3216
 2830SOL     OW10163   5.215   2.573   5.961  0.0042  0.5034 -0.5706
 2830SOL    HW110164   5.130   2.575   6.006  0.0338  1.5782 -0.5289
 2830SOL    HW210165   5.201   2.519   5.884 -0.3910 -0.3166  0.0557
 2831SOL     OW10166   4.393   7.318   6.805  0.2928  0.0590  0.2540
 2831SOL    HW110167   4.464   7.267   6.844  0.4041 -0.2513 -0.3438
 2831SOL    HW210168   4.414   7.321   6.711  0.0418  0.8120  0.2141
 2832SOL     OW10169   0.871   0.342   5.448  0.0198 -0.2437  0.0827
 2832SOL    HW110170   0.963   0.333   5.423  0.5636 -0.2240  1.8945
 2832SOL    HW210171   0.824   0.282   5.390  1.0731  0.2079 -1.3020
 2833SOL     OW10172   9.379   6.105   7.600  0.2401 -0.0700  0.0042
 2833SOL    HW110173   9.310   6.062   7.651  0.8843 -0.5553  0.4808
 2833SOL    HW210174   9.460   6.077   7.642  0.7556 -0.0207 -0.9491
 2834SOL     OW10175   4.795   0.225   6.252 -0.0587  0.5037 -0.1743
 2834SOL    HW110176   4.828   0.156   6.310  0.0769  1.3096  0.7260
 2834SOL    HW210177   4.860   0.295   6.258  1.4186 -0.3949 -3.4325
 2835SOL     OW10178   7.025   7.823   5.589  0.6881 -0.1667  0.0139
 2835SOL    HW110179   7.016   7.888   5.519 -1.1151 -0.9593 -0.5446
 2835SOL    HW210180   7.102   7.852   5.639  1.3352  1.0498 -1.6091
 2836SOL     OW10181   6.799   6.298   2.741 -0.4503  0.5425 -0.4256
 2836SOL    HW110182   6.742   6.337   2.807  0.4364  0.2891  0.5295
 2836SOL    HW210183   6.879   6.350   2.745 -0.3354  0.4510 -1.2358
 2837SOL     OW10184   5.711   1.114   0.517 -0.2897  0.3867 -0.0476
 2837SOL    HW110185   5.682   1.203   0.539 -1.1502 -0.4158  2.5282
 2837SOL    HW210186   5.806   1.116   0.528 -0.3410  0.9415  0.3507
 2838SOL     OW10187   2.861   0.352   3.285 -0.3770  0.8842 -0.1417
 2838SOL    HW110188   2.918   0.419   3.322 -0.7650  0.7241  0.7745
 2838SOL    HW210189   2.914   0.273   3.283 -0.3866  0.8697  0.1749
 2839SOL     OW10190   4.597   5.107   4.036 -0.1113 -0.6414 -0.3105
 2839SOL    HW110191   4.628   5.126   4.124 -0.5558 -0.9240 -0.0879
 2839SOL    HW210192   4.658   5.041   4.003  1.6641  1.3176 -1.2250
 2840SOL     OW10193   1.788   5.588   2.590 -0.3182  0.0926  0.0852
 2840SOL    HW110194   1.860   5.602   2.528  0.6355 -0.9144  0.9090
 2840SOL    HW210195   1.754   5.501   2.567 -0.6926  0.1927  0.2585
 2841SOL     OW10196   1.559   8.402   5.480  0.0100  0.4665  0.1220
 2841SOL    HW110197   1.607   8.460   5.539 -0.6278 -0.8794  2.0849
 2841SOL    HW210198   1.609   8.320   5.482 -2.7242 -1.3353  3.0643
 2842SOL     OW10199   6.713   1.925   5.905  0.1604 -0.2640  0.9808
 2842SOL    HW110200   6.722   1.896   5.814  1.4366  0.3737  0.8702
 2842SOL    HW210201   6.688   2.017   5.899  0.0365 -0.2767  1.2753
 2843SOL     OW10202   3.010   4.062   7.615 -0.6825 -0.2052 -0.5500
 2843SOL    HW110203   3.096   4.066   7.572 -0.9957  1.9369 -1.0685
 2843SOL    HW210204   3.028   4.082   7.707 -0.5674 -0.2286 -0.5675
 2844SOL     OW10205   7.985   0.171   4.277  0.1044  0.4335  0.0044
 2844SOL    HW110206   7.994   0.122   4.195  1.6979  1.6191 -0.5785
 2844SOL    HW210207   7.893   0.160   4.301 -0.1767 -0.7523 -1.4117
 2845SOL     OW10208   5.022   5.562   3.030 -0.0749  0.3795 -0.3487
 2845SOL    HW110209   4.983   5.635   2.983  0.6756  0.8832 -0.2017
 2845SOL    HW210210   4.952   5.497   3.035 -0.6478  0.9501 -0.7692
 2846SOL     OW10211   7.770   8.672   2.156  0.4886 -0.6462 -0.4635
 2846SOL    HW110212   7.817   8.754   2.176  0.9114 -0.9708 -0.1087
 2846SOL    HW210213   7.831   8.624   2.100  0.3812 -0.8661 -0.3903
 2847SOL     OW10214   0.027   3.648   3.090  0.6291 -0.4424 -0.2988
 2847SOL    HW110215   0.101   3.704   3.113  0.9277 -0.5730 -0.9328
 2847SOL    HW210216   0.061   3.590   3.022 -0.0107 -0.6226 -0.4692
 2848SOL     OW10217   1.737   4.795   6.831 -0.4008  0.2207  0.3457
 2848SOL    HW110218   1.710   4.739   6.758 -1.1782 -0.6423  1.2626
 2848SOL    HW210219   1.810   4.847   6.796  0.5719 -1.5958 -0.4412
 2849SOL     OW10220   0.264   9.100   5.816 -0.1754  0.2968  0.1114
 2849SOL    HW110221   0.201   9.158   5.775  0.7934  0.8826 -0.6075
 2849SOL    HW210222   0.279   9.138   5.903 -0.4593  0.4202  0.1052
 2850SOL     OW10223   4.285   9.614   3.616  0.0804  0.0092  0.0055
 2850SOL    HW110224   4.338   9.642   3.541  0.1211 -1.6045 -0.6221
 2850SOL    HW210225   4.250   9.695   3.652  3.5298  1.2964  0.9274
 2851SOL     OW10226   6.734   3.157   7.933  0.4406  0.9360 -0.0873
 2851SOL    HW110227   6.808   3.171   7.992  0.4681 -0.3535  0.2235
 2851SOL    HW210228   6.773   3.163   7.845  0.5398  2.1164  0.0211
 2852SOL     OW10229   5.695   2.525   8.289  0.3482 -0.2730 -0.1156
 2852SOL    HW110230   5.658   2.595   8.343 -0.5171 -0.5592 -0.3134
 2852SOL    HW210231   5.622   2.496   8.234  1.2239  0.0351 -1.4750
 2853SOL     OW10232   2.039   5.624   0.163 -0.4766 -0.2884 -0.2833
 2853SOL    HW110233   2.051   5.546   0.216 -0.0133 -0.1899 -0.2358
 2853SOL    HW210234   2.107   5.618   0.096 -0.9625 -0.3363 -0.7716
 2854SOL     OW10235   7.987   3.579   5.139 -0.0788 -0.0753  0.3970
 2854SOL    HW110236   8.055   3.642   5.161  0.3244 -0.3283 -0.1231
 2854SOL    HW210237   7.913   3.633   5.112  0.7188  0.1871 -1.3996
 2855SOL     OW10238   4.742   4.481   7.136  0.0032  0.4880  0.5435
 2855SOL    HW110239   4.734   4.413   7.069 -0.1365  1.3290 -0.3153
 2855SOL    HW210240   4.830   4.517   7.123 -0.5796  1.6896 -0.2182
 2856SOL     OW10241   6.007   0.313   4.790  0.3540  0.2569 -0.3282
 2856SOL    HW110242   6.023   0.407   4.797  2.0445  0.1032 -1.4621
 2856SOL    HW210243   6.041   0.277   4.872  0.5969  0.5485 -0.2987
 2857SOL     OW10244   1.081   5.777   5.741  0.6721 -0.1362  0.2823
 2857SOL    HW110245   0.995   5.747   5.771  1.4007 -2.5643  0.1553
 2857SOL    HW210246   1.105   5.846   5.803 -1.1815  0.3773  0.5191
 2858SOL     OW10247   0.508   2.978   8.777  0.0437 -0.4783 -0.5423
 2858SOL    HW110248   0.540   3.065   8.752  1.3021 -0.7854 -0.0425
 2858SOL    HW210249   0.419   2.975   8.742  0.1576  0.8212 -1.0032
 2859SOL     OW10250   7.627   6.228   1.721 -0.0450  0.2305  0.7473
 2859SOL    HW110251   7.671   6.312   1.710 -0.3579  0.6290  2.2747
 2859SOL    HW210252   7.534   6.247   1.712 -0.1861  0.2542  2.0346
 2860SOL     OW10253   0.615   0.844   2.118 -0.5794 -0.0518  0.3796
 2860SOL    HW110254   0.663   0.894   2.052 -0.3510 -1.1349 -0.2979
 2860SOL    HW210255   0.626   0.894   2.199  0.6152  0.3889 -0.0364
 2861SOL     OW10256   3.408   2.775   4.895  0.1361 -0.3916  0.4912
 2861SOL    HW110257   3.349   2.846   4.922  0.2647 -0.6994  1.6141
 2861SOL    HW210258   3.495   2.804   4.924  0.2579 -0.8036  0.5434
 2862SOL     OW10259   2.193   0.254   5.421  0.4554 -0.1835 -0.2325
 2862SOL    HW110260   2.253   0.181   5.436  1.4571  0.5682 -0.4685
 2862SOL    HW210261   2.245   0.319   5.374  0.4891  1.8736  2.3629
 2863SOL     OW10262   8.493   3.306   7.887  0.5818  0.0919 -0.0515
 2863SOL    HW110263   8.565   3.333   7.944  1.0858 -0.8404 -0.2334
 2863SOL    HW210264   8.506   3.357   7.807  0.1097  1.0970  0.4878
 2864SOL     OW10265   2.526   2.734   9.560 -0.7150 -0.3392 -0.4030
 2864SOL    HW110266   2.514   2.726   9.465 -1.2559  0.3605 -0.3983
 2864SOL    HW210267   2.480   2.814   9.583 -0.7341 -0.6024  0.4845
 2865SOL     OW10268   5.381   9.088   4.066 -0.1822  0.3812 -0.4354
 2865SOL    HW110269   5.436   9.010   4.058  1.9749  1.7913 -0.1048
 2865SOL    HW210270   5.371   9.119   3.976 -0.4250  0.1567 -0.4893
 2866SOL     OW10271   2.096   4.351   1.426 -0.4895 -0.5362 -0.0013
 2866SOL    HW110272   2.066   4.375   1.339  1.1907 -0.1671 -0.5051
 2866SOL    HW210273   2.145   4.270   1.413  1.8312  0.7747  0.1644
 2867SOL     OW10274   5.875   8.687   5.177  0.2550  0.4627 -0.1742
 2867SOL    HW110275   5.820   8.764   5.189 -0.5351 -0.0304 -0.5509
 2867SOL    HW210276   5.848   8.650   5.093  1.2644  0.2854 -0.4369
 2868SOL     OW10277   8.880   6.079   1.650  0.5647 -0.6540 -0.0751
 2868SOL    HW110278   8.790   6.065   1.681  0.9966 -1.7201  0.7689
 2868SOL    HW210279   8.898   6.171   1.671 -0.3273 -0.4172 -0.2706
 2869SOL     OW10280   4.628   7.042   1.627 -0.1964  0.3168 -0.1197
 2869SOL    HW110281   4.681   6.999   1.559  1.5511  1.6661  0.2853
 2869SOL    HW210282   4.539   7.010   1.613  0.3312 -0.3819 -2.2680
 2870SOL     OW10283   5.200   8.110   3.670  0.5224  0.0945  0.2736
 2870SOL    HW110284   5.159   8.129   3.754 -0.3379  0.1771 -0.1509
 2870SOL    HW210285   5.147   8.038   3.633  1.3298 -0.4412  0.1233
 2871SOL     OW10286   7.661   1.712   7.532 -0.1362 -0.1167  0.1602
 2871SOL    HW110287   7.572   1.723   7.566 -0.4828  1.3281 -1.0739
 2871SOL    HW210288   7.683   1.798   7.495  0.6562 -1.2296 -2.1441
 2872SOL     OW10289   5.766   4.370   5.558  0.2856 -0.0487  1.1096
 2872SOL    HW110290   5.719   4.391   5.639  0.2812  1.0144  0.8402
 2872SOL    HW210291   5.858   4.386   5.578  0.2302  0.7812  0.7442
 2873SOL     OW10292   7.224   2.084   1.174 -0.2539  0.2799 -0.0285
 2873SOL    HW110293   7.154   2.087   1.238 -1.2891  0.2727 -1.1189
 2873SOL    HW210294   7.181   2.103   1.090  1.2112  1.3017 -0.5948
 2874SOL     OW10295   3.832   3.457   8.776  0.2293  0.8845 -0.2351
 2874SOL    HW110296   3.864   3.422   8.860  0.0661 -0.0075 -0.5363
 2874SOL    HW210297   3.754   3.405   8.757  0.3673  0.9709 -1.0349
 2875SOL     OW10298   4.260   0.445   5.742  0.1389  0.4435  0.3322
 2875SOL    HW110299   4.172   0.446   5.780 -0.1469 -1.4144 -0.2130
 2875SOL    HW210300   4.277   0.353   5.722  1.5765  0.9696 -1.0455
 2876SOL     OW10301   1.960   0.697   2.732 -0.1640 -0.7528 -0.3043
 2876SOL    HW110302   1.916   0.612   2.735  1.5402 -1.6869 -0.2977
 2876SOL    HW210303   2.017   0.692   2.655  0.4345  0.1223  0.0683
 2877SOL     OW10304   8.202   9.434   3.543 -0.3126 -0.4072 -0.1205
 2877SOL    HW110305   8.289   9.455   3.508  0.1194 -1.3596  0.3370
 2877SOL    HW210306   8.145   9.502   3.508  0.7234  0.5725  0.0476
 2878SOL     OW10307   0.450   1.831   5.258 -0.4621 -0.3835 -0.5769
 2878SOL    HW110308   0.486   1.920   5.258  1.6622 -1.1237  1.5819
 2878SOL    HW210309   0.469   1.798   5.170  1.9724  0.1524 -0.3260
 2879SOL     OW10310   2.756   8.742   8.679  0.3909 -0.1474 -0.0955
 2879SOL    HW110311   2.729   8.803   8.610  1.0747  0.7445  0.4242
 2879SOL    HW210312   2.836   8.702   8.645 -0.1345 -0.9005 -0.5012
 2880SOL     OW10313   2.190   7.944   2.738  0.3992 -0.0986 -0.5707
 2880SOL    HW110314   2.171   7.854   2.711  1.2712 -0.5237  0.1554
 2880SOL    HW210315   2.232   7.935   2.824  0.6284  0.9954 -0.5471
 2881SOL     OW10316   7.271   3.009   8.915  0.2675  0.5533 -0.3583
 2881SOL    HW110317   7.181   2.997   8.942  0.4485 -0.7076 -0.2758
 2881SOL    HW210318   7.275   3.100   8.885 -1.1492  0.4662 -0.8720
 2882SOL     OW10319   7.786   6.473   0.580 -0.8238  0.0002  0.2213
 2882SOL    HW110320   7.864   6.489   0.634  0.7537  0.2780 -2.0235
 2882SOL    HW210321   7.772   6.378   0.586  1.8484 -0.6587 -2.0093
 2883SOL     OW10322   5.151   9.164   3.122  0.2324 -0.1780  0.1320
 2883SOL    HW110323   5.098   9.144   3.046 -0.0626  0.8218  0.0601
 2883SOL    HW210324   5.217   9.226   3.091 -0.0412  0.4338  0.7213
 2884SOL     OW10325   7.695   3.019   4.343  0.0182  0.7398 -0.4010
 2884SOL    HW110326   7.606   3.046   4.320 -0.4103 -1.0260 -1.0674
 2884SOL    HW210327   7.692   3.003   4.437 -0.5479  0.2130 -0.4944
 2885SOL     OW10328   7.381   0.167   7.780  0.4582 -0.2099 -0.2077
 2885SOL    HW110329   7.419   0.247   7.815 -0.3347  1.5193 -3.0054
 2885SOL    HW210330   7.287   0.176   7.796  0.1237  0.4351 -2.2002
 2886SOL     OW10331   8.585   8.606   5.417  0.5790 -0.2555 -0.1909
 2886SOL    HW110332   8.633   8.600   5.335  0.5058 -1.2387 -0.1657
 2886SOL    HW210333   8.494   8.615   5.391  0.6317  0.2570 -0.2180
 2887SOL     OW10334   4.386   7.414   5.573 -0.2773 -0.5942 -0.4557
 2887SOL    HW110335   4.293   7.437   5.570  0.0588  0.7286 -2.1855
 2887SOL    HW210336   4.388   7.320   5.555 -1.3829 -1.2191  2.1161
 2888SOL     OW10337   5.673   6.300   9.098 -0.0663  0.0718  0.0330
 2888SOL    HW110338   5.635   6.265   9.179  0.3024 -0.1832  0.0986
 2888SOL    HW210339   5.678   6.394   9.113  2.2055 -0.1738  1.2878
 2889SOL     OW10340   8.154   7.180   2.912  0.5621  0.7010  0.0597
 2889SOL    HW110341   8.122   7.172   2.823 -0.2878  0.5067  0.3695
 2889SOL    HW210342   8.242   7.215   2.903  0.9315 -0.4332 -0.9004
 2890SOL     OW10343   0.601   7.608   6.985 -0.4608 -0.2680 -0.2501
 2890SOL    HW110344   0.598   7.525   7.032 -1.5511  0.5443  1.2232
 2890SOL    HW210345   0.629   7.672   7.050 -1.1898  0.7763 -0.9213
 2891SOL     OW10346   7.170   7.016   8.084 -0.7954 -0.2282 -0.1401
 2891SOL    HW110347   7.101   7.022   8.150 -0.6062  0.1293  0.0282
 2891SOL    HW210348   7.233   7.083   8.110  0.2718 -1.4426  0.4680
 2892SOL     OW10349   7.885   2.216   5.153  0.5527  0.6250  0.5975
 2892SOL    HW110350   7.960   2.272   5.171  1.9876 -0.2423 -2.1957
 2892SOL    HW210351   7.883   2.207   5.058 -1.3898 -1.6837  0.7424
 2893SOL     OW10352   8.179   8.030   7.256  0.1725  0.0168 -0.3559
 2893SOL    HW110353   8.106   7.994   7.205  0.2258  0.1757 -0.5461
 2893SOL    HW210354   8.240   7.957   7.266  1.0048  0.4331 -2.0570
 2894SOL     OW10355   7.287   4.079   3.934 -0.3987  0.0989 -0.6755
 2894SOL    HW110356   7.200   4.117   3.938 -0.1426  0.6269  0.0438
 2894SOL    HW210357   7.313   4.088   3.842 -0.8186  0.5839 -0.7499
 2895SOL     OW10358   2.674   6.982   8.893  0.1650  0.4623  0.0650
 2895SOL    HW110359   2.672   6.925   8.816  0.5885  0.5669 -0.0249
 2895SOL    HW210360   2.584   6.981   8.927 -0.0761  0.5949 -0.5627
 2896SOL     OW10361   3.674   5.572   5.130  0.0189  0.5052 -0.7316
 2896SOL    HW110362   3.645   5.481   5.135  0.3183  0.3894  3.6797
 2896SOL    HW210363   3.610   5.615   5.075 -2.1478 -1.7877 -0.2119
 2897SOL     OW10364   1.960   3.542   0.239  0.4680  0.2522 -0.4129
 2897SOL    HW110365   1.867   3.533   0.216  0.7090 -2.5753 -0.6764
 2897SOL    HW210366   1.963   3.618   0.296 -2.0580  0.3363 -0.2617
 2898SOL     OW10367   6.614   2.976   2.833 -0.2470  0.0581 -0.0096
 2898SOL    HW110368   6.656   2.900   2.874  2.6130  1.5665  0.0760
 2898SOL    HW210369   6.642   3.051   2.885 -1.9305  1.3480 -0.8555
 2899SOL     OW10370   1.173   7.628   5.155  0.2235  0.4197 -0.1590
 2899SOL    HW110371   1.147   7.538   5.136  0.2277  0.1482  1.0440
 2899SOL    HW210372   1.259   7.638   5.113  0.4089 -0.2659  0.0553
 2900SOL     OW10373   3.387   0.976   6.882  0.0664  0.4887 -0.2498
 2900SOL    HW110374   3.400   0.966   6.788 -1.8127  1.3479 -0.6459
 2900SOL    HW210375   3.359   0.889   6.911  0.2792  0.3195 -0.5415
 2901SOL     OW10376   9.024   7.449   6.951  0.5160 -0.0839  0.2933
 2901SOL    HW110377   8.944   7.499   6.932 -0.6559 -1.3478  1.6448
 2901SOL    HW210378   9.034   7.457   7.046 -0.1543 -2.9471  0.7017
 2902SOL     OW10379   9.449   8.230   6.522 -0.4280  0.0818  0.1258
 2902SOL    HW110380   9.527   8.202   6.474 -0.6769  0.3413 -0.4409
 2902SOL    HW210381   9.410   8.298   6.467 -0.7250  0.3821  0.6957
 2903SOL     OW10382   7.724   8.964   9.671 -0.0698 -0.2419  0.2053
 2903SOL    HW110383   7.739   8.982   9.578 -2.9254  1.5979 -0.0221
 2903SOL    HW210384   7.674   8.882   9.672  0.4047 -0.5356  0.1742
 2904SOL     OW10385   6.840   5.556   3.756  0.2342  0.0383  0.1456
 2904SOL    HW110386   6.774   5.592   3.815  0.8674  1.9958 -0.2643
 2904SOL    HW210387   6.922   5.595   3.785  0.4360  1.8769 -2.5516
 2905SOL     OW10388   6.279   3.808   9.589  0.9075 -0.2034 -0.0638
 2905SOL    HW110389   6.189   3.794   9.619  1.1915 -1.3388  0.2966
 2905SOL    HW210390   6.270   3.823   9.495  0.4507 -1.9243 -0.3409
 2906SOL     OW10391   3.145   7.644   7.713 -0.1689  0.0119  0.5971
 2906SOL    HW110392   3.228   7.618   7.753 -0.3836  2.0951  2.6068
 2906SOL    HW210393   3.087   7.569   7.728  1.3276 -1.5676 -1.0580
 2907SOL     OW10394   4.435   5.005   2.210 -0.2108 -0.5452 -0.9850
 2907SOL    HW110395   4.467   5.069   2.273 -1.2453  0.6056 -1.5868
 2907SOL    HW210396   4.512   4.952   2.189  0.4701 -0.0688  0.1787
 2908SOL     OW10397   7.912   1.501   3.168  1.0723  0.0043  0.4832
 2908SOL    HW110398   7.830   1.509   3.120 -0.4393  0.8055  2.9963
 2908SOL    HW210399   7.972   1.457   3.107 -0.9361  0.1537 -1.7332
 2909SOL     OW10400   7.321   5.669   8.771  0.1057 -0.1698  0.3473
 2909SOL    HW110401   7.231   5.684   8.801  1.0785  3.7763  1.8422
 2909SOL    HW210402   7.323   5.705   8.683  0.0628 -1.1139 -0.0550
 2910SOL     OW10403   5.237   4.285   4.792  0.0392 -0.1769  0.3955
 2910SOL    HW110404   5.169   4.243   4.846  0.5690 -2.7405 -0.7564
 2910SOL    HW210405   5.301   4.318   4.855 -1.2699  0.4784  1.4219
 2911SOL     OW10406   5.720   9.446   0.389  0.1437  0.9143 -0.1193
 2911SOL    HW110407   5.758   9.359   0.377 -1.0016  0.2209  1.0100
 2911SOL    HW210408   5.741   9.469   0.479 -0.3727  1.3828 -0.1159
 2912SOL     OW10409   6.483   1.562   2.400 -0.2949  0.3878  0.5407
 2912SOL    HW110410   6.529   1.584   2.320  1.2844 -1.1255  0.9652
 2912SOL    HW210411   6.481   1.643   2.451 -2.5360  1.7463 -1.5031
 2913SOL     OW10412   9.113   7.601   2.235  0.1412 -0.4720  0.3649
 2913SOL    HW110413   9.057   7.545   2.289 -0.0060 -0.1252  0.5760
 2913SOL    HW210414   9.162   7.654   2.298 -1.8883  1.7683  0.1814
 2914SOL     OW10415   1.840   7.651   6.293  0.2922 -0.0993  0.1431
 2914SOL    HW110416   1.814   7.560   6.307 -0.0163  0.0126  0.2973
 2914SOL    HW210417   1.776   7.703   6.342  0.0147  0.2339 -0.5516
 2915SOL     OW10418   2.627   1.891   0.915 -0.3651  0.0275 -0.3779
 2915SOL    HW110419   2.595   1.877   1.005 -0.3426 -1.5633 -0.5912
 2915SOL    HW210420   2.590   1.976   0.890 -1.8300 -0.2990  0.5288
 2916SOL     OW10421   9.667   0.212   6.486  0.0148 -0.7920 -0.0409
 2916SOL    HW110422   9.735   0.270   6.519  2.0834 -2.7763 -0.5396
 2916SOL    HW210423   9.715   0.141   6.444 -2.3953 -2.4000 -0.2685
 2917SOL     OW10424   3.351   0.539   9.168  0.7824  0.4269 -0.0478
 2917SOL    HW110425   3.301   0.611   9.129  2.1668  0.0483 -2.7899
 2917SOL    HW210426   3.354   0.560   9.262 -0.3825  2.9619 -0.4764
 2918SOL     OW10427   2.665   1.921   2.066  0.9977 -0.1669 -0.7703
 2918SOL    HW110428   2.673   1.931   1.971 -1.3899  1.9223 -0.8489
 2918SOL    HW210429   2.589   1.975   2.090  1.3693 -0.8192  2.3079
 2919SOL     OW10430   5.924   5.358   6.145 -0.0819  0.1794 -0.2378
 2919SOL    HW110431   5.851   5.406   6.105  0.1876  0.1024 -0.8233
 2919SOL    HW210432   6.002   5.401   6.112  0.1668 -0.7176 -0.8561
 2920SOL     OW10433   4.676   8.211   7.734 -0.4752 -0.0047  0.1111
 2920SOL    HW110434   4.693   8.292   7.782  0.5725 -0.0846 -0.1189
 2920SOL    HW210435   4.760   8.167   7.729 -0.8165 -0.5956 -0.7301
 2921SOL     OW10436   4.927   0.690   0.116 -0.1106  0.1087  0.0410
 2921SOL    HW110437   4.985   0.648   0.053  0.0021  1.2168 -0.6066
 2921SOL    HW210438   4.970   0.677   0.201  0.6857  0.2302 -0.3387
 2922SOL     OW10439   6.804   3.241   6.399  0.1422  0.9053  0.1568
 2922SOL    HW110440   6.796   3.289   6.316  0.0583  0.4122 -0.1277
 2922SOL    HW210441   6.739   3.171   6.392  1.2935 -0.1934 -0.1116
 2923SOL     OW10442   2.704   6.083   5.723  0.4696 -0.2794 -0.0052
 2923SOL    HW110443   2.736   6.050   5.807 -0.0782  0.9148  0.6993
 2923SOL    HW210444   2.666   6.168   5.744  0.1271 -0.0585 -1.4375
 2924SOL     OW10445   0.785   6.006   3.660 -0.0562 -0.4754 -0.0383
 2924SOL    HW110446   0.720   5.970   3.600 -0.0589  0.2061 -0.4592
 2924SOL    HW210447   0.734   6.055   3.724 -0.0497 -1.1614  0.5065
 2925SOL     OW10448   1.675   1.551   8.147 -0.2972  0.0389 -0.2290
 2925SOL    HW110449   1.757   1.577   8.189 -0.2668 -2.0386  1.1686
 2925SOL    HW210450   1.607   1.569   8.212 -1.3169  3.2837 -1.9553
 2926SOL     OW10451   8.075   1.942   2.079 -0.1584 -0.0707 -0.2909
 2926SOL    HW110452   8.112   1.929   1.992 -1.5286  0.9144 -1.0506
 2926SOL    HW210453   8.151   1.962   2.134  0.7362 -0.7917 -1.2178
 2927SOL     OW10454   4.630   7.944   0.592  0.8921  0.4973 -0.7540
 2927SOL    HW110455   4.686   7.908   0.660 -0.5244 -1.8038 -0.6899
 2927SOL    HW210456   4.633   7.880   0.521 -1.6591  0.2003 -0.6975
 2928SOL     OW10457   5.654   7.451   8.362  0.7054 -0.2182 -0.8105
 2928SOL    HW110458   5.580   7.480   8.417  0.0473 -1.8896 -0.7646
 2928SOL    HW210459   5.618   7.446   8.274 -0.0044 -3.3923 -0.4342
 2929SOL     OW10460   9.229   6.384   1.885  0.0288  0.1771 -0.1600
 2929SOL    HW110461   9.299   6.328   1.918  0.9410  2.3234  1.8995
 2929SOL    HW210462   9.149   6.332   1.896  0.8788 -0.9227  1.1488
 2930SOL     OW10463   5.126   6.175   4.561  0.1440  0.2261 -0.8752
 2930SOL    HW110464   5.158   6.211   4.644 -0.2554  1.3901 -1.2157
 2930SOL    HW210465   5.190   6.203   4.496 -0.0655  0.1422 -1.1195
 2931SOL     OW10466   7.646   0.146   6.158  0.5276  0.4601  0.6491
 2931SOL    HW110467   7.643   0.184   6.070  1.0960  0.0779  0.4562
 2931SOL    HW210468   7.665   0.053   6.143  1.3157  0.5182  1.1916
 2932SOL     OW10469   5.586   1.456   6.693  0.5164 -0.2476  0.6862
 2932SOL    HW110470   5.506   1.449   6.641  0.2825  0.3491  0.9535
 2932SOL    HW210471   5.566   1.406   6.773  1.1569 -1.8194 -0.1102
 2933SOL     OW10472   6.755   3.894   4.093  0.2978 -0.0866 -0.4978
 2933SOL    HW110473   6.844   3.924   4.110  0.5431 -0.6324 -0.7838
 2933SOL    HW210474   6.719   3.958   4.032 -0.2719  1.3627  1.2733
 2934SOL     OW10475   2.555   6.247   3.778  0.0117 -0.1648  0.7139
 2934SOL    HW110476   2.484   6.283   3.724  1.6105 -0.2054 -1.5463
 2934SOL    HW210477   2.515   6.174   3.825 -2.0983  1.5039  1.7049
 2935SOL     OW10478   5.647   0.441   4.217  0.1572 -1.2471 -0.1296
 2935SOL    HW110479   5.553   0.433   4.233  0.4074 -0.3209  2.3083
 2935SOL    HW210480   5.667   0.374   4.151 -1.9622 -2.4208  0.3486
 2936SOL     OW10481   3.145   5.190   1.199 -0.0959 -0.1989  0.4381
 2936SOL    HW110482   3.101   5.258   1.249  0.3767 -0.1035  0.7351
 2936SOL    HW210483   3.174   5.234   1.118  0.7745  0.1311  0.9121
 2937SOL     OW10484   0.707   6.431   0.333 -0.1689 -0.2641  0.1735
 2937SOL    HW110485   0.742   6.380   0.406 -1.7491  2.0372  2.7282
 2937SOL    HW210486   0.613   6.413   0.335 -0.3135  0.3088 -0.9034
 2938SOL     OW10487   8.709   2.429   2.565  0.4721  0.4809 -0.5366
 2938SOL    HW110488   8.796   2.417   2.527  1.2069  0.7583  0.9634
 2938SOL    HW210489   8.657   2.356   2.530  1.8825 -0.9036  0.1268
 2939SOL     OW10490   4.201   7.982   1.267 -0.0177 -0.2118 -0.6241
 2939SOL    HW110491   4.202   8.058   1.326  1.2042 -1.4128  0.9922
 2939SOL    HW210492   4.221   8.018   1.181  1.5317  1.1947  0.2719
 2940SOL     OW10493   7.093   1.997   5.577 -0.0171 -0.0285 -0.3577
 2940SOL    HW110494   7.161   2.037   5.525  0.8811  0.6548  1.2661
 2940SOL    HW210495   7.139   1.954   5.649 -1.2008 -0.8291 -0.0368
 2941SOL     OW10496   4.420   4.003   9.339 -0.5327 -0.2097 -0.4660
 2941SOL    HW110497   4.456   3.995   9.250  0.1128  0.0416 -0.2328
 2941SOL    HW210498   4.494   4.033   9.392 -1.0976  0.3330  0.0229
 2942SOL     OW10499   8.170   7.519   7.403  0.0830  0.0507  0.1555
 2942SOL    HW110500   8.075   7.530   7.402 -0.2190 -2.1887  0.4777
 2942SOL    HW210501   8.198   7.564   7.484 -0.7171  0.5144  0.1850
 2943SOL     OW10502   1.895   8.027   3.442  0.3564  0.1862  0.4221
 2943SOL    HW110503   1.980   8.030   3.399  0.1352 -0.4019 -0.0822
 2943SOL    HW210504   1.876   7.933   3.450  0.4809  0.2764  1.9986
 2944SOL     OW10505   3.969   5.874   3.800 -0.2204 -0.1121 -0.0767
 2944SOL    HW110506   4.053   5.882   3.845 -0.3310  0.7941 -0.0228
 2944SOL    HW210507   3.992   5.852   3.710  0.1295  1.1223 -0.3067
 2945SOL     OW10508   5.789   8.364   7.928  0.1539 -0.2978 -0.4437
 2945SOL    HW110509   5.700   8.360   7.894 -0.1362  1.6198 -0.0247
 2945SOL    HW210510   5.844   8.343   7.852 -0.6193 -0.6608 -0.9181
 2946SOL     OW10511   8.203   0.324   7.733 -0.0106 -0.1786 -0.4729
 2946SOL    HW110512   8.210   0.257   7.665  2.1817  1.2730 -1.8067
 2946SOL    HW210513   8.279   0.309   7.790 -1.0893 -0.5575  0.9110
 2947SOL     OW10514   5.339   9.091   0.814  0.0111 -0.4842 -0.0166
 2947SOL    HW110515   5.380   9.067   0.897  1.5100 -1.5453 -1.0057
 2947SOL    HW210516   5.413   9.106   0.755 -0.9902  1.3145 -0.9121
 2948SOL     OW10517   9.023   4.102   2.792  0.3198 -0.4240 -0.9048
 2948SOL    HW110518   8.943   4.076   2.838  0.1759  0.7823 -0.4580
 2948SOL    HW210519   9.052   4.182   2.836  1.1959 -0.2645 -1.7345
 2949SOL     OW10520   4.320   2.889   3.283 -1.0043 -0.2835 -0.5521
 2949SOL    HW110521   4.363   2.857   3.203 -2.0770 -0.6752 -0.9918
 2949SOL    HW210522   4.292   2.978   3.261 -0.6482 -0.1193 -0.3510
 2950SOL     OW10523   2.129   3.973   2.626 -0.3094 -0.0841 -0.0930
 2950SOL    HW110524   2.146   4.067   2.636  0.1849 -0.1450 -0.3665
 2950SOL    HW210525   2.149   3.936   2.712  1.4936 -0.2336 -0.5375
 2951SOL     OW10526   6.073   8.598   0.561  0.3317 -0.5508 -0.0347
 2951SOL    HW110527   6.044   8.549   0.638 -1.5569 -0.9171 -0.9292
 2951SOL    HW210528   6.013   8.673   0.555 -0.3332 -1.1710 -1.7896
 2952SOL     OW10529   5.056   1.524   0.747  0.7229  0.4817  0.1792
 2952SOL    HW110530   4.985   1.535   0.811  1.3201 -1.0689  1.1809
 2952SOL    HW210531   5.095   1.611   0.738 -1.0662  1.2858 -0.1259
 2953SOL     OW10532   7.143   5.381   0.475 -0.0116 -0.0371 -0.3071
 2953SOL    HW110533   7.058   5.403   0.436  1.6491  0.8125 -3.8942
 2953SOL    HW210534   7.132   5.293   0.510 -2.3065 -0.0340 -0.8721
 2954SOL     OW10535   3.083   7.673   6.605  0.0570 -0.1726 -0.4420
 2954SOL    HW110536   2.992   7.688   6.580  0.9854  1.2713 -3.4549
 2954SOL    HW210537   3.093   7.577   6.606 -1.5411 -0.3519  0.3055
 2955SOL     OW10538   3.237   0.311   4.858  0.7840 -0.2728 -0.9191
 2955SOL    HW110539   3.169   0.254   4.822  0.4807 -0.3198 -0.2799
 2955SOL    HW210540   3.256   0.274   4.944  0.1058  0.9634 -0.2112
 2956SOL     OW10541   3.299   0.339   1.806  0.0265 -0.4578  0.3262
 2956SOL    HW110542   3.361   0.354   1.877  0.5752 -2.4388  0.3201
 2956SOL    HW210543   3.314   0.411   1.746 -0.2255  1.0956  2.0295
 2957SOL     OW10544   6.431   3.444   8.592  0.0220 -0.0506  0.1631
 2957SOL    HW110545   6.415   3.469   8.683  0.4370  0.1252  0.1923
 2957SOL    HW210546   6.456   3.352   8.596  0.7337  0.1443  0.3083
 2958SOL     OW10547   4.160   2.025   0.351 -0.1550 -0.4033  0.2590
 2958SOL    HW110548   4.243   1.996   0.314 -0.1831 -3.0066  1.9777
 2958SOL    HW210549   4.175   2.029   0.445 -1.5804  0.4927  0.4763
 2959SOL     OW10550   9.444   9.006   6.481 -0.2783  0.4641  0.5122
 2959SOL    HW110551   9.537   9.029   6.473 -0.6734  2.3227  0.8521
 2959SOL    HW210552   9.414   8.999   6.390 -0.0999  1.2224  0.3845
 2960SOL     OW10553   1.700   1.960   0.381 -0.4134  0.2126  0.7591
 2960SOL    HW110554   1.721   1.990   0.470 -1.5721  1.5132  0.6284
 2960SOL    HW210555   1.650   1.880   0.394 -0.5479  0.3751  1.2901
 2961SOL     OW10556   0.918   5.890   5.521  0.0016 -0.1326  0.4980
 2961SOL    HW110557   0.964   5.951   5.463  1.2740 -0.8651  0.6943
 2961SOL    HW210558   0.988   5.845   5.569 -0.9236 -1.4094  0.7045
 2962SOL     OW10559   7.519   0.656   4.991  0.5164 -0.0238  0.1648
 2962SOL    HW110560   7.585   0.623   4.930  0.3367  0.6515 -0.3975
 2962SOL    HW210561   7.548   0.744   5.014  1.5442 -0.8834  2.4670
 2963SOL     OW10562   6.017   3.104   7.988 -0.6357 -0.0811 -0.2492
 2963SOL    HW110563   6.102   3.131   8.023  0.2594 -2.1455 -0.6683
 2963SOL    HW210564   5.953   3.145   8.046  0.7282 -0.9712  2.0371
 2964SOL     OW10565   1.839   3.064   1.225 -0.5426  0.9841  0.1937
 2964SOL    HW110566   1.775   3.030   1.287  0.4147 -1.3307 -0.0082
 2964SOL    HW210567   1.922   3.063   1.274 -0.2815  2.0279 -0.1952
 2965SOL     OW10568   6.428   6.995   7.313  0.2162  0.5149 -0.4225
 2965SOL    HW110569   6.352   7.053   7.315 -2.3319 -2.4439 -1.7728
 2965SOL    HW210570   6.418   6.941   7.392 -0.2866 -1.1317 -1.5394
 2966SOL     OW10571   2.856   1.613   3.133  0.0065 -0.3924  0.0337
 2966SOL    HW110572   2.909   1.541   3.099 -0.4069 -0.4171 -0.5701
 2966SOL    HW210573   2.894   1.632   3.219 -0.2644 -1.7313  0.4700
 2967SOL     OW10574   2.943   9.083   2.556 -0.0317 -0.3227 -0.4838
 2967SOL    HW110575   2.965   8.994   2.530  2.6385  0.8099 -2.5822
 2967SOL    HW210576   2.966   9.088   2.649 -0.4855 -1.8525 -0.2682
 2968SOL     OW10577   4.479   0.927   1.117  0.0514  0.1813  0.2154
 2968SOL    HW110578   4.487   1.004   1.061  0.0796  0.5296  0.6904
 2968SOL    HW210579   4.569   0.908   1.143  0.1026 -0.3401 -0.3334
 2969SOL     OW10580   0.487   6.221   0.872  0.3025 -0.2604 -0.3730
 2969SOL    HW110581   0.426   6.197   0.941  2.3805 -0.1830  1.6058
 2969SOL    HW210582   0.554   6.274   0.916  1.0633  0.8437 -2.7035
 2970SOL     OW10583   8.103   7.695   0.788  0.2735 -0.5442  0.3267
 2970SOL    HW110584   8.012   7.676   0.768  0.0934 -0.8291  1.3653
 2970SOL    HW210585   8.148   7.691   0.703 -1.0583  2.0627 -0.5981
 2971SOL     OW10586   9.058   6.156   7.681 -0.3833  0.3967 -0.1224
 2971SOL    HW110587   8.989   6.129   7.741 -1.1879  0.4670 -1.0002
 2971SOL    HW210588   9.013   6.203   7.611  0.5315  0.2837 -0.8134
 2972SOL     OW10589   5.732   1.511   0.277 -0.6647 -0.6699 -0.0629
 2972SOL    HW110590   5.757   1.514   0.184  1.2761 -2.7529  0.2952
 2972SOL    HW210591   5.638   1.527   0.276 -0.7140 -0.6224 -2.3957
 2973SOL     OW10592   8.504   8.678   4.623 -0.1494  0.3543  0.1046
 2973SOL    HW110593   8.574   8.691   4.687  0.3645 -1.3192 -0.0704
 2973SOL    HW210594   8.500   8.760   4.575  0.9845  0.8430  0.8092
 2974SOL     OW10595   2.842   4.859   0.824  0.2841  0.2832 -0.0974
 2974SOL    HW110596   2.890   4.827   0.900 -1.7421 -0.0522  1.1441
 2974SOL    HW210597   2.870   4.950   0.814  2.4728 -0.4020 -0.5901
 2975SOL     OW10598   5.733   8.996   5.964  0.0326 -0.7642  0.0927
 2975SOL    HW110599   5.799   9.061   5.943 -0.2619  0.0051  1.4169
 2975SOL    HW210600   5.664   9.009   5.899  0.5175 -0.5650 -0.3812
 2976SOL     OW10601   4.979   6.065   9.622  0.1784 -0.3297 -0.0456
 2976SOL    HW110602   4.898   6.108   9.651 -0.8028 -0.1501 -2.7444
 2976SOL    HW210603   4.950   5.994   9.565  1.9172 -1.2660  0.1664
 2977SOL     OW10604   7.522   5.074   5.838  0.0971  0.4670  0.1368
 2977SOL    HW110605   7.553   5.101   5.751 -0.6824  0.0926 -0.2735
 2977SOL    HW210606   7.437   5.117   5.847  0.1107  0.3886  0.6538
 2978SOL     OW10607   5.250   9.330   1.772 -0.0331 -0.2507  0.0933
 2978SOL    HW110608   5.212   9.317   1.858 -2.7392 -1.2165 -1.1377
 2978SOL    HW210609   5.265   9.242   1.738  0.6252  0.1086 -0.5993
 2979SOL     OW10610   0.005   8.026   8.941 -0.2938  0.1601 -0.4194
 2979SOL    HW110611   0.051   8.110   8.938  0.8709 -0.3403  1.3041
 2979SOL    HW210612  -0.087   8.048   8.928  0.1485  1.5027 -1.5054
 2980SOL     OW10613   5.956   0.101   3.629 -0.1388 -0.2542 -0.4040
 2980SOL    HW110614   5.872   0.133   3.598 -1.4850 -0.4313  2.6927
 2980SOL    HW210615   6.006   0.181   3.648 -0.2681 -0.1309 -0.5793
 2981SOL     OW10616   2.119   3.507   8.583  0.2981 -0.4341  0.2801
 2981SOL    HW110617   2.090   3.532   8.671 -0.5229 -1.2686  0.2612
 2981SOL    HW210618   2.041   3.470   8.541  0.8367 -0.6296 -0.5842
 2982SOL     OW10619   0.690   9.181   5.419 -0.0128  0.1047  0.3960
 2982SOL    HW110620   0.710   9.178   5.325 -0.2809 -0.2909  0.3485
 2982SOL    HW210621   0.654   9.269   5.432 -0.5529 -0.0511  0.0016
 2983SOL     OW10622   9.516   3.284   4.347  0.0953  0.6933 -0.1315
 2983SOL    HW110623   9.531   3.199   4.388 -0.1063  0.6123 -0.2261
 2983SOL    HW210624   9.541   3.271   4.256  0.0525  0.7340 -0.1487
 2984SOL     OW10625   7.559   6.539   8.836 -0.3793  0.4518  0.0228
 2984SOL    HW110626   7.541   6.475   8.904 -1.2892  0.9226  0.2296
 2984SOL    HW210627   7.481   6.594   8.832  0.8415  2.3366  0.7059
 2985SOL     OW10628   7.414   2.926   0.483 -0.6353 -0.2762  0.3311
 2985SOL    HW110629   7.361   2.945   0.560 -1.6072  0.2427 -0.4358
 2985SOL    HW210630   7.353   2.936   0.409  0.2728 -0.7380 -0.5017
 2986SOL     OW10631   4.407   7.796   6.171 -0.1102  0.0275  0.0912
 2986SOL    HW110632   4.325   7.767   6.212 -0.3019  0.1518 -0.1959
 2986SOL    HW210633   4.444   7.717   6.132  0.1101 -0.1049  0.5637
 2987SOL     OW10634   1.463   5.099   6.377 -0.5675 -0.1169  0.0258
 2987SOL    HW110635   1.413   5.154   6.438 -1.0875 -0.1922 -0.3255
 2987SOL    HW210636   1.399   5.037   6.343 -0.2431 -0.1832 -0.4720
 2988SOL     OW10637   9.561   8.507   2.389  0.0850 -0.4121 -0.0312
 2988SOL    HW110638   9.585   8.437   2.328  1.0826 -0.1105  0.0043
 2988SOL    HW210639   9.549   8.584   2.334 -0.7155 -0.5284 -0.0334
 2989SOL     OW10640   7.117   5.956   9.008  0.3959 -0.3515  0.1491
 2989SOL    HW110641   7.149   5.866   9.002 -1.0312 -0.8649 -0.1180
 2989SOL    HW210642   7.057   5.956   9.082  0.0759  0.2787 -0.0933
 2990SOL     OW10643   6.856   9.255   3.224 -0.1456 -0.3290  0.2203
 2990SOL    HW110644   6.899   9.339   3.235 -1.1578  0.2881 -0.4346
 2990SOL    HW210645   6.764   9.271   3.245 -1.0944 -0.3805 -3.2597
 2991SOL     OW10646   2.824   0.292   5.525  0.1102 -0.0403 -0.1806
 2991SOL    HW110647   2.774   0.350   5.467 -0.0012  0.8301  0.7675
 2991SOL    HW210648   2.901   0.342   5.549  0.1369 -0.3774  0.4550
 2992SOL     OW10649   2.109   5.189   0.974  0.5950 -0.2063  0.7842
 2992SOL    HW110650   2.128   5.100   1.002  1.1002 -0.4668 -0.3603
 2992SOL    HW210651   2.194   5.226   0.951  0.2795  0.2378  0.3060
 2993SOL     OW10652   0.712   7.314   8.188 -0.0276 -0.1579  0.3629
 2993SOL    HW110653   0.676   7.279   8.106 -1.1934  1.0493  0.3402
 2993SOL    HW210654   0.722   7.408   8.172  3.2495 -0.3657  0.3370
 2994SOL     OW10655   5.697   6.744   2.005 -0.1033  0.2407 -0.6186
 2994SOL    HW110656   5.639   6.700   1.943 -1.0544  0.1813  0.2944
 2994SOL    HW210657   5.639   6.791   2.064  0.8373  1.3787 -0.5537
 2995SOL     OW10658   9.348   8.030   1.972 -0.3608  0.4768 -0.6173
 2995SOL    HW110659   9.348   7.936   1.989  1.1702  0.3985 -0.8945
 2995SOL    HW210660   9.316   8.039   1.883 -2.2115  0.3771  0.0110
 2996SOL     OW10661   7.333   4.761   8.213 -0.1348 -0.0366 -0.2852
 2996SOL    HW110662   7.339   4.697   8.143 -1.7867 -0.3478 -0.1788
 2996SOL    HW210663   7.244   4.751   8.248  0.4066  0.5832  1.3935
 2997SOL     OW10664   3.455   3.538   5.436 -0.6865  0.2148  0.1491
 2997SOL    HW110665   3.365   3.532   5.467  0.0129 -0.6266  2.1853
 2997SOL    HW210666   3.476   3.449   5.404  0.4085 -0.6075  2.8463
 2998SOL     OW10667   1.338   5.180   0.324  0.3951  0.0316 -0.0186
 2998SOL    HW110668   1.268   5.242   0.305 -0.7788 -0.9133  1.0924
 2998SOL    HW210669   1.412   5.235   0.351  0.0272  1.0221 -0.9363
 2999SOL     OW10670   0.581   6.813   9.323 -0.2381 -0.0895 -0.3070
 2999SOL    HW110671   0.650   6.807   9.389  0.1088 -0.4251 -0.6955
 2999SOL    HW210672   0.601   6.893   9.275 -1.1752  0.8129  0.7458
 3000SOL     OW10673   1.725   8.918   4.045  0.5343  0.1961 -0.1960
 3000SOL    HW110674   1.701   8.865   3.969 -0.4797  0.5381 -0.1347
 3000SOL    HW210675   1.693   8.868   4.120  0.1705  0.5654 -0.0980
 3001SOL     OW10676   9.020   5.902   4.882 -0.2491  0.0633 -0.5708
 3001SOL    HW110677   9.074   5.979   4.862  0.8911 -0.1035  1.5516
 3001SOL    HW210678   9.009   5.858   4.798  1.2496  1.1753 -1.4030
 3002SOL     OW10679   2.025   7.768   6.145 -0.2647 -0.0155 -0.2183
 3002SOL    HW110680   2.078   7.689   6.152  0.8801  0.5706 -1.7095
 3002SOL    HW210681   1.955   7.756   6.209  0.2708 -1.9111  0.0639
 3003SOL     OW10682   4.805   4.522   8.188 -0.3085  0.1386  0.3063
 3003SOL    HW110683   4.804   4.605   8.141 -3.6579 -0.2502 -0.5727
 3003SOL    HW210684   4.852   4.462   8.130  1.6226  1.1854  0.6927
 3004SOL     OW10685   0.554   2.779   3.065 -0.2269 -0.5001  0.2604
 3004SOL    HW110686   0.523   2.701   3.111 -0.2474  0.4592  1.9274
 3004SOL    HW210687   0.644   2.790   3.093 -0.3304  0.2644  0.3152
 3005SOL     OW10688   7.390   5.425   7.714  0.4913 -0.4601 -0.7231
 3005SOL    HW110689   7.438   5.504   7.691  1.3395 -1.3277 -2.0876
 3005SOL    HW210690   7.430   5.396   7.797 -0.4499  0.9868  0.2893
 3006SOL     OW10691   6.313   6.876   4.255  0.2481 -0.3962  0.0282
 3006SOL    HW110692   6.358   6.799   4.289  1.1104 -0.4424 -1.1343
 3006SOL    HW210693   6.220   6.855   4.260  0.4162 -0.9520  0.9914
 3007SOL     OW10694   0.615   8.594   4.896  0.2428 -0.0384  0.8048
 3007SOL    HW110695   0.691   8.627   4.944  0.1390 -0.4525  1.2624
 3007SOL    HW210696   0.573   8.532   4.957  1.2423 -2.1446 -0.5344
 3008SOL     OW10697   5.082   9.101   7.881 -0.4814 -0.4278 -1.2851
 3008SOL    HW110698   5.029   9.118   7.803  1.0922 -0.6825 -2.4382
 3008SOL    HW210699   5.160   9.155   7.869 -0.0759 -0.7033 -0.0084
 3009SOL     OW10700   1.189   8.230   0.200 -0.5687 -0.3379  0.2074
 3009SOL    HW110701   1.256   8.185   0.251 -0.4662 -1.6708 -1.0290
 3009SOL    HW210702   1.124   8.258   0.264  1.5754  1.9310  1.6135
 3010SOL     OW10703   1.017   2.361   0.562 -0.3394 -0.8000 -0.1051
 3010SOL    HW110704   0.964   2.440   0.567  0.5355 -0.1757 -0.4756
 3010SOL    HW210705   0.971   2.298   0.618 -0.1797  0.4831  1.5479
 3011SOL     OW10706   6.527   3.072   5.154  0.1637 -0.4038  0.0881
 3011SOL    HW110707   6.549   3.156   5.113 -0.2902  0.5601  1.7277
 3011SOL    HW210708   6.433   3.079   5.173  0.0995 -1.3352  0.1744
 3012SOL     OW10709   9.051   5.975   7.281 -0.4027 -0.1076 -0.2316
 3012SOL    HW110710   9.078   5.890   7.247  0.4297  0.2398 -0.4506
 3012SOL    HW210711   9.122   6.034   7.257 -1.4444  0.8700 -1.0121
 3013SOL     OW10712   0.537   4.900   5.437  0.2923  0.1503 -0.7154
 3013SOL    HW110713   0.518   4.829   5.499  0.8830 -0.9054 -1.6890
 3013SOL    HW210714   0.537   4.979   5.490 -0.2562 -0.5975  0.4429
 3014SOL     OW10715   0.229   7.452   5.884 -0.3197  0.2495 -0.1325
 3014SOL    HW110716   0.185   7.532   5.912 -1.4828 -0.4245  0.0342
 3014SOL    HW210717   0.183   7.382   5.931  0.7389 -0.5104 -0.1960
 3015SOL     OW10718   1.694   9.338   7.926 -0.1471 -0.6906 -0.1374
 3015SOL    HW110719   1.759   9.298   7.984  0.5864 -0.2702 -0.6568
 3015SOL    HW210720   1.636   9.386   7.985 -0.0336 -1.1218  0.3364
 3016SOL     OW10721   6.868   8.641   6.037  0.6032  0.3338 -0.4592
 3016SOL    HW110722   6.868   8.580   6.111 -0.9568  0.9794  0.1190
 3016SOL    HW210723   6.925   8.600   5.972  0.4995 -1.1719  0.3505
 3017SOL     OW10724   7.791   2.763   7.173 -0.1223  0.0625  0.1584
 3017SOL    HW110725   7.808   2.828   7.241 -1.4075 -0.5425  1.1103
 3017SOL    HW210726   7.874   2.755   7.126  0.4950  1.2626  0.9971
 3018SOL     OW10727   1.765   7.799   0.670 -0.3203 -0.8527 -0.7243
 3018SOL    HW110728   1.736   7.712   0.642  1.7358 -1.7861 -0.1190
 3018SOL    HW210729   1.859   7.798   0.658 -0.2506  1.3311 -0.7022
 3019SOL     OW10730   7.528   8.990   8.361 -0.3669 -0.2844 -0.0589
 3019SOL    HW110731   7.520   8.927   8.289  2.7607 -2.6868  1.4799
 3019SOL    HW210732   7.506   8.939   8.439  0.6160  1.0125  1.1021
 3020SOL     OW10733   2.362   9.156   4.384 -0.4518  0.3378  0.3848
 3020SOL    HW110734   2.301   9.113   4.445 -2.0459  1.9732  0.0422
 3020SOL    HW210735   2.370   9.246   4.418 -0.1177  0.8251 -0.9334
 3021SOL     OW10736   5.501   5.569   7.320  0.0146  0.1631  0.3954
 3021SOL    HW110737   5.535   5.556   7.232  0.4671 -1.1930  0.7423
 3021SOL    HW210738   5.475   5.661   7.323 -1.9750 -0.2339 -1.8331
 3022SOL     OW10739   5.340   0.230   4.960 -0.2135 -0.6440  0.5938
 3022SOL    HW110740   5.324   0.319   4.991 -0.2122 -0.5371  0.2939
 3022SOL    HW210741   5.435   0.221   4.963  0.1367  0.5738 -2.5545
 3023SOL     OW10742   0.815   2.322   6.400  0.1171 -0.1738  0.1738
 3023SOL    HW110743   0.809   2.232   6.432  0.4320 -0.5074 -0.6747
 3023SOL    HW210744   0.796   2.376   6.477  0.9487 -0.9450  0.9583
 3024SOL     OW10745   0.791   8.248   4.532  0.1542 -0.0215  0.3637
 3024SOL    HW110746   0.709   8.257   4.483  0.1932  1.5863  0.5210
 3024SOL    HW210747   0.844   8.323   4.503  1.8216 -1.3308 -0.1597
 3025SOL     OW10748   8.335   6.837   8.048  0.2269 -0.0729 -0.0180
 3025SOL    HW110749   8.291   6.758   8.080  0.1388 -0.1324 -0.2828
 3025SOL    HW210750   8.331   6.898   8.122 -0.3897 -0.0419 -0.0719
 3026SOL     OW10751   0.489   6.276   2.849 -0.3073 -0.0204  0.0886
 3026SOL    HW110752   0.412   6.237   2.807 -0.8555  0.7858  0.3279
 3026SOL    HW210753   0.461   6.292   2.939  0.7518 -1.4387  0.7185
 3027SOL     OW10754   3.206   5.832   9.194  0.2275  0.7194  0.3256
 3027SOL    HW110755   3.290   5.792   9.217  0.4297  1.4310  0.8453
 3027SOL    HW210756   3.141   5.777   9.236  0.4856  0.7182  0.7270
 3028SOL     OW10757   8.805   3.038   0.799  0.6223  0.0769 -0.2432
 3028SOL    HW110758   8.740   3.081   0.744 -1.1552  0.3576  1.9568
 3028SOL    HW210759   8.866   3.109   0.823 -0.3742  0.6618  0.6329
 3029SOL     OW10760   7.500   7.797   7.023  0.3438 -0.4549  0.5282
 3029SOL    HW110761   7.422   7.832   6.979  1.2726  1.2970  0.1786
 3029SOL    HW210762   7.466   7.731   7.083 -1.3710 -0.0181  0.0942
 3030SOL     OW10763   6.511   1.248   8.351 -0.4685 -0.2768  0.1852
 3030SOL    HW110764   6.494   1.207   8.436 -0.1074 -0.9180 -0.0386
 3030SOL    HW210765   6.499   1.176   8.288 -1.0934  0.2762 -0.3396
 3031SOL     OW10766   1.335   5.806   8.062  0.1904  0.0915  0.9220
 3031SOL    HW110767   1.304   5.896   8.072  0.3991  0.1734  0.8427
 3031SOL    HW210768   1.296   5.777   7.980  0.5533  0.2935  0.6732
 3032SOL     OW10769   2.914   6.653   0.705 -0.3542  0.1496  0.4574
 3032SOL    HW110770   2.871   6.587   0.649  0.1587  1.1236 -1.1644
 3032SOL    HW210771   2.991   6.679   0.655  1.0941 -0.1487  2.4396
 3033SOL     OW10772   3.123   1.599   6.549 -0.0523 -0.3644  0.0783
 3033SOL    HW110773   3.212   1.565   6.544  0.6074  1.0980  1.1110
 3033SOL    HW210774   3.102   1.626   6.460  1.4493  1.3677  0.1974
 3034SOL     OW10775   0.616   3.548   5.465  0.2981  0.4851 -0.1513
 3034SOL    HW110776   0.676   3.521   5.535  1.3471  0.7488 -0.9130
 3034SOL    HW210777   0.579   3.467   5.431 -2.4937  0.4569  2.5671
 3035SOL     OW10778   2.336   7.393   8.163 -0.1602  0.0052  0.0390
 3035SOL    HW110779   2.338   7.489   8.163 -0.4711  0.0171  0.5232
 3035SOL    HW210780   2.340   7.369   8.256  1.4479 -0.5020 -0.1226
 3036SOL     OW10781   4.413   6.653   1.699 -0.3860 -0.3829 -0.6445
 3036SOL    HW110782   4.353   6.688   1.633  1.7205  1.6271 -1.6263
 3036SOL    HW210783   4.408   6.714   1.772  1.2200  0.4909 -1.2069
 3037SOL     OW10784   8.148   9.163   4.786  0.0431 -0.3114 -0.0453
 3037SOL    HW110785   8.069   9.179   4.838  0.1420  0.3704 -0.0979
 3037SOL    HW210786   8.144   9.227   4.715  0.4545 -0.5213 -0.2621
 3038SOL     OW10787   2.068   0.685   9.645 -0.0410 -0.1502  0.2125
 3038SOL    HW110788   2.125   0.612   9.669  0.0935  0.0162  0.3998
 3038SOL    HW210789   2.127   0.758   9.627 -0.1657 -0.1495 -0.1888
 3039SOL     OW10790   8.052   0.772   1.209 -0.5569 -0.1226 -0.6431
 3039SOL    HW110791   8.017   0.690   1.174  0.0155 -0.8135  0.3473
 3039SOL    HW210792   7.982   0.807   1.263  0.3361 -1.7430  1.7238
 3040SOL     OW10793   3.941   2.842   5.552 -0.3082  0.0613 -0.0621
 3040SOL    HW110794   4.012   2.840   5.488 -0.1305 -1.2388  0.1329
 3040SOL    HW210795   3.863   2.865   5.502  0.1540  1.0019 -0.3717
 3041SOL     OW10796   1.103   0.036   0.841 -0.1369 -0.4385 -0.4296
 3041SOL    HW110797   1.014   0.025   0.875 -0.8487  3.7055 -0.4272
 3041SOL    HW210798   1.159   0.003   0.911 -1.6635  0.1150  1.1340
 3042SOL     OW10799   8.982   2.631   8.354  0.0748 -0.7954  0.5121
 3042SOL    HW110800   8.956   2.680   8.276 -1.9397 -1.6416  0.5752
 3042SOL    HW210801   8.910   2.646   8.416  0.4883 -2.0495  1.3307
 3043SOL     OW10802   9.175   5.510   4.361  0.4575 -0.0347  0.5222
 3043SOL    HW110803   9.115   5.583   4.369 -0.6456 -0.9321  0.6601
 3043SOL    HW210804   9.180   5.473   4.449  0.9081 -0.2131  0.4271
 3044SOL     OW10805   1.115   7.302   8.425 -0.1330 -0.1568  0.1780
 3044SOL    HW110806   1.134   7.306   8.518 -0.8152  0.3301  0.3075
 3044SOL    HW210807   1.152   7.382   8.389 -2.1266  0.9595  0.4880
 3045SOL     OW10808   7.571   0.437   4.387  0.3117 -0.5727  0.7504
 3045SOL    HW110809   7.503   0.373   4.411 -0.2796  0.0701  0.8090
 3045SOL    HW210810   7.528   0.496   4.325  0.5606  0.3372  1.4200
 3046SOL     OW10811   3.704   0.694   2.027  0.1145 -0.5805 -0.0387
 3046SOL    HW110812   3.622   0.714   1.983 -0.2799 -0.7621  0.5934
 3046SOL    HW210813   3.749   0.779   2.036 -0.8441 -0.1780  1.2471
 3047SOL     OW10814   4.024   8.816   4.053 -0.1797  0.2750 -0.0763
 3047SOL    HW110815   4.099   8.866   4.085  1.1382  0.1128 -2.6662
 3047SOL    HW210816   4.006   8.752   4.123  3.1272 -0.7163  0.0380
 3048SOL     OW10817   2.063   3.645   4.690  0.3149 -0.0962  0.4406
 3048SOL    HW110818   2.117   3.711   4.733 -0.7773 -0.1834  2.0127
 3048SOL    HW210819   1.980   3.689   4.674  1.0953  0.4492 -3.0987
 3049SOL     OW10820   8.988   9.529   0.872  0.3708 -0.8660 -0.3949
 3049SOL    HW110821   9.082   9.518   0.865  0.8175 -0.2573  2.9375
 3049SOL    HW210822   8.975   9.579   0.953 -2.7820 -0.0741 -1.2286
 3050SOL     OW10823   4.528   9.028   5.522 -0.0350 -0.0360 -0.3029
 3050SOL    HW110824   4.606   9.023   5.466  0.7183  0.9315  0.6348
 3050SOL    HW210825   4.460   8.982   5.472  1.6311 -2.7548 -0.2532
 3051SOL     OW10826   6.280   5.010   6.210  0.4347 -0.4596  0.4805
 3051SOL    HW110827   6.224   5.033   6.284  0.4378 -1.3369  0.7703
 3051SOL    HW210828   6.244   5.058   6.136  0.5616  0.6039  1.0894
 3052SOL     OW10829   7.149   6.921   4.673 -0.5363  0.4364  0.1426
 3052SOL    HW110830   7.152   6.986   4.603 -1.5003  0.4788  0.1177
 3052SOL    HW210831   7.105   6.967   4.745  0.7245  0.4954  0.8999
 3053SOL     OW10832   1.630   0.802   0.133  0.2774  0.5320 -0.0818
 3053SOL    HW110833   1.562   0.745   0.167  0.1797  1.8168  2.0578
 3053SOL    HW210834   1.601   0.890   0.154  1.8489  1.2031 -0.5394
 3054SOL     OW10835   8.069   7.178   1.675  0.2662  0.7727  0.5632
 3054SOL    HW110836   8.072   7.166   1.770  0.1364  0.3579  0.5202
 3054SOL    HW210837   8.158   7.157   1.646  0.3467  1.0550  0.6110
 3055SOL     OW10838   3.562   7.506   3.981  0.3537 -0.1530 -0.2019
 3055SOL    HW110839   3.655   7.483   3.989  0.7632  0.7540 -1.9059
 3055SOL    HW210840   3.530   7.450   3.910  0.0300  0.7343 -0.7685
 3056SOL     OW10841   3.909   1.085   3.707  0.3006 -0.6849 -0.2015
 3056SOL    HW110842   3.866   1.132   3.635 -0.4975 -0.4298  0.4218
 3056SOL    HW210843   4.000   1.075   3.679  0.1141 -0.1471 -1.0235
 3057SOL     OW10844   9.132   2.295   3.001  0.0229  0.1910  0.3976
 3057SOL    HW110845   9.043   2.289   3.035  0.2390  0.6285  1.0472
 3057SOL    HW210846   9.164   2.205   3.001 -0.4662  0.0122  0.0244
 3058SOL     OW10847   2.439   2.439   1.736 -0.0376 -0.5391  0.2135
 3058SOL    HW110848   2.392   2.360   1.766 -1.1968 -0.0789 -0.3427
 3058SOL    HW210849   2.490   2.466   1.812 -0.4404 -1.2377  0.7494
 3059SOL     OW10850   6.695   8.546   4.137  0.0938  0.5092  0.0383
 3059SOL    HW110851   6.612   8.579   4.172  0.9506  3.4777 -0.4860
 3059SOL    HW210852   6.669   8.494   4.060 -1.3622 -0.6048  1.2109
 3060SOL     OW10853   2.154   1.980   2.647 -0.3346 -0.1812 -0.3467
 3060SOL    HW110854   2.166   1.893   2.608 -0.6703  0.0578 -1.0025
 3060SOL    HW210855   2.228   2.031   2.615 -0.1505 -0.2131  0.0196
 3061SOL     OW10856   2.780   8.483   3.246  0.4747  0.2359  0.0608
 3061SOL    HW110857   2.823   8.535   3.313 -1.8421  2.6177 -0.1434
 3061SOL    HW210858   2.819   8.511   3.164  0.6580  0.1232  0.1088
 3062SOL     OW10859   6.775   8.727   7.057 -0.5486 -0.1204 -0.0053
 3062SOL    HW110860   6.789   8.752   6.965  0.0612  1.9653  0.5986
 3062SOL    HW210861   6.685   8.696   7.060 -1.5088  2.3363 -0.8587
 3063SOL     OW10862   4.844   9.513   6.076 -0.5140  0.1547 -0.5461
 3063SOL    HW110863   4.867   9.572   6.004  1.3530 -0.7745 -0.7586
 3063SOL    HW210864   4.750   9.500   6.067 -0.7131  1.8788 -1.4106
 3064SOL     OW10865   3.086   0.808   9.436 -0.0349 -0.1496 -0.0984
 3064SOL    HW110866   3.140   0.884   9.413 -0.1747  0.1022  0.3947
 3064SOL    HW210867   3.099   0.798   9.530 -1.4290  0.3744  0.1742
 3065SOL     OW10868   1.840   6.645   1.761  0.2797  0.3795 -0.2192
 3065SOL    HW110869   1.903   6.573   1.769 -0.3843 -0.0310  1.9126
 3065SOL    HW210870   1.865   6.707   1.829 -0.3154  1.2721 -0.7877
 3066SOL     OW10871   4.591   2.491   1.959 -0.3922 -0.3211 -0.0295
 3066SOL    HW110872   4.657   2.450   2.014 -1.7277 -0.1750  1.7924
 3066SOL    HW210873   4.623   2.581   1.945  1.3329 -1.1535 -1.9743
 3067SOL     OW10874   5.351   1.916   2.765 -0.3602  0.4333 -0.1363
 3067SOL    HW110875   5.349   2.001   2.720 -1.1832  1.1194  1.1224
 3067SOL    HW210876   5.428   1.920   2.821 -0.0239  0.0679 -0.5634
 3068SOL     OW10877   1.834   8.075   8.246 -0.1005 -0.4218 -0.0734
 3068SOL    HW110878   1.898   8.065   8.317  1.6480 -1.6987 -1.7435
 3068SOL    HW210879   1.868   8.021   8.175 -2.1055  0.3382 -1.7086
 3069SOL     OW10880   2.541   5.141   0.704 -0.3124 -0.1993  0.0066
 3069SOL    HW110881   2.566   5.233   0.692  0.7712 -0.2310  1.6410
 3069SOL    HW210882   2.586   5.095   0.632  0.2224  0.3959 -0.0515
 3070SOL     OW10883   6.879   7.802   2.014  0.4346  0.5423  0.1905
 3070SOL    HW110884   6.963   7.780   1.972 -0.3297 -1.5844 -0.3274
 3070SOL    HW210885   6.876   7.749   2.093 -0.3377  0.7821  0.3338
 3071SOL     OW10886   1.966   0.489   4.218 -0.0088 -0.3901 -0.1583
 3071SOL    HW110887   2.061   0.493   4.229 -0.0355  0.7038 -0.2496
 3071SOL    HW210888   1.950   0.519   4.129 -0.4361 -0.5731 -0.1461
 3072SOL     OW10889   0.721   4.364   6.486 -0.2835 -0.2529 -0.1231
 3072SOL    HW110890   0.660   4.432   6.516 -0.5590  0.2755 -1.7579
 3072SOL    HW210891   0.782   4.353   6.558  0.2989  2.4091 -0.1107
 3073SOL     OW10892   7.408   3.167   2.602  0.1565  0.1909 -0.3056
 3073SOL    HW110893   7.475   3.135   2.541 -1.0907 -0.7772 -1.2183
 3073SOL    HW210894   7.458   3.204   2.675  1.6847  0.5662 -1.4840
 3074SOL     OW10895   9.003   6.500   4.536 -0.4847 -0.4283 -0.9537
 3074SOL    HW110896   8.942   6.486   4.464  1.5071  0.0578 -2.8162
 3074SOL    HW210897   9.012   6.413   4.577 -2.2830 -0.5267 -0.6900
 3075SOL     OW10898   4.009   9.193   9.626  0.1419 -0.0663 -0.7808
 3075SOL    HW110899   3.945   9.152   9.683 -0.7351  0.5297 -1.3066
 3075SOL    HW210900   3.957   9.248   9.567  0.9037 -1.2551 -2.6882
 3076SOL     OW10901   8.430   5.603   8.519  0.0696 -0.0252 -0.1143
 3076SOL    HW110902   8.387   5.535   8.571  0.8801  0.6960  1.5846
 3076SOL    HW210903   8.363   5.632   8.458 -0.5529 -1.7529 -0.3164
 3077SOL     OW10904   3.448   4.822   2.943 -0.0778 -0.0060 -0.2009
 3077SOL    HW110905   3.461   4.845   3.035 -3.5300  2.1128 -0.0670
 3077SOL    HW210906   3.438   4.727   2.942  4.2200 -0.6798  0.8288
 3078SOL     OW10907   4.337   3.433   3.635 -0.1112  0.0870 -0.2152
 3078SOL    HW110908   4.308   3.426   3.726 -0.4542  0.5679 -0.2826
 3078SOL    HW210909   4.346   3.527   3.620  2.7278 -0.0434  0.1792
 3079SOL     OW10910   0.081   0.071   5.852  0.4669  0.1858  0.5322
 3079SOL    HW110911   0.150   0.125   5.888  1.6609 -0.0051 -1.3381
 3079SOL    HW210912   0.030   0.130   5.796  0.2679 -0.0918  0.4137
 3080SOL     OW10913   6.335   7.850   8.224 -0.2538  0.3087  0.5161
 3080SOL    HW110914   6.273   7.804   8.281  0.8730 -0.1969  1.3535
 3080SOL    HW210915   6.421   7.830   8.260  0.4868  0.1941 -1.2030
 3081SOL     OW10916   3.543   6.082   0.967  0.2927  0.4827  0.0537
 3081SOL    HW110917   3.509   6.067   1.055  0.8858  0.8868  0.3507
 3081SOL    HW210918   3.519   6.003   0.919  0.5748 -0.0397  0.7598
 3082SOL     OW10919   3.657   8.712   9.031 -0.5424  0.0696  0.2621
 3082SOL    HW110920   3.562   8.709   9.022 -0.5950 -1.2764  0.8810
 3082SOL    HW210921   3.676   8.642   9.094  0.9505 -0.4723 -0.7395
 3083SOL     OW10922   9.076   5.592   7.905  0.2276  0.1572  0.4286
 3083SOL    HW110923   9.044   5.574   7.817 -0.9357  0.7268  0.7111
 3083SOL    HW210924   9.141   5.523   7.922  0.3966 -0.0107 -0.8233
 3084SOL     OW10925   0.301   6.047   3.957  0.4768  0.5824  0.2691
 3084SOL    HW110926   0.330   5.958   3.937  0.0994  0.1594  1.4899
 3084SOL    HW210927   0.352   6.103   3.899  1.3304 -0.3717  0.0766
 3085SOL     OW10928   4.131   1.083   1.898  0.1593  0.1817  0.3165
 3085SOL    HW110929   4.077   1.162   1.901  0.5346  0.4238  0.7870
 3085SOL    HW210930   4.219   1.115   1.880 -0.0105 -0.2955 -1.5871
 3086SOL     OW10931   6.984   6.719   2.462 -0.2853 -0.0788 -1.0051
 3086SOL    HW110932   6.992   6.747   2.371 -1.0324  1.5326 -0.6148
 3086SOL    HW210933   6.892   6.737   2.484 -0.6440 -2.2314 -0.4705
 3087SOL     OW10934   5.883   0.725   2.859  0.3656  0.1548  0.4414
 3087SOL    HW110935   5.866   0.709   2.766  0.6122 -3.5331  0.8965
 3087SOL    HW210936   5.796   0.726   2.899  0.2368  2.0768  0.2081
 3088SOL     OW10937   3.053   2.259   1.297 -0.1606  0.5681  0.4678
 3088SOL    HW110938   3.016   2.237   1.382  1.0963 -0.0987  0.8714
 3088SOL    HW210939   3.124   2.196   1.284 -0.8093  0.1632 -1.4370
 3089SOL     OW10940   5.056   6.342   9.095  0.7700  0.0402  0.0951
 3089SOL    HW110941   5.138   6.298   9.075  1.6803  1.6129  0.1638
 3089SOL    HW210942   5.080   6.435   9.103 -1.2630  0.7683 -1.3944
 3090SOL     OW10943   9.066   3.329   4.914  0.3521 -0.1263  0.4678
 3090SOL    HW110944   9.053   3.245   4.959 -2.0546  0.2692  0.6461
 3090SOL    HW210945   8.978   3.354   4.885  1.2669  1.5757 -0.9877
 3091SOL     OW10946   2.678   9.625   8.467 -0.7754 -0.5160  0.1129
 3091SOL    HW110947   2.706   9.616   8.558 -1.7553  0.5420  0.5421
 3091SOL    HW210948   2.760   9.624   8.417  0.0630  1.7258  1.2566
 3092SOL     OW10949   3.566   0.180   3.593 -0.2095  0.2759  0.1176
 3092SOL    HW110950   3.603   0.150   3.676 -1.6510  1.1647  1.1241
 3092SOL    HW210951   3.621   0.139   3.526  1.1416 -0.2583  1.5037
 3093SOL     OW10952   6.082   6.610   4.874 -0.1879  0.1169  0.1745
 3093SOL    HW110953   6.120   6.649   4.953  0.0051  2.3160 -0.9437
 3093SOL    HW210954   5.991   6.638   4.874 -0.2792 -0.1656 -0.2224
 3094SOL     OW10955   5.087   1.037   4.480 -0.3491  0.4062  0.2526
 3094SOL    HW110956   5.077   1.083   4.396  0.3745 -1.7151 -1.0889
 3094SOL    HW210957   5.179   1.009   4.480 -0.1872  0.8373  2.0607
 3095SOL     OW10958   4.575   1.706   5.782 -0.1615  0.3454  0.2607
 3095SOL    HW110959   4.532   1.792   5.784  0.7555  0.8093  0.5624
 3095SOL    HW210960   4.660   1.722   5.741 -0.5331 -0.6994 -0.9848
 3096SOL     OW10961   7.401   0.788   2.619 -0.2387 -0.4046 -0.0816
 3096SOL    HW110962   7.463   0.861   2.621 -0.6329 -0.0780  0.2752
 3096SOL    HW210963   7.434   0.727   2.686  0.4816 -0.8852 -0.8544
 3097SOL     OW10964   1.924   0.940   0.540  0.5431  0.3009 -0.1730
 3097SOL    HW110965   2.003   0.924   0.490  0.8824 -1.5769  0.8631
 3097SOL    HW210966   1.871   0.862   0.528  0.6035 -0.2069  2.2480
 3098SOL     OW10967   5.444   8.649   4.914  0.0571 -0.5111 -0.1134
 3098SOL    HW110968   5.409   8.571   4.956 -0.9576 -0.8172 -1.4517
 3098SOL    HW210969   5.400   8.722   4.957  0.3618 -0.7090  0.5442
 3099SOL     OW10970   2.920   7.174   7.580  0.8137 -0.1739  0.4172
 3099SOL    HW110971   2.953   7.172   7.670 -0.9092 -2.4248  1.0712
 3099SOL    HW210972   2.915   7.082   7.553  2.2576  0.4564 -2.4121
 3100SOL     OW10973   2.961   8.804   2.887 -0.0792 -0.8531 -0.3148
 3100SOL    HW110974   2.882   8.764   2.924  0.0869 -0.9074 -0.0184
 3100SOL    HW210975   2.935   8.831   2.799 -0.9046  0.6109  0.3382
 3101SOL     OW10976   1.741   5.838   9.642  0.3338 -0.5131 -0.4012
 3101SOL    HW110977   1.670   5.848   9.579  0.4000 -1.5917 -0.6694
 3101SOL    HW210978   1.723   5.904   9.710 -2.1068 -2.0797  0.6158
 3102SOL     OW10979   1.199   1.546   1.086  0.3387 -1.0520  0.0989
 3102SOL    HW110980   1.179   1.568   0.995  1.1156 -0.1254  0.1391
 3102SOL    HW210981   1.251   1.466   1.080 -0.5910 -1.6636 -0.1847
 3103SOL     OW10982   2.274   3.862   8.229  0.3344  0.0795 -0.5281
 3103SOL    HW110983   2.183   3.858   8.257  0.0011 -0.9742 -1.6594
 3103SOL    HW210984   2.322   3.810   8.294  0.4467  2.0783  1.0771
 3104SOL     OW10985   5.701   4.508   5.918  0.0845 -0.3917 -0.0198
 3104SOL    HW110986   5.627   4.484   5.861  0.7526 -2.5190 -0.0903
 3104SOL    HW210987   5.676   4.592   5.955 -2.0304 -0.6806 -0.6289
 3105SOL     OW10988   6.157   0.817   9.596  0.6313 -0.0136 -0.1144
 3105SOL    HW110989   6.247   0.795   9.572  0.6675  1.3814 -1.3571
 3105SOL    HW210990   6.166   0.889   9.658  0.3984 -1.2223  1.3965
 3106SOL     OW10991   2.490   8.770   7.271 -0.1942 -0.7537 -0.3798
 3106SOL    HW110992   2.483   8.843   7.209  1.2700 -1.1944 -1.0953
 3106SOL    HW210993   2.443   8.800   7.348  0.6180  1.0810 -0.5541
 3107SOL     OW10994   7.820   0.459   0.745  0.3424  0.6031  0.4225
 3107SOL    HW110995   7.790   0.499   0.663  2.2170  1.9483  0.3262
 3107SOL    HW210996   7.816   0.365   0.729 -1.4484  0.7590 -0.3780
 3108SOL     OW10997   8.930   2.873   3.060 -0.2011 -0.0108 -0.2278
 3108SOL    HW110998   8.983   2.852   3.137  0.9897  0.4344 -0.9047
 3108SOL    HW210999   8.943   2.966   3.046  0.0827 -0.1933 -1.3116
 3109SOL     OW11000   5.150   8.967   4.997 -0.5576  0.0170 -0.1635
 3109SOL    HW111001   5.174   8.875   4.997  2.3886  0.6628 -1.6879
 3109SOL    HW211002   5.192   9.004   5.075 -2.1612  0.0319  0.7340
 3110SOL     OW11003   9.072   2.791   3.271  0.4403  0.0537  0.1429
 3110SOL    HW111004   9.008   2.724   3.295  0.0924 -0.1431 -1.2922
 3110SOL    HW211005   9.150   2.742   3.248  1.0430  0.2818  1.5608
 3111SOL     OW11006   8.589   6.258   9.273 -0.6115  0.1307 -0.1391
 3111SOL    HW111007   8.623   6.169   9.281  0.0590  0.5201  2.3811
 3111SOL    HW211008   8.505   6.255   9.321 -1.6265  0.3998 -1.8337
 3112SOL     OW11009   9.228   2.209   0.767  0.0341 -0.2165 -0.1702
 3112SOL    HW111010   9.269   2.133   0.725 -0.8332 -1.1470  0.6344
 3112SOL    HW211011   9.151   2.173   0.811  0.2470  0.9461  1.1920
 3113SOL     OW11012   5.966   2.706   3.261  0.2203 -0.4632 -0.3340
 3113SOL    HW111013   5.890   2.736   3.310 -0.0186 -2.4200  0.6152
 3113SOL    HW211014   5.935   2.629   3.213  2.1035 -3.0707  2.2614
 3114SOL     OW11015   1.925   8.530   3.739  0.4093  0.0928  0.1261
 3114SOL    HW111016   1.982   8.552   3.665 -1.2157  1.6367 -0.7414
 3114SOL    HW211017   1.840   8.513   3.699 -0.6312  1.4484  1.6481
 3115SOL     OW11018   4.429   1.121   4.333 -0.0119  0.7713 -0.1151
 3115SOL    HW111019   4.480   1.078   4.265 -0.4704 -0.5920  0.3690
 3115SOL    HW211020   4.377   1.186   4.287 -0.0439  0.1164 -1.0210
 3116SOL     OW11021   3.257   1.381   4.257 -0.2385 -0.4162  0.2142
 3116SOL    HW111022   3.349   1.386   4.284  0.2326 -0.8058 -1.2471
 3116SOL    HW211023   3.228   1.296   4.289 -1.2305  1.1106  3.9037
 3117SOL     OW11024   1.257   8.565   8.137 -0.1389  0.5461  0.1382
 3117SOL    HW111025   1.259   8.655   8.168 -0.0464  0.8182 -0.6389
 3117SOL    HW211026   1.289   8.570   8.046  2.1700 -0.5827  0.8129
 3118SOL     OW11027   1.962   1.525   9.402 -0.4005  0.0856 -0.0377
 3118SOL    HW111028   1.924   1.536   9.315 -1.1137 -2.9287 -0.2140
 3118SOL    HW211029   2.032   1.461   9.390 -1.5295 -1.5823  1.7974
 3119SOL     OW11030   9.576   5.402   6.522  0.5183 -0.3116 -0.4321
 3119SOL    HW111031   9.529   5.331   6.565 -0.0975  0.8861  1.0015
 3119SOL    HW211032   9.657   5.363   6.492  0.6742 -1.4085  1.2603
 3120SOL     OW11033   1.655   1.904   2.385  0.4835 -0.5077 -0.5213
 3120SOL    HW111034   1.699   1.967   2.442  0.4604  0.4079 -1.4816
 3120SOL    HW211035   1.561   1.915   2.404  0.3991  0.5310 -1.4280
 3121SOL     OW11036   7.503   1.745   1.083 -0.3216 -0.0800  0.3076
 3121SOL    HW111037   7.559   1.689   1.031 -0.9391 -0.5197  0.1139
 3121SOL    HW211038   7.553   1.761   1.163  0.1649 -0.2950  0.0474
 3122SOL     OW11039   7.765   3.165   1.286 -0.0544  0.3668 -0.3498
 3122SOL    HW111040   7.704   3.201   1.221 -0.5025  0.9171  0.3642
 3122SOL    HW211041   7.807   3.241   1.326  1.5956 -0.0212 -1.2658
 3123SOL     OW11042   4.671   0.150   2.155 -0.1282 -0.5252  0.5079
 3123SOL    HW111043   4.672   0.150   2.059  0.3618 -0.9327  0.5108
 3123SOL    HW211044   4.730   0.221   2.180 -1.0897  0.2967  0.5123
 3124SOL     OW11045   9.295   4.527   2.913  0.7958  0.2823  0.1756
 3124SOL    HW111046   9.308   4.556   3.003  0.9453 -0.3279  0.3546
 3124SOL    HW211047   9.339   4.594   2.860  3.0985 -0.7335  0.6735
 3125SOL     OW11048   4.643   4.039   6.805  0.3466  0.2545 -0.5407
 3125SOL    HW111049   4.707   4.095   6.760 -0.7504  1.0547 -1.1457
 3125SOL    HW211050   4.620   3.972   6.741 -1.2587  1.4268 -1.2335
 3126SOL     OW11051   8.450   8.128   4.913  0.5787 -0.3725 -0.2668
 3126SOL    HW111052   8.365   8.121   4.870  1.0438 -0.7408 -1.1585
 3126SOL    HW211053   8.497   8.195   4.863  1.0292 -0.6035 -0.1635
 3127SOL     OW11054   5.775   3.984   6.095  0.0312 -0.4984  0.4348
 3127SOL    HW111055   5.707   4.052   6.099  0.0125 -0.5490  1.2198
 3127SOL    HW211056   5.746   3.924   6.027  0.5631  0.8263 -1.0132
 3128SOL     OW11057   9.176   8.228   2.967 -0.4582 -0.2190 -0.0583
 3128SOL    HW111058   9.264   8.197   2.951 -1.0037 -1.2308 -1.1975
 3128SOL    HW211059   9.122   8.184   2.902 -1.4464  2.3210 -1.0698
 3129SOL     OW11060   7.055   0.037   7.143  0.4020 -0.0500  0.5719
 3129SOL    HW111061   7.107  -0.023   7.196 -1.6570 -0.1970  2.6081
 3129SOL    HW211062   7.020  -0.016   7.072  0.0983 -0.8514  1.3036
 3130SOL     OW11063   2.162   1.340   2.465  0.2764  0.3725 -0.1035
 3130SOL    HW111064   2.148   1.367   2.556  0.6004 -0.0057  0.0673
 3130SOL    HW211065   2.074   1.329   2.429  0.0798 -1.6275  0.8386
 3131SOL     OW11066   6.012   3.134   6.203 -0.3763 -0.6185 -0.0837
 3131SOL    HW111067   6.025   3.116   6.296 -2.4323 -1.2704  0.1314
 3131SOL    HW211068   6.048   3.222   6.190 -0.1102 -0.4996  1.3291
 3132SOL     OW11069   2.137   5.585   7.833 -0.2485  0.5316 -0.1922
 3132SOL    HW111070   2.043   5.567   7.833 -0.1774  0.1353  0.1899
 3132SOL    HW211071   2.177   5.503   7.803  0.0239  0.3867  0.5554
 3133SOL     OW11072   0.563   7.352   9.282 -0.6009 -0.7566  0.2737
 3133SOL    HW111073   0.587   7.287   9.348  0.3176 -0.2424  0.4576
 3133SOL    HW211074   0.482   7.391   9.315  2.3512  3.2366  4.0275
 3134SOL     OW11075   3.325   7.464   6.770  0.0773 -0.2637 -0.1108
 3134SOL    HW111076   3.341   7.442   6.862 -3.1007 -0.9708  0.3948
 3134SOL    HW211077   3.319   7.560   6.769 -0.7601 -0.2961  0.6211
 3135SOL     OW11078   3.247   0.813   6.524 -0.0052  0.0730  0.3806
 3135SOL    HW111079   3.268   0.725   6.493 -0.5512 -0.3448  1.1632
 3135SOL    HW211080   3.206   0.856   6.448  0.0430 -0.4205  0.0692
 3136SOL     OW11081   8.625   2.634   4.073 -0.3828 -0.2506 -0.3258
 3136SOL    HW111082   8.617   2.574   3.999  0.4693 -1.5235  0.5770
 3136SOL    HW211083   8.701   2.602   4.122  0.0817  1.5508  0.2129
 3137SOL     OW11084   4.829   9.554   7.927  0.3765  0.1818  0.2804
 3137SOL    HW111085   4.909   9.531   7.879 -0.0621 -0.3933 -0.1921
 3137SOL    HW211086   4.857   9.621   7.990  1.2278 -0.0069  0.1167
 3138SOL     OW11087   3.871   0.204   2.622  0.1556 -0.2123  0.2313
 3138SOL    HW111088   3.923   0.240   2.550 -0.2535  0.0860  0.0739
 3138SOL    HW211089   3.856   0.279   2.680  0.1880 -0.3722  0.4455
 3139SOL     OW11090   3.904   6.840   4.198  0.1353  0.4953 -0.2851
 3139SOL    HW111091   3.851   6.802   4.128 -1.4886 -0.7909  1.5395
 3139SOL    HW211092   3.847   6.906   4.238  0.8375  0.8377  0.1771
 3140SOL     OW11093   3.813   2.984   1.381 -0.7375  0.3592 -0.7251
 3140SOL    HW111094   3.794   3.001   1.289 -1.9266  1.2776 -0.3374
 3140SOL    HW211095   3.845   2.894   1.383  0.5829  0.7559 -2.1906
 3141SOL     OW11096   6.895   6.184   4.610  0.3723  0.1150  0.1868
 3141SOL    HW111097   6.814   6.136   4.597 -0.0018  0.4993  1.0208
 3141SOL    HW211098   6.930   6.150   4.693  0.8463  0.2502  0.0473
 3142SOL     OW11099   2.879   7.829   8.935 -0.2324  0.0054  0.3317
 3142SOL    HW111100   2.893   7.832   9.030  0.5063  0.1449  0.2254
 3142SOL    HW211101   2.816   7.898   8.918  0.6726  0.9217  0.5677
 3143SOL     OW11102   4.462   2.782   5.648  0.5630 -0.0353  0.4881
 3143SOL    HW111103   4.383   2.835   5.633  1.2435  0.5669 -1.1559
 3143SOL    HW211104   4.521   2.839   5.697  1.0680  0.5658 -0.7771
 3144SOL     OW11105   5.101   5.237   2.290 -0.0711  0.2959 -0.0881
 3144SOL    HW111106   5.101   5.303   2.359 -1.9824 -2.0722  2.4186
 3144SOL    HW211107   5.011   5.239   2.255 -1.0638 -2.5390  1.9074
 3145SOL     OW11108   0.890   8.361   8.644  0.5976  0.1216  0.2776
 3145SOL    HW111109   0.837   8.284   8.624  0.8629 -0.0048  0.0671
 3145SOL    HW211110   0.845   8.433   8.599  0.6691 -0.0034  0.0113
 3146SOL     OW11111   3.372   6.220   3.870  0.0568 -0.5811 -0.0378
 3146SOL    HW111112   3.332   6.257   3.792 -0.7607 -2.7652 -0.7503
 3146SOL    HW211113   3.407   6.136   3.841 -2.4037 -2.6358  2.3268
 3147SOL     OW11114   3.705   5.803   0.626  0.3659 -0.0438 -0.3490
 3147SOL    HW111115   3.612   5.780   0.628  0.0461  0.7149 -2.7770
 3147SOL    HW211116   3.710   5.875   0.563  2.7324 -0.7170 -1.0307
 3148SOL     OW11117   9.140   3.899   7.544 -0.8589  0.1132  0.1903
 3148SOL    HW111118   9.228   3.867   7.526 -0.7079 -0.0874  1.2436
 3148SOL    HW211119   9.083   3.840   7.494 -0.3841  0.5436 -0.8849
 3149SOL     OW11120   4.950   5.177   7.362  0.2584 -0.4255 -0.7129
 3149SOL    HW111121   4.877   5.240   7.359  0.8195  0.2137 -1.8732
 3149SOL    HW211122   4.912   5.097   7.398 -1.1655 -0.2778 -1.7942
 3150SOL     OW11123   3.408   3.533   4.004 -0.0381  0.4027  0.4437
 3150SOL    HW111124   3.486   3.583   4.029 -0.7649  1.9259 -0.2173
 3150SOL    HW211125   3.335   3.585   4.037 -0.8021 -1.0647  1.1512
 3151SOL     OW11126   0.849   0.762   2.717  0.0809 -0.1972  0.4563
 3151SOL    HW111127   0.772   0.712   2.690  0.3060  0.0987 -0.8208
 3151SOL    HW211128   0.903   0.700   2.765  0.0018 -0.9959 -0.4549
 3152SOL     OW11129   5.846   8.789   4.604  0.4272 -0.2604  0.2678
 3152SOL    HW111130   5.772   8.845   4.582  1.8142  1.0326 -1.4395
 3152SOL    HW211131   5.895   8.780   4.522  1.1439 -2.6907  0.8647
 3153SOL     OW11132   7.755   0.200   1.041  0.2024 -0.2040 -0.3970
 3153SOL    HW111133   7.687   0.260   1.072  0.5435  0.8321 -1.5952
 3153SOL    HW211134   7.833   0.226   1.090 -0.1559 -1.1817  0.7403
 3154SOL     OW11135   5.904   7.038   9.142 -0.1588 -0.6046  0.9924
 3154SOL    HW111136   5.858   7.120   9.156  1.1726  0.2244  0.7179
 3154SOL    HW211137   5.976   7.039   9.204  0.9424 -0.7027 -0.2239
 3155SOL     OW11138   6.380   8.705   0.558  0.2440  0.3518 -0.0849
 3155SOL    HW111139   6.333   8.648   0.620  0.3226  0.4925  0.1033
 3155SOL    HW211140   6.405   8.646   0.487 -1.3507  0.5162 -0.8305
 3156SOL     OW11141   6.254   2.152   3.894  0.3218 -0.9059  0.0237
 3156SOL    HW111142   6.321   2.109   3.948  0.9242  0.6075  0.5376
 3156SOL    HW211143   6.180   2.164   3.954  1.0372  0.8907  0.6227
 3157SOL     OW11144   3.550   3.611   2.108  0.0462  0.0898  0.6321
 3157SOL    HW111145   3.471   3.623   2.055  1.2313  0.0405 -1.2365
 3157SOL    HW211146   3.542   3.523   2.144  0.0173 -0.5911 -0.9629
 3158SOL     OW11147   5.549   3.458   0.026 -0.8983  0.7508  0.3189
 3158SOL    HW111148   5.554   3.550   0.054 -2.5819  1.0341 -0.1619
 3158SOL    HW211149   5.529   3.409   0.105 -1.5469  1.0251  0.3361
 3159SOL     OW11150   2.411   0.604   1.923  0.1141 -0.3663  0.5230
 3159SOL    HW111151   2.438   0.696   1.922 -1.0324 -0.0004 -1.3496
 3159SOL    HW211152   2.434   0.571   1.835 -1.4419 -1.2435  0.4078
 3160SOL     OW11153   7.411   2.979   4.154 -0.3627  0.3381 -0.0162
 3160SOL    HW111154   7.430   2.955   4.063  0.8223  0.0197  0.2930
 3160SOL    HW211155   7.400   3.074   4.152 -1.5951  0.2009 -0.6871
 3161SOL     OW11156   2.336   7.401   9.205  0.1979  0.3733  0.6020
 3161SOL    HW111157   2.313   7.361   9.289  0.4733  1.0477  1.0072
 3161SOL    HW211158   2.428   7.425   9.214  0.2524  0.3711  0.0743
 3162SOL     OW11159   1.640   1.795   8.329 -0.4250  0.2153 -1.2917
 3162SOL    HW111160   1.723   1.828   8.363 -0.8399  1.3626 -1.3768
 3162SOL    HW211161   1.632   1.708   8.369  0.9506 -0.0510 -1.5250
 3163SOL     OW11162   6.523   7.381   4.765 -0.4761  0.2557  0.2692
 3163SOL    HW111163   6.459   7.424   4.821 -0.2646  0.3396  0.4452
 3163SOL    HW211164   6.472   7.314   4.718 -0.5762 -0.0846  0.8548
 3164SOL     OW11165   5.223   1.050   7.319  0.0185 -0.2481 -0.5698
 3164SOL    HW111166   5.185   1.105   7.251 -0.9112 -1.3760 -1.0207
 3164SOL    HW211167   5.221   1.104   7.398 -0.0350  0.6568 -1.1752
 3165SOL     OW11168   4.702   0.521   2.230  0.2885  0.1964 -0.5024
 3165SOL    HW111169   4.762   0.446   2.228 -1.8717 -1.6321 -1.1121
 3165SOL    HW211170   4.689   0.539   2.324 -0.8028 -1.6731 -0.2389
 3166SOL     OW11171   4.064   3.579   5.955 -0.4537 -0.0361  0.3169
 3166SOL    HW111172   4.099   3.585   6.044 -0.5214 -2.3612  0.5682
 3166SOL    HW211173   4.140   3.562   5.900 -0.1821  2.9394 -0.3885
 3167SOL     OW11174   7.125   0.232   7.503 -0.0659 -0.7924  0.2123
 3167SOL    HW111175   7.067   0.214   7.429  1.2328  1.9883 -1.6812
 3167SOL    HW211176   7.072   0.286   7.562 -0.2446 -0.5255 -0.1847
 3168SOL     OW11177   2.917   1.870   4.519 -0.2869 -0.2455  0.1526
 3168SOL    HW111178   2.923   1.793   4.576 -0.4215 -0.9111 -0.7232
 3168SOL    HW211179   2.900   1.834   4.432 -1.9232  0.8556 -0.0185
 3169SOL     OW11180   2.630   5.490   3.636  0.0698 -0.2586  0.6552
 3169SOL    HW111181   2.617   5.580   3.665 -0.3246  0.0238 -0.3557
 3169SOL    HW211182   2.681   5.497   3.556  0.0975 -0.9384  0.6052
 3170SOL     OW11183   3.462   9.065   8.229 -0.4455  0.0321  0.8329
 3170SOL    HW111184   3.368   9.078   8.237 -0.3974 -0.3690  2.2445
 3170SOL    HW211185   3.490   9.036   8.316  0.9165 -0.2441  0.3260
 3171SOL     OW11186   9.494   2.539   6.791 -0.2111  0.0443  0.8526
 3171SOL    HW111187   9.427   2.478   6.760 -0.5015  1.3052 -1.1678
 3171SOL    HW211188   9.455   2.626   6.779  1.6173  0.8016 -0.0631
 3172SOL     OW11189   0.833   8.548   1.382 -0.5739  0.2218  0.4057
 3172SOL    HW111190   0.741   8.548   1.408 -0.3982  1.8562  1.1720
 3172SOL    HW211191   0.874   8.612   1.441  1.0887 -0.6085  0.2010
 3173SOL     OW11192   1.609   7.218   6.734 -0.4732 -0.8444 -0.2293
 3173SOL    HW111193   1.703   7.232   6.745 -0.7443  1.0770 -0.0001
 3173SOL    HW211194   1.597   7.214   6.639 -0.4099  1.3087 -0.3781
 3174SOL     OW11195   0.177   2.590   9.075  0.6295  0.6047  0.5970
 3174SOL    HW111196   0.091   2.622   9.103  0.8393  0.7807  1.0408
 3174SOL    HW211197   0.186   2.505   9.117 -0.3566 -0.5404 -1.3713
 3175SOL     OW11198   6.590   5.760   3.608 -0.3196  0.6999  0.0441
 3175SOL    HW111199   6.682   5.774   3.630 -0.2530  2.8189 -1.2895
 3175SOL    HW211200   6.542   5.796   3.683 -0.0548  1.4192 -0.1192
 3176SOL     OW11201   3.624   4.748   8.842 -0.4656  0.3400 -0.3037
 3176SOL    HW111202   3.646   4.673   8.785  1.5188  0.1748  0.6078
 3176SOL    HW211203   3.590   4.708   8.922  0.9827  0.3550  0.3455
 3177SOL     OW11204   6.799   1.037   2.470  0.4445 -0.2839 -0.0112
 3177SOL    HW111205   6.883   1.020   2.426 -0.2521 -0.2859 -1.3820
 3177SOL    HW211206   6.788   1.132   2.462  1.1991 -0.0033  1.8536
 3178SOL     OW11207   6.495   2.285   0.089  0.2102 -0.0864 -0.2615
 3178SOL    HW111208   6.457   2.239   0.014  0.7540 -0.2943 -0.4150
 3178SOL    HW211209   6.517   2.372   0.054 -0.3785  0.1314 -0.0978
 3179SOL     OW11210   5.258   6.548   8.272 -0.3394  0.0017 -0.1604
 3179SOL    HW111211   5.248   6.563   8.366  0.2637  0.2325 -0.1274
 3179SOL    HW211212   5.308   6.623   8.241 -2.0419  0.8495 -0.9922
 3180SOL     OW11213   7.685   0.977   8.680 -0.1665 -0.0678  0.7501
 3180SOL    HW111214   7.610   0.917   8.679  0.2528 -0.6281  1.5038
 3180SOL    HW211215   7.662   1.044   8.745  0.2331 -0.5909  1.4480
 3181SOL     OW11216   5.502   1.269   4.561 -0.5346 -0.6088 -1.2384
 3181SOL    HW111217   5.432   1.321   4.523  0.1740  0.5674 -0.9701
 3181SOL    HW211218   5.465   1.234   4.642 -0.2851  1.3889 -0.2300
 3182SOL     OW11219   6.320   7.820   5.698  0.8017  0.1081 -0.6162
 3182SOL    HW111220   6.323   7.748   5.761  0.6818  1.0521  0.4865
 3182SOL    HW211221   6.386   7.882   5.729  0.2510  0.9109 -1.0228
 3183SOL     OW11222   5.507   7.422   8.108  0.0220 -0.3094 -0.1252
 3183SOL    HW111223   5.494   7.465   8.023 -0.2201 -0.3824 -0.1244
 3183SOL    HW211224   5.425   7.377   8.125 -0.1925  0.2938  0.4890
 3184SOL     OW11225   6.905   5.520   0.700 -0.1807  0.2233  0.3205
 3184SOL    HW111226   6.831   5.494   0.646 -0.5961  0.2498  0.8749
 3184SOL    HW211227   6.890   5.612   0.721  0.5687  0.5383 -0.4640
 3185SOL     OW11228   0.428   4.466   0.099 -0.4900  0.2153  0.4223
 3185SOL    HW111229   0.507   4.499   0.056 -0.5946 -0.2990 -0.1851
 3185SOL    HW211230   0.361   4.469   0.030 -0.5087 -1.2233  0.3436
 3186SOL     OW11231   7.673   6.209   5.576 -0.8625  0.3639  0.2691
 3186SOL    HW111232   7.744   6.272   5.590  1.2035 -1.3094 -1.7799
 3186SOL    HW211233   7.627   6.242   5.499 -0.4243 -0.0592 -0.1824
 3187SOL     OW11234   2.802   3.491   2.688 -0.0525 -0.6105 -0.0228
 3187SOL    HW111235   2.776   3.435   2.615 -2.2535  1.0140 -0.5673
 3187SOL    HW211236   2.880   3.537   2.657 -0.4983 -0.5259 -1.0312
 3188SOL     OW11237   7.567   8.087   3.172 -0.1820 -0.4349 -0.2236
 3188SOL    HW111238   7.593   8.168   3.130  2.6366 -1.7742 -1.3493
 3188SOL    HW211239   7.574   8.105   3.266  1.3215  0.3911 -0.4616
 3189SOL     OW11240   3.055   1.850   3.562  0.0836  0.1600  0.3094
 3189SOL    HW111241   3.085   1.852   3.653 -1.8188  1.0885  0.9739
 3189SOL    HW211242   3.135   1.849   3.510  1.2129 -0.1965  1.9794
 3190SOL     OW11243   6.897   6.484   0.302  0.0131  0.4283  0.2080
 3190SOL    HW111244   6.848   6.564   0.323 -3.2068 -0.7800 -1.8482
 3190SOL    HW211245   6.875   6.423   0.373  1.3846  0.8977  1.0692
 3191SOL     OW11246   7.077   5.636   5.463 -0.2755 -0.1108  0.3952
 3191SOL    HW111247   7.066   5.541   5.458  3.2541 -0.6401 -3.8431
 3191SOL    HW211248   7.029   5.670   5.388 -0.6404  1.3622  1.2547
 3192SOL     OW11249   7.226   0.614   2.473 -0.2450 -0.1112 -0.1414
 3192SOL    HW111250   7.295   0.547   2.471 -0.1524 -0.1157  1.4785
 3192SOL    HW211251   7.267   0.689   2.517 -1.7646 -0.8231  2.7543
 3193SOL     OW11252   0.888   1.503   7.095  0.1438  0.2165 -0.6945
 3193SOL    HW111253   0.803   1.534   7.064  0.4141  0.7075 -0.9554
 3193SOL    HW211254   0.921   1.447   7.025  0.4356  0.7537 -0.9933
 3194SOL     OW11255   5.174   7.197   1.916  0.5715 -0.1462  0.5204
 3194SOL    HW111256   5.088   7.189   1.957 -0.1215 -0.6317 -0.9505
 3194SOL    HW211257   5.170   7.278   1.866  0.1331 -1.2366 -1.3209
 3195SOL     OW11258   1.387   1.953   2.384 -0.4660 -0.6279 -0.3445
 3195SOL    HW111259   1.325   2.017   2.420  0.0232 -0.4764  0.2512
 3195SOL    HW211260   1.383   1.879   2.444  0.5006 -0.2953  0.1691
 3196SOL     OW11261   8.985   3.224   0.817 -0.3923 -0.0750 -0.1030
 3196SOL    HW111262   8.952   3.314   0.808  0.5113  0.3059  0.2515
 3196SOL    HW211263   9.081   3.233   0.812 -0.3217 -1.1190 -0.8942
 3197SOL     OW11264   5.627   0.380   0.607 -0.0982  0.4070 -0.1765
 3197SOL    HW111265   5.663   0.439   0.541 -0.5192  0.4313 -0.3931
 3197SOL    HW211266   5.608   0.299   0.559  0.2061  0.1996  0.0567
 3198SOL     OW11267   4.972   1.449   7.033  0.5614 -0.0226 -0.2636
 3198SOL    HW111268   5.010   1.507   7.099  1.7237 -1.6431  0.5455
 3198SOL    HW211269   5.024   1.466   6.954  0.1917  0.7728 -0.3526
 3199SOL     OW11270   0.889   7.500   7.319 -0.3401 -0.4801 -0.5821
 3199SOL    HW111271   0.961   7.440   7.301  2.1699  2.1268  0.1440
 3199SOL    HW211272   0.837   7.455   7.386  1.8684 -1.5336  0.5125
 3200SOL     OW11273   1.704   2.234   0.320  0.4575  0.0396 -0.6179
 3200SOL    HW111274   1.781   2.249   0.376 -0.1893 -0.3647  0.4157
 3200SOL    HW211275   1.689   2.139   0.326 -1.6551  0.3981  1.3432
 3201SOL     OW11276   9.028   4.588   4.740 -0.2906 -0.1181  0.5872
 3201SOL    HW111277   9.120   4.564   4.746 -0.8108 -2.0013  2.0150
 3201SOL    HW211278   8.992   4.570   4.827 -1.9858  0.7476  0.1276
 3202SOL     OW11279   3.194   1.925   5.824  0.3537  0.0765  0.2761
 3202SOL    HW111280   3.271   1.937   5.879  0.3437  0.5136  0.1966
 3202SOL    HW211281   3.169   2.014   5.797  0.0191 -0.0873  0.0349
 3203SOL     OW11282   7.811   3.599   3.240 -0.0318  0.1378 -0.2321
 3203SOL    HW111283   7.791   3.680   3.286  2.6455  0.1752  1.0759
 3203SOL    HW211284   7.873   3.624   3.172  2.4044 -0.9523  1.4432
 3204SOL     OW11285   5.012   4.393   7.995 -0.3168 -0.3759  0.4276
 3204SOL    HW111286   5.060   4.463   7.950  2.5906 -3.8031 -2.4299
 3204SOL    HW211287   5.072   4.364   8.064 -1.6066  0.0151  1.7633
 3205SOL     OW11288   2.129   1.367   5.556 -0.9380  0.0692 -0.4099
 3205SOL    HW111289   2.190   1.440   5.566 -0.7731 -0.1247  0.0035
 3205SOL    HW211290   2.086   1.359   5.641  0.1747 -1.3258  0.0645
 3206SOL     OW11291   0.659   8.162   4.758  0.0782  0.1001 -0.0485
 3206SOL    HW111292   0.703   8.207   4.686 -0.8369 -0.7012 -1.1268
 3206SOL    HW211293   0.718   8.090   4.780  0.1622  0.1102 -0.2439
 3207SOL     OW11294   8.610   4.305   7.558  0.0243 -0.1424 -0.2545
 3207SOL    HW111295   8.564   4.297   7.475 -0.4070 -1.8452  0.1029
 3207SOL    HW211296   8.551   4.264   7.622  1.0760 -0.3718  0.5936
 3208SOL     OW11297   4.162   8.099   6.339  0.1646 -0.0409 -0.6959
 3208SOL    HW111298   4.175   8.073   6.248 -0.8967  0.5703 -1.0402
 3208SOL    HW211299   4.124   8.022   6.381  1.2660 -0.5449 -0.6013
 3209SOL     OW11300   0.585   0.028   4.238  0.0018 -0.3180 -0.0229
 3209SOL    HW111301   0.662   0.020   4.181 -0.5488  0.5806 -0.9222
 3209SOL    HW211302   0.580   0.122   4.257 -0.3244 -0.5000  0.8128
 3210SOL     OW11303   1.560   4.508   9.182 -0.1709  0.1429 -0.0616
 3210SOL    HW111304   1.627   4.548   9.127 -1.2490  0.6429 -1.0402
 3210SOL    HW211305   1.577   4.543   9.270  0.4164  0.7925 -0.4272
 3211SOL     OW11306   0.975   2.125   1.623 -0.2549 -0.6003  0.1724
 3211SOL    HW111307   0.931   2.186   1.681  1.6548 -0.3707  1.4727
 3211SOL    HW211308   0.957   2.158   1.535  1.0375  2.1374  0.8407
 3212SOL     OW11309   7.714   6.828   7.525 -0.1328  0.3616  0.4509
 3212SOL    HW111310   7.695   6.886   7.599 -1.3971  0.0877  0.3464
 3212SOL    HW211311   7.650   6.853   7.458 -0.6636 -1.1158  0.3870
 3213SOL     OW11312   4.086   6.642   4.877 -0.5616 -0.1518 -0.1807
 3213SOL    HW111313   4.023   6.571   4.871 -1.5934  0.7978 -1.2414
 3213SOL    HW211314   4.041   6.717   4.838 -0.0995  1.5045  2.2023
 3214SOL     OW11315   3.272   3.913   1.401 -0.9249 -0.1548 -0.0389
 3214SOL    HW111316   3.308   4.001   1.386  0.9580 -1.0904 -1.4658
 3214SOL    HW211317   3.206   3.902   1.333  0.5181 -0.6615 -1.4218
 3215SOL     OW11318   9.529   2.010   2.418  0.0252 -0.7250  0.9113
 3215SOL    HW111319   9.613   1.966   2.408  1.0380  1.1273  0.9329
 3215SOL    HW211320   9.535   2.057   2.501 -0.0892  1.3212 -0.1712
 3216SOL     OW11321   7.406   0.303   0.579 -0.0787 -0.0347 -0.0204
 3216SOL    HW111322   7.464   0.252   0.523  0.0407  0.6208 -0.5019
 3216SOL    HW211323   7.338   0.336   0.520 -0.0071  0.5759  0.2325
 3217SOL     OW11324   7.712   2.167   3.339 -0.1708  0.4528  0.0533
 3217SOL    HW111325   7.749   2.255   3.343 -2.7504  1.6172  0.2312
 3217SOL    HW211326   7.626   2.176   3.380 -0.8409 -1.9803 -0.6930
 3218SOL     OW11327   6.417   4.859   8.408  0.5783 -0.3534  0.0106
 3218SOL    HW111328   6.512   4.863   8.419  0.4319  0.3674  1.2603
 3218SOL    HW211329   6.403   4.855   8.314  1.9366 -3.2749 -0.1924
 3219SOL     OW11330   2.649   2.732   4.904  0.6381 -0.2454  0.0373
 3219SOL    HW111331   2.663   2.680   4.825  2.1745 -2.8126  1.8920
 3219SOL    HW211332   2.592   2.678   4.959 -0.6597  1.6312  0.6523
 3220SOL     OW11333   3.439   1.198   5.498  0.3216  0.5363  0.1435
 3220SOL    HW111334   3.404   1.220   5.411 -0.7881  1.1954  0.7342
 3220SOL    HW211335   3.495   1.122   5.482  0.9041  1.2106 -1.2964
 3221SOL     OW11336   6.441   3.280   7.427  0.0296  0.2772 -0.3375
 3221SOL    HW111337   6.497   3.256   7.501  2.1817  0.8308 -1.6851
 3221SOL    HW211338   6.415   3.370   7.445 -2.2028 -0.5980  1.2687
 3222SOL     OW11339   1.348   8.498   5.303 -0.5848  0.5357  0.5339
 3222SOL    HW111340   1.408   8.443   5.354 -0.4014 -0.1311 -0.3645
 3222SOL    HW211341   1.325   8.570   5.362 -0.1971 -0.0792  1.4604
 3223SOL     OW11342   4.220   9.194   6.609 -0.2592  0.4450 -0.3162
 3223SOL    HW111343   4.186   9.183   6.698 -1.1167  0.8507 -0.5731
 3223SOL    HW211344   4.297   9.249   6.620  1.1727 -1.5884  0.4310
 3224SOL     OW11345   7.412   5.947   3.749  0.4147 -0.7996  0.5998
 3224SOL    HW111346   7.389   5.881   3.814 -0.9711  0.6846  1.7073
 3224SOL    HW211347   7.415   5.900   3.666  2.5071 -2.8112  1.7037
 3225SOL     OW11348   6.540   9.230   4.704  0.1000  0.2708 -0.6861
 3225SOL    HW111349   6.550   9.324   4.691 -0.3643  0.4329  0.0600
 3225SOL    HW211350   6.609   9.207   4.765  1.2263 -0.1823 -2.0723
 3226SOL     OW11351   7.109   1.524   6.250 -0.0609 -0.2437 -0.2843
 3226SOL    HW111352   7.090   1.481   6.167 -2.1110  0.5352 -0.2670
 3226SOL    HW211353   7.133   1.452   6.309 -0.3741 -1.0182 -1.0756
 3227SOL     OW11354   6.823   4.541   7.224 -0.4181 -0.1485 -0.3217
 3227SOL    HW111355   6.766   4.567   7.297 -1.4863 -0.9326 -0.8497
 3227SOL    HW211356   6.855   4.624   7.189 -0.6678  0.2797  0.4282
 3228SOL     OW11357   0.689   8.130   8.657  0.2776 -0.0516  0.5216
 3228SOL    HW111358   0.642   8.124   8.573  0.2884  2.0016  0.2960
 3228SOL    HW211359   0.626   8.098   8.722  0.2509 -1.6163 -0.2412
 3229SOL     OW11360   7.957   8.841   0.601 -0.6134 -0.3717 -0.4390
 3229SOL    HW111361   7.989   8.875   0.684 -0.5189 -2.0041  0.2219
 3229SOL    HW211362   7.866   8.815   0.619  0.1663 -3.1510 -0.0505
 3230SOL     OW11363   6.069   1.259   2.679  0.1419  0.1724  0.5072
 3230SOL    HW111364   6.019   1.190   2.635  1.2740 -1.0679  1.0920
 3230SOL    HW211365   6.065   1.333   2.618  0.0991 -0.8703 -0.8258
 3231SOL     OW11366   0.539   4.035   1.737  0.1141  0.3287  0.3425
 3231SOL    HW111367   0.509   3.986   1.660 -1.4160  3.0407 -0.9410
 3231SOL    HW211368   0.478   4.011   1.806 -0.6545  0.4267 -0.2861
 3232SOL     OW11369   1.212   4.935   5.473 -0.1503 -0.1654  0.5092
 3232SOL    HW111370   1.223   4.922   5.379  0.5617 -0.3875  0.6219
 3232SOL    HW211371   1.234   5.027   5.488  0.1773 -0.2481  0.5279
 3233SOL     OW11372   3.970   5.387   5.832 -0.5016 -0.1027  0.7319
 3233SOL    HW111373   3.934   5.325   5.768  1.2615  0.4135 -0.8412
 3233SOL    HW211374   4.049   5.344   5.865  0.9629  1.4183 -0.6717
 3234SOL     OW11375   4.475   3.183   8.719 -0.6120 -0.0438  0.1318
 3234SOL    HW111376   4.434   3.171   8.805 -1.2827 -0.4588 -0.2386
 3234SOL    HW211377   4.435   3.262   8.684 -0.1795  0.2462  0.2914
 3235SOL     OW11378   5.026   2.422   2.892 -0.0553  0.1181  0.0679
 3235SOL    HW111379   5.028   2.355   2.824  1.7751  0.4514 -0.2581
 3235SOL    HW211380   5.103   2.404   2.946  0.4468  1.8744  0.0184
 3236SOL     OW11381   7.541   4.163   5.500 -0.2897  0.8553 -0.0543
 3236SOL    HW111382   7.528   4.251   5.534  0.5141  1.3411 -0.9252
 3236SOL    HW211383   7.633   4.162   5.473 -0.2568 -0.2963  0.0701
 3237SOL     OW11384   1.154   0.282   5.407  0.0399 -0.0296  0.3713
 3237SOL    HW111385   1.158   0.225   5.331 -1.8792 -0.0247  0.2111
 3237SOL    HW211386   1.212   0.355   5.386  0.2010 -0.4554 -0.7152
 3238SOL     OW11387   8.759   6.457   9.339  0.6999  0.5817  0.0092
 3238SOL    HW111388   8.851   6.433   9.336  0.2565 -1.1363 -0.9376
 3238SOL    HW211389   8.712   6.374   9.334 -0.9045  1.4737 -0.3411
 3239SOL     OW11390   8.884   2.178   3.048 -0.4753 -0.3550 -0.5850
 3239SOL    HW111391   8.891   2.089   3.082  0.8762 -1.3543 -3.1810
 3239SOL    HW211392   8.869   2.166   2.954 -0.9559  2.1861 -0.8947
 3240SOL     OW11393   0.600   3.074   0.786 -0.3741 -0.0399 -0.4020
 3240SOL    HW111394   0.562   3.024   0.715 -1.8994  0.5700 -0.0412
 3240SOL    HW211395   0.608   3.163   0.751 -1.1667  0.2719  0.1789
 3241SOL     OW11396   0.384   6.039   8.524  0.2865 -0.6732 -0.5409
 3241SOL    HW111397   0.295   6.067   8.543  1.9953  4.0035  2.2548
 3241SOL    HW211398   0.411   5.990   8.601  1.3118  1.6443  0.6585
 3242SOL     OW11399   3.946   3.513   1.936 -0.0554 -0.6169  0.5406
 3242SOL    HW111400   3.965   3.567   1.859 -0.7951  0.4571  1.0959
 3242SOL    HW211401   3.896   3.439   1.901 -0.0019 -0.3700 -0.0702
 3243SOL     OW11402   2.502   3.674   4.979 -0.3939 -0.1651  0.3077
 3243SOL    HW111403   2.538   3.750   5.023 -1.0591  0.7358 -0.6642
 3243SOL    HW211404   2.575   3.641   4.925 -0.1115 -0.2159  0.7181
 3244SOL     OW11405   3.163   6.435   8.091 -0.3416  0.1928 -0.4225
 3244SOL    HW111406   3.133   6.412   8.179 -0.8551 -0.3557 -0.7299
 3244SOL    HW211407   3.211   6.517   8.102  1.5629 -1.0047  0.7284
 3245SOL     OW11408   3.890   4.474   8.368  0.0560  0.3185 -0.3983
 3245SOL    HW111409   3.911   4.554   8.416  0.9311 -0.0423 -0.1624
 3245SOL    HW211410   3.879   4.503   8.277  2.2712  0.4691 -0.6837
 3246SOL     OW11411   7.691   7.050   7.248  0.5550  0.2688  0.2414
 3246SOL    HW111412   7.628   6.988   7.284 -0.1532  1.9103  2.0293
 3246SOL    HW211413   7.665   7.061   7.157  0.6152 -1.8912 -0.0761
 3247SOL     OW11414   2.842   1.247   5.994 -0.2442  0.1123 -0.4710
 3247SOL    HW111415   2.824   1.320   6.054 -1.9526  0.6802 -1.6284
 3247SOL    HW211416   2.758   1.226   5.955  0.5536 -1.3138 -1.5153
 3248SOL     OW11417   5.360   0.916   5.817  0.5531  0.2641 -0.1912
 3248SOL    HW111418   5.295   0.914   5.747  0.7827 -2.0770 -0.4189
 3248SOL    HW211419   5.439   0.951   5.775  0.8305 -1.5695 -1.3095
 3249SOL     OW11420   6.425   4.622   2.022  0.3432  0.0980  0.4434
 3249SOL    HW111421   6.427   4.702   2.075 -1.8708 -0.1421  1.0105
 3249SOL    HW211422   6.339   4.624   1.980  0.2873 -1.9031  0.3785
 3250SOL     OW11423   7.163   9.393   4.268  0.5960 -0.2438 -0.2643
 3250SOL    HW111424   7.098   9.448   4.313  0.9936  0.8784 -1.0225
 3250SOL    HW211425   7.220   9.361   4.337  0.9220  1.0828  0.1042
 3251SOL     OW11426   7.519   4.810   5.809 -0.2801 -0.6611  0.6138
 3251SOL    HW111427   7.568   4.790   5.888  0.9610 -0.1412 -0.0021
 3251SOL    HW211428   7.519   4.906   5.804 -0.6259 -0.6791  0.1651
 3252SOL     OW11429   2.144   6.059   8.950 -0.4725  0.3006  0.2566
 3252SOL    HW111430   2.133   6.120   9.022 -0.6710  2.2302 -1.3272
 3252SOL    HW211431   2.239   6.045   8.945 -0.2746  1.7163 -0.3043
 3253SOL     OW11432   8.585   8.244   0.394 -0.0685 -0.1977 -0.0068
 3253SOL    HW111433   8.552   8.334   0.394  0.1274 -0.1238  0.2232
 3253SOL    HW211434   8.585   8.218   0.486 -0.3876 -0.5318 -0.1002
 3254SOL     OW11435   4.737   0.929   3.342  0.5504  0.1597  0.0473
 3254SOL    HW111436   4.814   0.946   3.288 -0.3998 -0.5254 -1.6045
 3254SOL    HW211437   4.663   0.946   3.284 -0.5598  0.3821  1.4621
 3255SOL     OW11438   2.758   5.224   1.960  0.0957  0.3577 -0.1707
 3255SOL    HW111439   2.737   5.314   1.984 -1.8502 -0.3429  0.9617
 3255SOL    HW211440   2.799   5.187   2.038  0.0212 -0.0091 -0.3019
 3256SOL     OW11441   7.554   1.793   5.840 -0.0454  0.3564 -0.1744
 3256SOL    HW111442   7.631   1.807   5.895  1.2324  0.5160 -1.9166
 3256SOL    HW211443   7.556   1.700   5.818 -0.0208  0.4724 -0.6799
 3257SOL     OW11444   8.236   2.634   6.836 -0.0924 -0.3276  0.0694
 3257SOL    HW111445   8.300   2.565   6.823 -0.3347 -0.6528  0.5443
 3257SOL    HW211446   8.273   2.711   6.792 -0.8673 -1.3088 -2.4646
 3258SOL     OW11447   8.270   0.337   5.945  0.5346  0.1881 -0.4431
 3258SOL    HW111448   8.198   0.337   6.008 -1.2689 -0.1431 -2.3904
 3258SOL    HW211449   8.257   0.416   5.894  1.0410 -0.3139 -1.3754
 3259SOL     OW11450   3.875   5.241   0.697  0.1726 -0.3313 -0.0853
 3259SOL    HW111451   3.906   5.322   0.655 -1.0449 -0.4805 -1.3470
 3259SOL    HW211452   3.846   5.269   0.784 -0.2217  0.6110 -0.5047
 3260SOL     OW11453   4.172   1.681   8.004  0.4285 -0.5115 -0.4549
 3260SOL    HW111454   4.131   1.740   7.942 -0.0612  0.3580  0.6638
 3260SOL    HW211455   4.118   1.602   8.001 -0.5128  0.1009 -0.0253
 3261SOL     OW11456   8.613   3.953   8.658  0.5247  0.5732 -0.0459
 3261SOL    HW111457   8.602   3.937   8.752  1.3308 -0.4125 -0.0951
 3261SOL    HW211458   8.600   4.047   8.647  2.5441  1.0684  1.3793
 3262SOL     OW11459   6.654   6.721   8.926  0.3066 -0.0325 -0.0903
 3262SOL    HW111460   6.627   6.665   8.999  0.6585 -0.3300 -0.1854
 3262SOL    HW211461   6.585   6.710   8.861 -0.4889  0.9577  0.5594
 3263SOL     OW11462   2.665   4.756   6.755  0.0351  0.3393  0.4106
 3263SOL    HW111463   2.642   4.841   6.717  0.4606  1.1619  1.9079
 3263SOL    HW211464   2.760   4.752   6.749 -0.0740 -1.6069 -2.7537
 3264SOL     OW11465   6.391   9.053   2.373 -0.0681 -0.0564 -0.5959
 3264SOL    HW111466   6.397   9.062   2.278 -2.2394 -3.3663 -1.2085
 3264SOL    HW211467   6.461   8.993   2.397 -0.2115 -0.0948 -0.2587
 3265SOL     OW11468   9.556   3.894   1.569  0.1899 -0.1135  0.4177
 3265SOL    HW111469   9.510   3.943   1.501  0.6653  1.1096  0.9475
 3265SOL    HW211470   9.642   3.876   1.531  0.2307 -0.0042  0.4610
 3266SOL     OW11471   7.729   0.898   5.397 -0.6773  0.1244 -0.5887
 3266SOL    HW111472   7.705   0.807   5.381 -0.8275 -0.2164  1.3152
 3266SOL    HW211473   7.663   0.949   5.351  0.5625 -0.6421 -3.4156
 3267SOL     OW11474   3.058   5.310   1.650  0.1066 -0.0137 -0.0536
 3267SOL    HW111475   3.115   5.290   1.724  1.0978 -0.8115 -0.9989
 3267SOL    HW211476   3.069   5.236   1.590 -1.2551  0.2464 -0.6674
 3268SOL     OW11477   8.233   6.311   8.962  0.0026  0.8401  0.6585
 3268SOL    HW111478   8.236   6.373   8.889 -1.2087  0.4115  0.2230
 3268SOL    HW211479   8.325   6.291   8.980  0.3782  2.1248  0.2655
 3269SOL     OW11480   6.887   5.248   3.269  0.5387  0.1521  0.4076
 3269SOL    HW111481   6.879   5.161   3.308 -0.3787  0.5136  1.0634
 3269SOL    HW211482   6.869   5.308   3.341  0.1619  0.8684 -0.2711
 3270SOL     OW11483   1.610   5.597   5.118  0.2970  0.3912 -0.4064
 3270SOL    HW111484   1.623   5.648   5.038  2.3862 -0.6371 -0.7803
 3270SOL    HW211485   1.640   5.655   5.188 -1.4341  1.2525 -0.2952
 3271SOL     OW11486   6.933   2.526   8.964 -0.0841  0.2281  0.2243
 3271SOL    HW111487   6.907   2.436   8.944  1.2566  0.1859 -1.5953
 3271SOL    HW211488   6.891   2.579   8.896 -0.1952  0.8849  0.7901
 3272SOL     OW11489   8.768   1.114   2.906 -0.3503 -0.0599  0.4134
 3272SOL    HW111490   8.853   1.071   2.917 -0.2739 -0.0374 -0.0671
 3272SOL    HW211491   8.704   1.049   2.934 -0.5210 -1.9544 -3.6744
 3273SOL     OW11492   7.506   0.300   3.132 -0.5466  0.5656 -0.3576
 3273SOL    HW111493   7.497   0.218   3.082  0.5962  0.9503 -1.2402
 3273SOL    HW211494   7.536   0.272   3.218 -0.5708  0.0119 -0.5228
 3274SOL     OW11495   7.017   2.736   2.465 -0.4156 -0.1111 -0.4568
 3274SOL    HW111496   7.061   2.653   2.482 -1.2920 -0.9185 -1.8829
 3274SOL    HW211497   7.085   2.802   2.476  0.4245 -1.0511  0.2129
 3275SOL     OW11498   7.740   8.533   6.328 -0.0042  0.2036  0.4193
 3275SOL    HW111499   7.725   8.494   6.414 -1.3969  0.9745  0.5400
 3275SOL    HW211500   7.653   8.546   6.292  0.5573 -0.0041 -1.0793
 3276SOL     OW11501   5.718   0.585   5.863 -0.1297  0.2967  0.1793
 3276SOL    HW111502   5.708   0.638   5.784 -3.2069 -0.4852 -0.0976
 3276SOL    HW211503   5.743   0.499   5.830  1.6723  0.7126  0.3707
 3277SOL     OW11504   5.023   5.643   5.520 -0.4993  0.5628  0.8351
 3277SOL    HW111505   5.118   5.639   5.520 -0.5452 -2.3722  0.4753
 3277SOL    HW211506   4.998   5.639   5.428 -0.9781  1.1078  0.9353
 3278SOL     OW11507   8.815   4.189   7.695 -0.0943  0.7437 -0.5352
 3278SOL    HW111508   8.825   4.254   7.764  0.0171  1.5509 -1.2980
 3278SOL    HW211509   8.748   4.224   7.637  0.4876  0.5533 -1.3543
 3279SOL     OW11510   1.383   5.435   7.342 -0.1424 -0.1383  0.3918
 3279SOL    HW111511   1.437   5.419   7.419  0.5872  2.7103  0.5900
 3279SOL    HW211512   1.412   5.369   7.278  2.2343  0.0600  1.1512
 3280SOL     OW11513   2.651   7.725   1.742 -0.5342 -0.5185  0.0062
 3280SOL    HW111514   2.672   7.764   1.827  0.8323 -2.6154  0.7173
 3280SOL    HW211515   2.703   7.644   1.739 -2.3285 -1.7120 -1.8400
 3281SOL     OW11516   1.555   5.083   2.850  0.3286 -0.0364 -0.0622
 3281SOL    HW111517   1.651   5.078   2.851  0.2559 -1.6969  0.3313
 3281SOL    HW211518   1.534   5.145   2.920  1.0816 -0.2414  0.3602
 3282SOL     OW11519   5.183   5.031   7.579  0.5877  0.0761  0.1223
 3282SOL    HW111520   5.200   5.045   7.486  1.1398 -0.0574  0.1966
 3282SOL    HW211521   5.246   4.963   7.605 -0.4341 -0.8409  0.2991
 3283SOL     OW11522   5.658   4.900   0.260  0.1229 -0.4028  0.1990
 3283SOL    HW111523   5.693   4.973   0.209 -0.4799 -0.0634  0.2556
 3283SOL    HW211524   5.709   4.899   0.341  0.0539  0.0414  0.2511
 3284SOL     OW11525   5.758   1.398   0.554  1.0554 -0.1382  0.2566
 3284SOL    HW111526   5.753   1.434   0.465  1.5868  1.2708  0.7663
 3284SOL    HW211527   5.852   1.398   0.574  1.0482 -1.6019  0.3915
 3285SOL     OW11528   8.836   6.086   3.154  0.1041  0.2719  0.2853
 3285SOL    HW111529   8.896   6.049   3.089 -1.0566  0.7655 -1.1249
 3285SOL    HW211530   8.892   6.136   3.213  1.4730 -1.9767  1.0338
 3286SOL     OW11531   3.176   7.896   5.712 -0.0774 -0.8371  0.5749
 3286SOL    HW111532   3.114   7.956   5.670  2.2215  0.3373 -1.3879
 3286SOL    HW211533   3.144   7.809   5.687 -0.9615 -0.2703 -0.3831
 3287SOL     OW11534   5.145   1.025   3.469  0.0605 -0.3244  0.2178
 3287SOL    HW111535   5.088   1.102   3.466 -0.2138 -0.5520 -0.4394
 3287SOL    HW211536   5.086   0.951   3.453  0.5047 -0.5762 -0.2770
 3288SOL     OW11537   6.506   5.361   0.522 -0.0454 -0.3890 -0.1866
 3288SOL    HW111538   6.462   5.426   0.468 -0.1338  0.0246  0.3679
 3288SOL    HW211539   6.441   5.291   0.532 -0.8569  0.5095  1.1634
 3289SOL     OW11540   5.399   1.590   7.539  0.0685  0.7713 -0.0884
 3289SOL    HW111541   5.482   1.593   7.491  0.3642 -0.1218  0.3596
 3289SOL    HW211542   5.370   1.682   7.542  1.2670  1.1550  0.1578
 3290SOL     OW11543   0.191   8.526   3.288 -0.3914 -0.2966  0.0336
 3290SOL    HW111544   0.233   8.599   3.242 -1.7202 -0.1138 -0.9485
 3290SOL    HW211545   0.244   8.513   3.367 -0.2715  1.8961  0.3630
 3291SOL     OW11546   3.941   8.884   7.182 -0.0944 -0.2039  0.5282
 3291SOL    HW111547   4.030   8.854   7.163 -0.1019  0.2019 -0.1550
 3291SOL    HW211548   3.954   8.970   7.224 -0.0907 -0.9500  2.1159
 3292SOL     OW11549   6.118   6.995   6.838 -0.2960  0.1799 -0.2497
 3292SOL    HW111550   6.206   6.973   6.807 -0.7907 -1.4772 -0.5832
 3292SOL    HW211551   6.087   6.915   6.880 -2.5491 -0.1360 -2.2647
 3293SOL     OW11552   7.444   0.478   3.865 -0.5177  0.0182 -0.0660
 3293SOL    HW111553   7.392   0.451   3.790 -0.6523  0.9784 -0.3360
 3293SOL    HW211554   7.534   0.454   3.842 -0.3684  1.4150 -1.1100
 3294SOL     OW11555   8.445   8.649   1.723  0.0196 -0.6942  0.1888
 3294SOL    HW111556   8.372   8.707   1.702  1.0782  0.4933 -0.3349
 3294SOL    HW211557   8.430   8.624   1.814 -0.2422  0.7581  0.5622
 3295SOL     OW11558   4.891   2.643   1.932  0.0726 -0.0616  0.0043
 3295SOL    HW111559   4.802   2.678   1.932 -0.0125 -0.2744  0.5521
 3295SOL    HW211560   4.911   2.628   2.024  0.0546 -1.5891 -0.2130
 3296SOL     OW11561   7.127   8.309   0.755  0.0235  0.2272 -0.2049
 3296SOL    HW111562   7.148   8.390   0.801  0.0185  1.0860 -1.6633
 3296SOL    HW211563   7.150   8.326   0.664  0.8335 -1.7204 -0.4173
 3297SOL     OW11564   9.137   2.258   2.689  0.5474  0.0229  0.1942
 3297SOL    HW111565   9.184   2.243   2.771 -0.6478 -0.1551  0.8796
 3297SOL    HW211566   9.118   2.170   2.656 -1.6703 -0.0051  1.3655
 3298SOL     OW11567   9.557   6.777   3.994  0.4786  0.1830  0.0183
 3298SOL    HW111568   9.517   6.805   3.912  0.8236  0.0595 -0.1981
 3298SOL    HW211569   9.647   6.810   3.989  0.0706  1.5685  1.0525
 3299SOL     OW11570   0.717   3.585   0.496 -0.3869  0.4504 -0.1639
 3299SOL    HW111571   0.732   3.491   0.488  0.2565  0.6310 -1.3111
 3299SOL    HW211572   0.682   3.612   0.411  2.8352  1.7954 -1.2329
 3300SOL     OW11573   8.450   8.494   7.513  0.4682 -0.0816  0.5686
 3300SOL    HW111574   8.374   8.460   7.466  1.7693  0.6305 -2.2398
 3300SOL    HW211575   8.414   8.557   7.575 -1.1665  1.6950 -2.0194
 3301SOL     OW11576   7.385   1.483   2.625 -0.1423 -0.1396 -0.4601
 3301SOL    HW111577   7.315   1.473   2.689  1.0849  0.5717  1.0845
 3301SOL    HW211578   7.442   1.550   2.663  0.7570  0.1578 -2.2254
 3302SOL     OW11579   9.322   7.934   6.284  0.2581  0.1017 -0.0311
 3302SOL    HW111580   9.417   7.942   6.274  0.4373 -0.4607  1.0833
 3302SOL    HW211581   9.286   7.970   6.202  1.4713 -1.0113 -1.1087
 3303SOL     OW11582   4.902   0.629   7.098  0.4270  0.4567  0.9173
 3303SOL    HW111583   4.946   0.551   7.067 -0.4254  0.0638  0.6679
 3303SOL    HW211584   4.887   0.613   7.192  2.3473  1.3356  1.4230
 3304SOL     OW11585   7.498   2.198   3.118  0.4276  0.1333  0.5768
 3304SOL    HW111586   7.477   2.152   3.200 -1.4071  1.2757  0.7993
 3304SOL    HW211587   7.492   2.130   3.051  1.9381 -0.8143  1.3582
 3305SOL     OW11588   6.643   7.082   6.720 -0.1124 -0.1375 -0.5028
 3305SOL    HW111589   6.584   7.144   6.678 -0.4552 -0.2951 -0.2620
 3305SOL    HW211590   6.688   7.039   6.648 -3.1034 -2.8539 -0.9668
 3306SOL     OW11591   0.413   1.237   0.225 -0.2754  0.9858 -0.2266
 3306SOL    HW111592   0.444   1.305   0.285 -0.1153  0.7490 -0.0387
 3306SOL    HW211593   0.478   1.238   0.154  1.2832 -0.7953  1.0757
 3307SOL     OW11594   6.283   3.136   8.022 -0.2438 -0.2526 -0.1531
 3307SOL    HW111595   6.298   3.170   7.934  0.3378 -0.2867 -0.0749
 3307SOL    HW211596   6.352   3.176   8.075 -1.0739  0.4206  0.4647
 3308SOL     OW11597   7.717   5.848   2.007  0.4514  0.0403 -0.6859
 3308SOL    HW111598   7.706   5.942   2.022 -1.0682 -0.3912  1.2665
 3308SOL    HW211599   7.808   5.839   1.978  1.1927  1.9267  0.8329
 3309SOL     OW11600   7.177   6.640   5.285 -0.5641 -0.0964  0.3291
 3309SOL    HW111601   7.141   6.658   5.198  0.6467  0.9279  0.0164
 3309SOL    HW211602   7.260   6.686   5.287 -0.0431 -1.0261  1.6461
 3310SOL     OW11603   3.832   3.660   3.904 -0.1762  0.0354  0.2651
 3310SOL    HW111604   3.765   3.601   3.871 -0.3484  0.8783 -0.9341
 3310SOL    HW211605   3.909   3.643   3.850  0.2844 -0.2237  0.9833
 3311SOL     OW11606   8.400   6.327   0.457 -0.3431  0.3867  0.5847
 3311SOL    HW111607   8.490   6.294   0.465  0.4610  1.7719 -1.7473
 3311SOL    HW211608   8.359   6.271   0.391 -0.6332  0.8167  0.3920
 3312SOL     OW11609   2.544   4.187   3.987 -0.4806 -0.2551  0.2813
 3312SOL    HW111610   2.576   4.104   3.951  0.9568 -0.0942  1.0797
 3312SOL    HW211611   2.623   4.240   3.997 -1.2001  0.6970  1.0926
 3313SOL     OW11612   0.935   2.087   5.955 -0.5404  0.3388  0.3857
 3313SOL    HW111613   1.014   2.035   5.943 -0.3776  0.8342 -0.7610
 3313SOL    HW211614   0.953   2.139   6.034 -0.1311 -0.2702  0.7055
 3314SOL     OW11615   2.378   3.741   0.250 -0.0349  0.0066 -0.0227
 3314SOL    HW111616   2.410   3.815   0.302 -0.0012 -0.6690  0.9371
 3314SOL    HW211617   2.442   3.732   0.180  0.9946 -0.2736  0.9219
 3315SOL     OW11618   8.880   8.297   0.586 -0.5174  0.7400  0.2062
 3315SOL    HW111619   8.853   8.357   0.518 -1.0757 -2.1970 -2.4043
 3315SOL    HW211620   8.800   8.252   0.612  0.3294 -1.4655 -0.7532
 3316SOL     OW11621   8.015   2.118   3.300  0.2011 -0.2333  0.2314
 3316SOL    HW111622   8.039   2.086   3.387 -2.4609  0.4466  1.3098
 3316SOL    HW211623   7.951   2.054   3.268  0.8266 -0.2385 -1.0978
 3317SOL     OW11624   3.430   9.325   7.722 -0.2606 -0.3146 -0.2118
 3317SOL    HW111625   3.499   9.267   7.754  1.5288  1.2658 -1.0257
 3317SOL    HW211626   3.416   9.298   7.631  1.1197  0.9438 -0.8338
 3318SOL     OW11627   4.983   0.922   0.380 -0.4007 -0.1980  0.2227
 3318SOL    HW111628   5.042   0.876   0.440 -1.5510  1.8865  3.1684
 3318SOL    HW211629   5.018   0.903   0.293  2.5552 -1.7995  1.6074
 3319SOL     OW11630   0.530   3.124   5.878 -0.0669 -0.7719 -0.4625
 3319SOL    HW111631   0.534   3.034   5.909 -0.7361 -1.2415 -1.6870
 3319SOL    HW211632   0.469   3.122   5.805  0.3559  0.5654 -0.8874
 3320SOL     OW11633   0.397   6.099   6.022  0.0564 -0.1935 -0.1224
 3320SOL    HW111634   0.303   6.106   6.037 -0.1102 -1.6700 -0.3317
 3320SOL    HW211635   0.414   6.005   6.018  1.3528  0.0483 -1.2223
 3321SOL     OW11636   1.623   9.195   4.803  0.2874  0.4374 -0.9670
 3321SOL    HW111637   1.571   9.230   4.876 -0.4145 -3.5003  0.7040
 3321SOL    HW211638   1.591   9.242   4.727 -1.9079  1.9492  0.7379
 3322SOL     OW11639   6.808   5.184   9.248 -0.4903 -0.1861  0.4892
 3322SOL    HW111640   6.757   5.143   9.179  0.6729 -1.2584  0.2252
 3322SOL    HW211641   6.840   5.265   9.210 -3.3660  1.4298  1.2362
 3323SOL     OW11642   2.437   8.886   4.507 -0.3501 -0.2671  0.2174
 3323SOL    HW111643   2.514   8.832   4.491 -0.2881  0.0186 -0.5000
 3323SOL    HW211644   2.469   8.976   4.496 -0.8835 -0.1631 -0.5675
 3324SOL     OW11645   3.853   8.978   0.835 -0.0012 -0.6659  0.3679
 3324SOL    HW111646   3.902   8.929   0.769 -1.1551 -2.1013  0.5401
 3324SOL    HW211647   3.881   8.940   0.919  1.2740  0.9837  0.7491
 3325SOL     OW11648   0.218   6.952   5.324 -0.0044  0.4699 -0.4211
 3325SOL    HW111649   0.306   6.976   5.294  0.5170  1.3017  1.6234
 3325SOL    HW211650   0.176   7.036   5.342 -0.6116  0.0253  0.2719
 3326SOL     OW11651   9.015   8.539   4.684 -0.6063 -0.1504 -0.0303
 3326SOL    HW111652   8.996   8.546   4.778  1.6951 -0.2674  0.5097
 3326SOL    HW211653   9.048   8.625   4.660 -1.2232 -0.1097 -0.7616
 3327SOL     OW11654   2.483   5.356   8.001 -0.2088  0.7630  0.2287
 3327SOL    HW111655   2.567   5.395   7.977 -0.1962  0.0506 -0.9310
 3327SOL    HW211656   2.498   5.262   7.995 -1.0329  0.6271  0.2484
 3328SOL     OW11657   3.733   5.148   4.986  0.1883 -0.3856 -0.9617
 3328SOL    HW111658   3.822   5.151   4.950  0.9117 -1.0881  0.7088
 3328SOL    HW211659   3.736   5.204   5.063 -0.8942 -0.2631 -0.9898
 3329SOL     OW11660   4.704   3.791   8.008  0.2847 -0.1451  0.0067
 3329SOL    HW111661   4.657   3.707   8.010 -0.4920  0.2742 -0.1653
 3329SOL    HW211662   4.654   3.847   8.068 -0.1068  0.6507 -1.0370
 3330SOL     OW11663   4.893   3.979   7.845 -0.4355 -0.1758  0.1815
 3330SOL    HW111664   4.971   3.924   7.834 -1.9712 -2.0109 -3.0098
 3330SOL    HW211665   4.848   3.942   7.921  1.0469 -0.0039  1.1792
 3331SOL     OW11666   4.244   8.636   4.341 -0.5982 -0.4464  0.1609
 3331SOL    HW111667   4.281   8.710   4.294 -0.5046  0.1769  1.1827
 3331SOL    HW211668   4.153   8.631   4.311 -0.0925 -1.1475 -1.3474
 3332SOL     OW11669   1.764   4.433   8.839 -0.2400 -0.2157  0.4793
 3332SOL    HW111670   1.820   4.357   8.824 -0.0949  0.0119 -0.1700
 3332SOL    HW211671   1.675   4.398   8.838 -0.4013 -0.0041 -2.8537
 3333SOL     OW11672   2.043   2.606   0.142  0.6359  0.6378 -0.0756
 3333SOL    HW111673   2.018   2.529   0.192  1.4428  0.2652 -0.2387
 3333SOL    HW211674   2.019   2.585   0.051  0.4345  0.7679 -0.0544
 3334SOL     OW11675   4.085   3.191   3.906 -0.0197  0.5845  0.5818
 3334SOL    HW111676   4.052   3.191   3.996 -1.9523  1.1228 -0.0751
 3334SOL    HW211677   4.157   3.254   3.907 -1.2893  2.1215  1.3789
 3335SOL     OW11678   8.224   1.002   1.480  0.5022 -0.5063 -0.0805
 3335SOL    HW111679   8.162   1.074   1.466 -0.0349 -1.1085 -0.9021
 3335SOL    HW211680   8.253   0.977   1.393  2.4487  0.1911  0.3232
 3336SOL     OW11681   7.720   9.037   0.503  0.4830 -0.1643 -0.8771
 3336SOL    HW111682   7.769   9.086   0.570  0.0398  0.4485 -0.9916
 3336SOL    HW211683   7.787   8.984   0.459  0.7774 -0.5890  0.0541
 3337SOL     OW11684   6.236   6.957   0.525  0.3107 -0.3637  0.3437
 3337SOL    HW111685   6.194   6.889   0.473 -2.1510  1.7870 -0.7082
 3337SOL    HW211686   6.311   6.913   0.566  0.6276 -2.9264 -2.5957
 3338SOL     OW11687   7.110   3.988   5.421 -0.1204 -0.1847  0.3800
 3338SOL    HW111688   7.066   3.917   5.373  0.5519 -2.2622  2.6418
 3338SOL    HW211689   7.201   3.985   5.389  0.0406 -0.7447  0.8779
 3339SOL     OW11690   7.563   2.637   2.980 -0.3658  0.1011 -0.1202
 3339SOL    HW111691   7.606   2.553   2.995 -0.4233 -0.0250 -0.6594
 3339SOL    HW211692   7.542   2.668   3.068 -0.3069 -0.4266  0.0869
 3340SOL     OW11693   1.717   3.619   7.038  0.2362  0.0131 -0.9661
 3340SOL    HW111694   1.664   3.576   7.104 -0.7572 -0.8892 -2.2875
 3340SOL    HW211695   1.781   3.670   7.087 -1.1510  0.2510  0.6748
 3341SOL     OW11696   3.147   7.026   5.047  0.1088 -0.3103  0.1460
 3341SOL    HW111697   3.095   7.103   5.070  0.3716 -0.3431  0.8962
 3341SOL    HW211698   3.140   7.019   4.952  1.8856  1.9578 -0.2298
 3342SOL     OW11699   0.632   7.425   1.788  0.1293  0.5721 -0.0028
 3342SOL    HW111700   0.607   7.517   1.798 -0.2086  0.4993 -0.1353
 3342SOL    HW211701   0.700   7.426   1.721 -0.6850  0.6166 -0.8566
 3343SOL     OW11702   4.523   1.199   6.236 -0.6743  0.1367 -0.1364
 3343SOL    HW111703   4.454   1.158   6.184  0.9201 -0.3890 -1.9602
 3343SOL    HW211704   4.585   1.234   6.170  1.5553 -0.7233  1.3870
 3344SOL     OW11705   6.047   2.292   2.259  0.2434 -0.4981 -0.3496
 3344SOL    HW111706   6.091   2.353   2.200 -0.3609 -0.0574 -0.3498
 3344SOL    HW211707   6.092   2.303   2.343 -1.7333  2.1825  0.5001
 3345SOL     OW11708   8.460   5.300   9.363  0.5139 -0.2024 -0.1048
 3345SOL    HW111709   8.367   5.296   9.384  0.5940  0.3689  0.4051
 3345SOL    HW211710   8.485   5.209   9.348  0.0301 -0.4461  0.4927
 3346SOL     OW11711   0.108   5.832   7.310  0.0304 -0.8175 -0.7953
 3346SOL    HW111712   0.137   5.849   7.400 -1.1532 -3.1644  0.1066
 3346SOL    HW211713   0.188   5.840   7.257  0.6942  0.8883  0.3738
 3347SOL     OW11714   6.167   2.949   4.497 -0.0838 -0.1507  0.0766
 3347SOL    HW111715   6.241   2.947   4.437 -0.1666  2.4053 -0.2228
 3347SOL    HW211716   6.195   3.005   4.570 -1.2397 -0.2179  0.6120
 3348SOL     OW11717   5.956   4.305   2.800  0.1977 -0.0565 -0.3511
 3348SOL    HW111718   5.918   4.221   2.826  0.0514 -0.1527 -0.8695
 3348SOL    HW211719   5.943   4.309   2.706  1.2187  0.0406 -0.4933
 3349SOL     OW11720   7.947   1.679   8.956  0.5308 -0.1893  0.7513
 3349SOL    HW111721   7.888   1.677   8.881 -0.3034 -0.5459  1.4084
 3349SOL    HW211722   7.929   1.598   9.003  1.3175 -0.1487  1.1345
 3350SOL     OW11723   4.419   5.938   2.852  0.2231  0.5314  0.4594
 3350SOL    HW111724   4.505   5.961   2.887  0.0205  0.5718  0.9333
 3350SOL    HW211725   4.375   5.893   2.924 -0.1981  0.6154  0.2567
 3351SOL     OW11726   5.311   8.078   0.952 -0.1039 -0.4122 -0.3156
 3351SOL    HW111727   5.393   8.030   0.950  0.3514  0.3653 -1.6593
 3351SOL    HW211728   5.257   8.032   1.017  1.1327 -1.3337  0.0817
 3352SOL     OW11729   5.341   8.368   0.215  0.4972 -0.1032 -0.1664
 3352SOL    HW111730   5.281   8.330   0.279  0.5516 -3.2733 -1.7891
 3352SOL    HW211731   5.404   8.297   0.197  2.8503  2.0077 -0.8771
 3353SOL     OW11732   0.161   1.568   6.099 -0.6401  0.3315  0.6403
 3353SOL    HW111733   0.193   1.648   6.056  0.7912 -0.3777  0.3027
 3353SOL    HW211734   0.135   1.597   6.187 -0.7162  1.2699  0.3205
 3354SOL     OW11735   6.751   6.871   8.725 -0.4299  0.3738 -0.2361
 3354SOL    HW111736   6.710   6.956   8.741  0.4615  0.5903  1.0047
 3354SOL    HW211737   6.712   6.813   8.791 -0.8395 -0.1194 -0.9060
 3355SOL     OW11738   8.906   5.204   5.990 -0.0716  0.2959 -0.2478
 3355SOL    HW111739   8.814   5.229   5.978  0.5614  2.5118 -0.9109
 3355SOL    HW211740   8.941   5.195   5.902  1.2418  3.2643 -0.1329
 3356SOL     OW11741   2.691   9.251   1.974  0.3785  0.4078 -0.5672
 3356SOL    HW111742   2.752   9.209   1.912  1.0826 -0.1472  0.4761
 3356SOL    HW211743   2.731   9.236   2.060 -1.6927 -0.7481  0.2479
 3357SOL     OW11744   7.703   2.907   5.723  0.4802 -0.1282 -0.1216
 3357SOL    HW111745   7.619   2.862   5.713 -0.0615  0.0792  2.6745
 3357SOL    HW211746   7.695   2.986   5.669  0.0311 -1.4469 -2.1225
 3358SOL     OW11747   5.358   2.558   6.869 -0.4440  0.1863 -0.0249
 3358SOL    HW111748   5.357   2.542   6.775 -2.1880 -0.3601  0.0445
 3358SOL    HW211749   5.342   2.651   6.879 -0.6643  0.1740 -0.2679
 3359SOL     OW11750   2.631   8.711   0.026 -0.6141  0.3985  0.0791
 3359SOL    HW111751   2.602   8.647   0.091 -1.6245 -1.3461 -1.9469
 3359SOL    HW211752   2.585   8.686  -0.054  2.8709  0.4444 -2.1697
 3360SOL     OW11753   6.251   7.548   9.601 -0.4833  0.2398  0.2562
 3360SOL    HW111754   6.256   7.629   9.652 -2.2043 -0.1376  1.1391
 3360SOL    HW211755   6.295   7.483   9.656  1.9601  0.7523 -0.9886
 3361SOL     OW11756   0.422   7.325   2.553 -0.4498  0.1634 -0.0530
 3361SOL    HW111757   0.338   7.310   2.509 -0.0526 -1.2516 -0.3786
 3361SOL    HW211758   0.406   7.306   2.645 -0.8452  1.4258  0.1675
 3362SOL     OW11759   8.073   0.305   6.134 -0.0725  0.5605 -0.0339
 3362SOL    HW111760   8.052   0.217   6.164  0.5705 -0.2730 -1.8614
 3362SOL    HW211761   8.078   0.358   6.214  0.2364 -1.2000  1.1615
 3363SOL     OW11762   2.288   3.522   8.350  0.1014  0.2233  0.8660
 3363SOL    HW111763   2.239   3.529   8.432 -0.6532  0.0046  0.4483
 3363SOL    HW211764   2.356   3.589   8.357  0.9504 -0.7406  2.2648
 3364SOL     OW11765   5.312   5.595   8.471  0.4705  0.1084 -0.0682
 3364SOL    HW111766   5.292   5.558   8.557  0.3441  0.2413 -0.0384
 3364SOL    HW211767   5.266   5.680   8.471 -0.0377 -0.1600 -0.5011
 3365SOL     OW11768   1.053   3.004   8.440  0.0191  0.1876 -0.5107
 3365SOL    HW111769   0.967   2.999   8.397  0.4966 -3.2741 -1.3978
 3365SOL    HW211770   1.032   2.999   8.534 -0.8340 -1.9024 -0.7368
 3366SOL     OW11771   8.475   2.271   3.953 -0.5090 -0.4333 -0.2911
 3366SOL    HW111772   8.405   2.329   3.984  0.4846 -0.1329  1.5557
 3366SOL    HW211773   8.546   2.331   3.928  0.0107 -0.7797  0.3085
 3367SOL     OW11774   7.281   6.950   7.671  0.3987 -0.1852 -0.1879
 3367SOL    HW111775   7.345   6.993   7.728  0.1438 -1.0273  0.7733
 3367SOL    HW211776   7.329   6.876   7.634  0.5310  0.2973 -1.0124
 3368SOL     OW11777   6.431   8.731   0.178 -0.1930 -0.2829 -0.2658
 3368SOL    HW111778   6.361   8.704   0.238 -0.5590  1.1561 -0.0229
 3368SOL    HW211779   6.407   8.691   0.094  0.1869 -2.1040  0.4266
 3369SOL     OW11780   8.909   1.112   1.864 -0.0654  0.9405 -0.1460
 3369SOL    HW111781   8.898   1.164   1.784  1.4695  1.5730  0.0189
 3369SOL    HW211782   8.841   1.044   1.858  1.2012 -0.2658 -2.9862
 3370SOL     OW11783   4.420   2.650   0.940 -0.4728 -0.0034  0.4233
 3370SOL    HW111784   4.373   2.613   1.015 -0.7181  0.0702  0.3082
 3370SOL    HW211785   4.445   2.575   0.887 -0.3046 -0.0553  0.5753
 3371SOL     OW11786   5.090   0.384   1.014  0.0932  0.7360  0.3139
 3371SOL    HW111787   5.105   0.477   1.030 -0.4247  0.4645  2.6857
 3371SOL    HW211788   5.155   0.339   1.068 -0.1803 -0.3048 -0.1888
 3372SOL     OW11789   5.232   4.600   8.455  0.0750 -0.6057  0.3478
 3372SOL    HW111790   5.328   4.600   8.452  0.1187  1.8674 -0.4316
 3372SOL    HW211791   5.206   4.618   8.365 -1.1162 -0.6398  0.6767
 3373SOL     OW11792   7.898   2.788   7.719  0.0351 -0.7410  0.3637
 3373SOL    HW111793   7.966   2.843   7.681  1.9312 -2.5555  0.9852
 3373SOL    HW211794   7.861   2.740   7.645 -1.5040  1.1099 -0.1565
 3374SOL     OW11795   5.834   6.435   1.830  0.6804 -0.2524 -0.2404
 3374SOL    HW111796   5.782   6.514   1.818  1.0495 -0.1915 -1.4729
 3374SOL    HW211797   5.916   6.465   1.868  1.7557  0.3010 -2.8115
 3375SOL     OW11798   8.536   9.471   1.212  0.4572 -0.3903  0.0170
 3375SOL    HW111799   8.552   9.528   1.287  1.2659  1.3750 -1.4093
 3375SOL    HW211800   8.498   9.529   1.146 -0.9604 -2.0491 -0.7172
 3376SOL     OW11801   1.823   4.034   0.952  0.0300  0.0334 -0.5384
 3376SOL    HW111802   1.863   3.974   1.015 -0.0399  0.9938  0.4489
 3376SOL    HW211803   1.871   4.019   0.871 -0.5618 -1.9631 -0.5567
 3377SOL     OW11804   3.557   5.609   8.399 -0.1130 -0.2584  0.3765
 3377SOL    HW111805   3.584   5.582   8.312  0.6587  2.5432 -0.3497
 3377SOL    HW211806   3.461   5.606   8.396 -0.0903 -1.8931  0.0889
 3378SOL     OW11807   8.374   0.855   2.549  0.3770  0.3993  0.5031
 3378SOL    HW111808   8.294   0.844   2.600 -0.3060  0.0477 -0.5897
 3378SOL    HW211809   8.424   0.774   2.564 -0.0023  0.1256  0.3165
 3379SOL     OW11810   3.824   5.801   4.537 -0.4166 -0.4727 -0.3132
 3379SOL    HW111811   3.735   5.837   4.542 -0.5789 -0.9406  0.4935
 3379SOL    HW211812   3.858   5.810   4.627  0.6233  0.3560 -0.7670
 3380SOL     OW11813   2.150   2.920   2.888 -0.2872  0.1098  0.3307
 3380SOL    HW111814   2.169   2.999   2.838 -1.9981 -0.6637 -1.7033
 3380SOL    HW211815   2.181   2.940   2.976  1.8077  1.9945 -0.7224
 3381SOL     OW11816   4.589   5.456   9.227 -0.0304 -0.1325 -0.5012
 3381SOL    HW111817   4.610   5.443   9.319 -1.6367 -1.8083 -0.3246
 3381SOL    HW211818   4.622   5.543   9.207  0.8568  0.0385  1.4926
 3382SOL     OW11819   3.316   8.002   0.100  0.3917 -0.1780  0.2312
 3382SOL    HW111820   3.251   7.933   0.088 -0.0369 -0.2495  2.4856
 3382SOL    HW211821   3.274   8.065   0.158  2.3863 -0.3522  1.9948
 3383SOL     OW11822   9.443   9.064   3.593 -1.0539 -0.0362  0.1359
 3383SOL    HW111823   9.519   9.007   3.607 -1.5215 -0.9140 -0.7329
 3383SOL    HW211824   9.446   9.084   3.499 -2.3251 -0.7192 -0.0648
 3384SOL     OW11825   6.827   1.955   5.497  0.5315 -0.2204  0.4791
 3384SOL    HW111826   6.795   1.887   5.556  0.2256 -0.2891  0.2388
 3384SOL    HW211827   6.922   1.949   5.503  0.5828 -2.0943 -1.1056
 3385SOL     OW11828   5.376   4.578   5.408  0.1492 -0.1510 -0.1495
 3385SOL    HW111829   5.438   4.518   5.367 -0.4016 -1.5356  0.9393
 3385SOL    HW211830   5.427   4.623   5.476  0.2175 -0.4956  0.0294
 3386SOL     OW11831   1.297   8.051   1.618 -0.1271  0.2096  0.6888
 3386SOL    HW111832   1.353   7.974   1.612 -1.8159 -1.0742  0.3923
 3386SOL    HW211833   1.299   8.075   1.711  0.7586  0.0807  0.7068
 3387SOL     OW11834   0.226   0.380   5.523 -0.4485  0.2082 -0.1097
 3387SOL    HW111835   0.157   0.445   5.532 -0.0924  0.6956 -0.8249
 3387SOL    HW211836   0.204   0.332   5.443  0.4265  0.8489 -0.7489
 3388SOL     OW11837   6.180   7.441   5.767 -0.1429 -0.3312  0.2229
 3388SOL    HW111838   6.208   7.470   5.854 -1.3067 -0.0879  0.5243
 3388SOL    HW211839   6.156   7.349   5.779 -2.0002  0.1724  0.5784
 3389SOL     OW11840   2.557   9.282   2.649  0.0826 -0.0544  0.0416
 3389SOL    HW111841   2.589   9.350   2.708 -0.1127  1.0892 -1.1189
 3389SOL    HW211842   2.467   9.266   2.679  0.6506 -1.0092  1.3334
 3390SOL     OW11843   4.159   1.567   3.371 -0.0705 -0.6258 -0.4633
 3390SOL    HW111844   4.196   1.568   3.283 -0.0873 -0.3978 -0.4687
 3390SOL    HW211845   4.103   1.644   3.374  0.7424 -0.0449  0.0946
 3391SOL     OW11846   4.885   5.079   4.950  0.2295  0.2386  0.7662
 3391SOL    HW111847   4.860   5.099   5.040 -0.1245 -0.7609  0.8999
 3391SOL    HW211848   4.949   5.008   4.957 -5.0808 -5.4019  0.1536
 3392SOL     OW11849   7.966   0.027   4.041 -0.0567 -0.7180 -0.7293
 3392SOL    HW111850   7.904  -0.036   4.003 -0.6082 -0.9289  0.4846
 3392SOL    HW211851   8.046   0.016   3.989 -1.1715 -0.0441 -2.7096
 3393SOL     OW11852   4.249   8.264   4.192  0.2330 -0.2980 -0.3583
 3393SOL    HW111853   4.189   8.197   4.161  0.9747 -0.8014 -0.7486
 3393SOL    HW211854   4.301   8.287   4.114 -0.4418  1.2116 -0.3974
 3394SOL     OW11855   4.360   8.840   2.656  0.3665  0.1290  0.0247
 3394SOL    HW111856   4.321   8.905   2.715  0.2479 -0.3131  0.4451
 3394SOL    HW211857   4.409   8.781   2.715  1.8259  0.7740 -0.5076
 3395SOL     OW11858   5.246   8.601   2.632 -0.1254  0.2417 -0.3621
 3395SOL    HW111859   5.341   8.599   2.631 -0.0867  0.0404  0.9612
 3395SOL    HW211860   5.219   8.543   2.562  0.7015  1.5202 -1.7986
 3396SOL     OW11861   9.090   3.217   5.296 -0.4062  0.8330  0.3814
 3396SOL    HW111862   9.020   3.278   5.273 -1.5670  0.2172  2.0884
 3396SOL    HW211863   9.133   3.257   5.372  1.6937  1.6080 -1.1181
 3397SOL     OW11864   0.399   6.434   6.654 -0.9571  0.4428 -0.3949
 3397SOL    HW111865   0.471   6.446   6.592  0.4865 -3.7926  0.1518
 3397SOL    HW211866   0.439   6.444   6.740 -1.9785  1.8386 -0.0355
 3398SOL     OW11867   7.807   8.903   2.986  0.0818 -0.7126  0.1739
 3398SOL    HW111868   7.736   8.967   2.997 -0.9597 -1.7205 -0.4000
 3398SOL    HW211869   7.823   8.869   3.074  0.6675  0.3436  0.4893
 3399SOL     OW11870   2.318   7.041   4.272 -0.1736  0.0861  0.2448
 3399SOL    HW111871   2.390   7.045   4.210  1.6168  1.7905  2.2944
 3399SOL    HW211872   2.340   6.968   4.330 -0.0766  0.6088  0.8751
 3400SOL     OW11873   0.479   0.231   8.642 -0.4500 -0.1785 -0.0194
 3400SOL    HW111874   0.516   0.319   8.648  0.1043 -0.3496 -0.8023
 3400SOL    HW211875   0.477   0.199   8.732 -0.1546  0.4352  0.2051
 3401SOL     OW11876   7.101   8.270   4.023 -0.6712  0.6464  0.9368
 3401SOL    HW111877   7.177   8.326   4.008 -0.9262  1.0215  0.9975
 3401SOL    HW211878   7.135   8.194   4.069  0.0718 -0.3898 -1.1993
 3402SOL     OW11879   4.341   3.482   6.921 -0.2163  0.0416  0.4336
 3402SOL    HW111880   4.389   3.400   6.907 -0.2873  0.2720 -1.5885
 3402SOL    HW211881   4.261   3.471   6.868 -1.8295  0.1679  2.7185
 3403SOL     OW11882   9.619   6.301   6.705 -0.3524 -0.0769  0.4825
 3403SOL    HW111883   9.709   6.275   6.725 -0.3919 -1.8836 -1.3619
 3403SOL    HW211884   9.627   6.392   6.675  0.4869  0.5654  2.4936
 3404SOL     OW11885   0.290   7.202   8.134 -0.5539  0.0070  0.1334
 3404SOL    HW111886   0.371   7.208   8.184 -0.3687  1.0118 -0.2599
 3404SOL    HW211887   0.221   7.206   8.200 -0.3009  0.2098  0.3872
 3405SOL     OW11888   5.109   3.939   5.725 -0.0230  0.1429 -0.0950
 3405SOL    HW111889   5.031   3.896   5.761  0.3313 -1.3048 -0.9774
 3405SOL    HW211890   5.083   4.031   5.716 -1.3779 -0.1705  0.3264
 3406SOL     OW11891   1.367   5.489   6.097 -0.0955  0.4048  0.1245
 3406SOL    HW111892   1.406   5.547   6.163 -3.0259  1.6471  0.9092
 3406SOL    HW211893   1.313   5.428   6.148 -0.4053 -0.2799 -0.9880
 3407SOL     OW11894   3.694   1.500   2.364 -0.2724 -0.1672 -0.2186
 3407SOL    HW111895   3.762   1.568   2.360 -0.3383 -0.1278 -0.8527
 3407SOL    HW211896   3.679   1.477   2.272 -0.9556 -0.3337 -0.0692
 3408SOL     OW11897   4.750   2.896   8.833 -0.2586  0.1070 -0.0079
 3408SOL    HW111898   4.699   2.818   8.815 -2.6201  1.4547  0.4238
 3408SOL    HW211899   4.760   2.939   8.748 -0.5547  0.2247  0.0139
 3409SOL     OW11900   9.271   3.390   3.060 -0.3102 -0.1386 -0.1770
 3409SOL    HW111901   9.364   3.412   3.050  0.2303 -1.9849  0.3481
 3409SOL    HW211902   9.263   3.364   3.151 -0.8692 -1.9441 -0.7019
 3410SOL     OW11903   6.800   6.543   3.488  0.2237  0.0748  0.2158
 3410SOL    HW111904   6.744   6.465   3.495  1.1023 -0.6987 -1.0694
 3410SOL    HW211905   6.884   6.515   3.524  0.1953  0.8310  0.8942
 3411SOL     OW11906   6.789   4.256   2.802 -0.1159  0.5924 -0.1087
 3411SOL    HW111907   6.729   4.182   2.804 -0.9610  1.2507 -0.1855
 3411SOL    HW211908   6.738   4.327   2.764  0.6368  1.2423  0.0619
 3412SOL     OW11909   7.398   7.656   0.789 -0.0559 -0.1032 -0.4565
 3412SOL    HW111910   7.412   7.564   0.808 -0.2940 -0.4481 -1.8277
 3412SOL    HW211911   7.469   7.680   0.729 -1.4025 -0.1087 -2.1516
 3413SOL     OW11912   4.119   9.411   3.978  0.4719  0.1152  0.3504
 3413SOL    HW111913   4.102   9.382   4.068 -0.7583 -0.0815  0.0676
 3413SOL    HW211914   4.161   9.336   3.937  0.1259 -0.1566  0.4865
 3414SOL     OW11915   2.289   1.463   2.183 -0.0127 -0.2204 -0.1078
 3414SOL    HW111916   2.198   1.437   2.164 -0.2081  0.1057  0.3691
 3414SOL    HW211917   2.308   1.529   2.116 -0.3705  0.2215  0.2174
 3415SOL     OW11918   0.729   7.993   1.107 -0.1670 -0.3839  0.0915
 3415SOL    HW111919   0.719   8.039   1.190  1.3028 -0.4348  0.3247
 3415SOL    HW211920   0.653   7.935   1.102 -1.4634  1.2272  0.3207
 3416SOL     OW11921   3.459   9.317   5.674  0.3159 -0.2329  0.1388
 3416SOL    HW111922   3.395   9.331   5.744 -0.2747  0.2373 -0.4847
 3416SOL    HW211923   3.508   9.239   5.702 -1.2930 -1.3220  0.0855
 3417SOL     OW11924   5.129   3.148   0.585  0.2134 -0.0137  0.3556
 3417SOL    HW111925   5.088   3.131   0.669 -0.4349  2.0211  0.4973
 3417SOL    HW211926   5.056   3.171   0.527  0.9145  1.6673  0.0869
 3418SOL     OW11927   4.559   9.028   6.826  0.2629  0.7808 -0.4584
 3418SOL    HW111928   4.509   9.094   6.874 -1.2393  2.2052 -3.6351
 3418SOL    HW211929   4.642   9.072   6.805  2.5887 -1.0995  3.6074
 3419SOL     OW11930   7.139   9.597   8.250  0.2460  0.6076 -0.0259
 3419SOL    HW111931   7.222   9.596   8.203  2.0035 -0.2179  2.8387
 3419SOL    HW211932   7.111   9.505   8.251  0.9580  0.3774  1.6112
 3420SOL     OW11933   2.998   4.941   7.155  0.2014  0.2791  0.6225
 3420SOL    HW111934   3.078   4.977   7.116 -1.2561  1.5322 -1.4257
 3420SOL    HW211935   2.998   4.849   7.128  0.2962  0.6127 -0.6023
 3421SOL     OW11936   7.171   6.780   0.369 -0.7052  0.0232 -0.5709
 3421SOL    HW111937   7.169   6.827   0.452  0.0011  0.6517 -0.9087
 3421SOL    HW211938   7.183   6.688   0.394  2.5776  0.4970 -0.0329
 3422SOL     OW11939   0.901   7.973   7.424 -0.1899 -0.1947  0.2366
 3422SOL    HW111940   0.984   8.010   7.396 -0.1659 -1.1674 -1.0808
 3422SOL    HW211941   0.922   7.882   7.448 -0.7853 -0.3143  0.3329
 3423SOL     OW11942   4.912   6.839   7.954  0.7042 -0.0151  0.1063
 3423SOL    HW111943   5.001   6.863   7.929  0.7407  0.5523  0.7490
 3423SOL    HW211944   4.913   6.743   7.959  1.3358  0.0011  0.3224
 3424SOL     OW11945   7.467   1.338   3.343  0.1894  0.0804 -0.0563
 3424SOL    HW111946   7.559   1.359   3.362  0.5036 -0.5008 -0.8454
 3424SOL    HW211947   7.472   1.270   3.275 -0.8058 -0.7044  0.6223
 3425SOL     OW11948   5.246   4.359   9.641  0.6138  0.1132  0.0894
 3425SOL    HW111949   5.243   4.373   9.547  0.6520 -0.5380 -0.0180
 3425SOL    HW211950   5.336   4.332   9.658  0.2805 -1.0884  0.0952
 3426SOL     OW11951   1.987   4.945   4.155  0.1406  0.2601 -0.4728
 3426SOL    HW111952   2.001   4.887   4.081 -0.5809 -0.8175  0.2067
 3426SOL    HW211953   2.066   4.999   4.159 -0.2012  1.0115 -2.5811
 3427SOL     OW11954   2.122   6.776   7.355  0.2280  0.3515 -0.0324
 3427SOL    HW111955   2.036   6.734   7.350 -0.7219  1.9664  1.5403
 3427SOL    HW211956   2.167   6.731   7.427  0.4775 -0.0740 -0.4467
 3428SOL     OW11957   4.231   1.861   4.113  1.0914 -0.0156 -0.1086
 3428SOL    HW111958   4.227   1.884   4.206 -2.0174  1.5472 -0.5068
 3428SOL    HW211959   4.178   1.781   4.106  0.0485  0.7221 -0.7306
 3429SOL     OW11960   0.451   4.146   3.375 -0.3837  0.3067 -0.3610
 3429SOL    HW111961   0.364   4.174   3.404 -2.4633 -2.6843 -3.0404
 3429SOL    HW211962   0.435   4.096   3.295  3.5893 -2.3313  0.1948
 3430SOL     OW11963   3.889   9.323   2.293 -0.0974  0.1185 -0.0038
 3430SOL    HW111964   3.924   9.407   2.324 -1.2640  0.6829 -0.1779
 3430SOL    HW211965   3.874   9.337   2.199  2.2422 -1.1803 -0.6412
 3431SOL     OW11966   8.905   7.750   6.401 -0.6982  0.0565  0.2466
 3431SOL    HW111967   8.999   7.741   6.384 -0.8140 -0.5737 -0.1191
 3431SOL    HW211968   8.891   7.703   6.483 -0.5880  0.7269  0.6532
 3432SOL     OW11969   5.042   0.232   6.442  0.4082 -0.0458  0.5788
 3432SOL    HW111970   5.041   0.168   6.513 -1.4916 -0.1329  0.5369
 3432SOL    HW211971   5.025   0.316   6.485  1.7421  0.2834  0.4962
 3433SOL     OW11972   6.954   4.768   3.955 -0.2875  0.3691  0.5645
 3433SOL    HW111973   6.904   4.849   3.951 -0.1145  0.5095  1.1149
 3433SOL    HW211974   6.889   4.701   3.979 -1.2742 -0.4301 -3.5460
 3434SOL     OW11975   0.602   8.826   1.446 -0.3630 -0.1018 -0.0961
 3434SOL    HW111976   0.527   8.885   1.452  0.4173  1.0729 -1.2072
 3434SOL    HW211977   0.564   8.739   1.438 -1.5791  0.3588  0.3842
 3435SOL     OW11978   7.037   6.788   0.658  0.2142 -0.3166 -0.0567
 3435SOL    HW111979   6.968   6.788   0.592 -1.5714 -2.2957  1.6404
 3435SOL    HW211980   7.018   6.864   0.713 -0.1703 -0.4103 -0.0553
 3436SOL     OW11981   2.912   7.584   8.120 -0.2037  0.2713 -0.4648
 3436SOL    HW111982   2.930   7.619   8.207  1.6538  0.9945 -1.0804
 3436SOL    HW211983   2.854   7.649   8.079 -0.5861  0.2335  0.0110
 3437SOL     OW11984   9.258   8.251   5.479 -0.0503 -0.5870  0.3819
 3437SOL    HW111985   9.349   8.278   5.492  0.1226 -0.5423 -0.8048
 3437SOL    HW211986   9.212   8.331   5.454 -0.3330 -0.6827  0.5912
 3438SOL     OW11987   1.618   0.287   3.427 -0.2078  0.4036  0.1687
 3438SOL    HW111988   1.601   0.369   3.381 -1.4520 -0.2826 -0.6391
 3438SOL    HW211989   1.666   0.314   3.505 -0.6279  1.9047 -0.0490
 3439SOL     OW11990   7.917   7.990   1.653  0.6906  0.4526 -0.0042
 3439SOL    HW111991   8.004   7.951   1.651  0.1661 -0.9568  1.7420
 3439SOL    HW211992   7.881   7.964   1.738 -0.8084  2.4174  0.0209
 3440SOL     OW11993   9.365   2.502   0.370 -0.3430  0.3620  0.2280
 3440SOL    HW111994   9.317   2.462   0.443 -0.9833  0.5342 -0.0967
 3440SOL    HW211995   9.298   2.547   0.319 -0.0358 -0.4730 -0.9490
 3441SOL     OW11996   6.748   3.492   0.687  0.1743  0.5230 -0.4728
 3441SOL    HW111997   6.741   3.468   0.595 -2.2976 -1.2378  0.0856
 3441SOL    HW211998   6.815   3.434   0.722  1.3038  1.3636 -1.1298
 3442SOL     OW11999   4.206   3.415   6.647 -0.0954 -0.1099  0.4034
 3442SOL    HW112000   4.191   3.320   6.648  0.9795 -0.2991 -0.4147
 3442SOL    HW212001   4.280   3.427   6.589  0.4438  1.1540  1.3177
 3443SOL     OW12002   3.081   0.548   9.368  0.0143  0.2508  0.2954
 3443SOL    HW112003   3.089   0.633   9.411 -1.3682  0.9643 -0.7739
 3443SOL    HW212004   3.171   0.517   9.360  0.5828  1.8150  0.3086
 3444SOL     OW12005   1.072   5.856   5.063 -0.5253 -0.3000  0.5343
 3444SOL    HW112006   1.111   5.841   5.149 -1.4485  2.7202  1.5952
 3444SOL    HW212007   1.125   5.926   5.024 -1.5599  0.0307 -0.3249
 3445SOL     OW12008   2.287   2.998   3.404 -0.0149  0.0157 -0.1091
 3445SOL    HW112009   2.255   2.932   3.465 -0.0293  0.6171  0.5503
 3445SOL    HW212010   2.326   3.065   3.460  0.5610  0.2689 -0.7957
 3446SOL     OW12011   8.191   4.809   3.837  0.1125 -0.1591 -0.2100
 3446SOL    HW112012   8.245   4.841   3.765 -0.6734 -0.0735 -0.7722
 3446SOL    HW212013   8.253   4.788   3.907  0.8048  0.7046 -0.5554
 3447SOL     OW12014   6.552   6.467   5.760  0.1007 -0.4925 -0.3254
 3447SOL    HW112015   6.529   6.560   5.761 -0.6829 -0.6810 -0.4110
 3447SOL    HW212016   6.582   6.450   5.671 -2.2603 -0.8980 -1.1080
 3448SOL     OW12017   7.833   7.026   3.612 -0.2740 -0.0128 -0.7769
 3448SOL    HW112018   7.826   6.944   3.660 -1.2477  0.3404 -0.2904
 3448SOL    HW212019   7.909   7.071   3.650 -1.6076  0.7057  1.1482
 3449SOL     OW12020   1.456   5.283   1.082  0.0827 -0.4092 -0.4398
 3449SOL    HW112021   1.528   5.289   1.146  1.1172 -1.9883 -1.3779
 3449SOL    HW212022   1.402   5.211   1.115 -0.0427 -0.4398 -0.7177
 3450SOL     OW12023   4.054   4.836   1.007 -0.1281  0.2309  0.2070
 3450SOL    HW112024   4.068   4.921   0.967 -1.7334  0.9441  1.0780
 3450SOL    HW212025   4.086   4.846   1.097  0.2934 -0.3039  0.1242
 3451SOL     OW12026   3.737   3.773   1.697 -0.3649  0.1308  0.0997
 3451SOL    HW112027   3.829   3.749   1.712 -0.6638 -1.1519 -0.0819
 3451SOL    HW212028   3.737   3.811   1.609 -0.0569 -0.1246 -0.0138
 3452SOL     OW12029   5.546   1.871   2.944 -0.3166  0.2321  0.4700
 3452SOL    HW112030   5.510   1.819   3.017 -0.9791  1.1325  0.8097
 3452SOL    HW212031   5.584   1.948   2.986  1.1814 -0.2446  0.0204
 3453SOL     OW12032   3.747   8.385   7.524  0.1148  0.1102 -0.2049
 3453SOL    HW112033   3.831   8.403   7.566 -1.0056 -0.1597  2.3456
 3453SOL    HW212034   3.695   8.464   7.539 -0.6396 -0.3746 -0.2072
 3454SOL     OW12035   6.773   7.578   8.919  0.4830 -0.3356  0.0807
 3454SOL    HW112036   6.707   7.520   8.881 -0.0773  0.1406  0.3052
 3454SOL    HW212037   6.748   7.586   9.011  1.5415 -1.0812  0.4502
 3455SOL     OW12038   4.934   6.799   2.308  0.1973  0.1222 -0.0366
 3455SOL    HW112039   4.880   6.873   2.335 -0.1195 -0.2487  0.3781
 3455SOL    HW212040   4.970   6.765   2.390 -0.5867 -0.8741 -0.0805
 3456SOL     OW12041   6.380   7.976   4.880 -0.4620 -0.3981  0.4294
 3456SOL    HW112042   6.331   8.052   4.849  1.5482  1.1027  0.6517
 3456SOL    HW212043   6.420   8.006   4.962  0.1191 -1.8159  0.6888
 3457SOL     OW12044   4.551   0.474   1.939 -0.0753  0.0844  0.3242
 3457SOL    HW112045   4.632   0.519   1.964 -0.0352  0.2034 -0.0057
 3457SOL    HW212046   4.559   0.462   1.844 -1.0253  1.3107  0.0508
 3458SOL     OW12047   7.833   4.847   1.329 -0.1259  0.4002 -0.5179
 3458SOL    HW112048   7.754   4.901   1.334 -0.0972  0.5464 -1.5267
 3458SOL    HW212049   7.903   4.910   1.312  0.0082  0.1234 -0.9864
 3459SOL     OW12050   2.720   0.980   9.618  0.4931 -0.4838 -0.0760
 3459SOL    HW112051   2.748   0.979   9.710 -1.0225 -0.7858  0.4142
 3459SOL    HW212052   2.771   1.050   9.578  1.1345 -0.3091  1.0192
 3460SOL     OW12053   1.117   0.965   6.741  0.3239 -0.1301  0.0033
 3460SOL    HW112054   1.138   1.057   6.728  0.5630  0.0501  1.4882
 3460SOL    HW212055   1.031   0.966   6.784  0.7386 -0.5467  0.8580
 3461SOL     OW12056   2.061   1.832   4.140  0.7050 -0.3696 -0.2216
 3461SOL    HW112057   2.141   1.789   4.171  1.6769  1.5942  0.1317
 3461SOL    HW212058   1.990   1.780   4.178  1.8220 -1.1006  0.9572
 3462SOL     OW12059   6.375   7.618   5.932  0.1941 -0.0448  0.4358
 3462SOL    HW112060   6.378   7.532   5.975  0.8686  0.5290  1.5584
 3462SOL    HW212061   6.462   7.655   5.946 -0.4376  1.3037  0.9577
 3463SOL     OW12062   6.152   2.696   5.695 -0.0914  0.3261  0.3045
 3463SOL    HW112063   6.120   2.717   5.608  0.2209  0.9006  0.3283
 3463SOL    HW212064   6.238   2.738   5.701 -0.1639  0.4022  0.9346
 3464SOL     OW12065   4.586   7.609   9.135 -0.3964  0.0508 -0.1457
 3464SOL    HW112066   4.618   7.626   9.224 -2.3289 -0.7713  0.7440
 3464SOL    HW212067   4.609   7.688   9.086  3.2074 -0.5522  0.2950
 3465SOL     OW12068   8.947   7.670   4.661 -0.1750 -0.4470 -0.5006
 3465SOL    HW112069   8.861   7.672   4.703 -0.1632 -0.2918 -0.4843
 3465SOL    HW212070   9.006   7.637   4.729  0.1827  1.5553  0.2272
 3466SOL     OW12071   7.142   3.483   7.609  0.0738 -0.2092  0.0064
 3466SOL    HW112072   7.170   3.419   7.675  0.8888 -0.7394 -0.8250
 3466SOL    HW212073   7.072   3.532   7.652 -0.0652 -1.1620  0.9305
 3467SOL     OW12074   5.615   0.824   7.795 -0.1290  0.1654  0.0455
 3467SOL    HW112075   5.699   0.820   7.750 -0.0329  2.3511 -0.0706
 3467SOL    HW212076   5.592   0.732   7.811  1.5087 -0.5316 -1.3027
 3468SOL     OW12077   9.121   0.057   3.168  0.2695 -0.3746 -0.3295
 3468SOL    HW112078   9.082   0.011   3.094 -0.7385 -0.1581  0.0523
 3468SOL    HW212079   9.127   0.148   3.139 -0.0565 -0.3035 -0.1822
 3469SOL     OW12080   5.653   2.709   0.261  0.0082  0.2533  0.9998
 3469SOL    HW112081   5.618   2.736   0.346 -1.9380  0.8453  0.0781
 3469SOL    HW212082   5.582   2.727   0.199  1.4045 -0.0552 -0.7811
 3470SOL     OW12083   6.397   3.837   5.368  0.1359 -0.1099  0.0874
 3470SOL    HW112084   6.418   3.770   5.303  0.5633 -0.2237  0.3405
 3470SOL    HW212085   6.359   3.789   5.441  1.6169 -0.2445  0.8034
 3471SOL     OW12086   4.859   3.286   0.038 -0.1203 -0.4761 -0.2321
 3471SOL    HW112087   4.901   3.369   0.015  1.1509 -0.7116  1.0767
 3471SOL    HW212088   4.771   3.311   0.068  0.3784  0.4634  0.5155
 3472SOL     OW12089   5.311   6.585   6.673 -1.1367  0.0146  0.0066
 3472SOL    HW112090   5.330   6.654   6.611  1.8389  0.6409  1.4150
 3472SOL    HW212091   5.230   6.612   6.716 -0.7531  1.9597 -0.4059
 3473SOL     OW12092   5.461   8.181   8.339  0.6559 -0.1683 -0.3317
 3473SOL    HW112093   5.393   8.115   8.351 -0.8358  1.3053 -0.2980
 3473SOL    HW212094   5.494   8.198   8.427  0.5105 -0.3194 -0.2479
 3474SOL     OW12095   0.298   5.201   3.220  0.5830  0.2073  0.3404
 3474SOL    HW112096   0.255   5.262   3.280  1.4159  0.3564  0.8017
 3474SOL    HW212097   0.367   5.159   3.273 -0.1547 -1.3598  0.1326
 3475SOL     OW12098   6.276   4.912   2.862 -0.5137  0.2200  0.2141
 3475SOL    HW112099   6.188   4.910   2.826  0.0524  0.6713 -1.2686
 3475SOL    HW212100   6.309   4.823   2.850  0.3139  0.7925 -2.1406
 3476SOL     OW12101   0.698   4.750   7.812  0.3521  0.0796  0.9079
 3476SOL    HW112102   0.759   4.678   7.794  1.7439  1.8123 -2.0968
 3476SOL    HW212103   0.632   4.744   7.744 -0.5305  0.6145  1.6980
 3477SOL     OW12104   3.231   2.451   1.040 -0.4678 -0.0160  0.2359
 3477SOL    HW112105   3.293   2.457   1.113 -0.4186  0.5117  0.1561
 3477SOL    HW212106   3.235   2.359   1.012 -0.4017 -0.1946  0.8212
 3478SOL     OW12107   4.076   0.118   4.073  0.0557  0.5480  0.2546
 3478SOL    HW112108   3.983   0.131   4.093  0.4685  2.3188  1.3209
 3478SOL    HW212109   4.109   0.065   4.145 -0.0575  0.2266  0.0692
 3479SOL     OW12110   2.587   0.198   1.643 -0.2224  0.2156  0.0162
 3479SOL    HW112111   2.497   0.231   1.646 -0.4834 -0.4373 -0.2774
 3479SOL    HW212112   2.601   0.175   1.551 -0.2529 -0.9897  0.2907
 3480SOL     OW12113   2.229   1.180   3.077 -0.2147 -0.1485  0.0465
 3480SOL    HW112114   2.200   1.170   2.986 -0.2211  1.7143 -0.2071
 3480SOL    HW212115   2.324   1.168   3.073  0.3840  3.4861 -0.9798
 3481SOL     OW12116   4.361   3.957   3.700 -0.5817  0.3316  0.0027
 3481SOL    HW112117   4.354   3.951   3.604  0.1854  1.3651 -0.1407
 3481SOL    HW212118   4.455   3.968   3.716 -0.4604 -1.7250  1.0233
 3482SOL     OW12119   9.573   8.247   8.708  0.0053 -0.5358  0.4893
 3482SOL    HW112120   9.653   8.253   8.760  0.5272  0.4142 -0.3962
 3482SOL    HW212121   9.569   8.330   8.661 -0.3050 -1.4809 -1.2109
 3483SOL     OW12122   0.170   3.665   7.851 -0.2668 -0.5048  0.0876
 3483SOL    HW112123   0.132   3.706   7.929  0.4746 -0.7428  0.5773
 3483SOL    HW212124   0.232   3.730   7.818  0.0573 -0.7568  0.1979
 3484SOL     OW12125   4.175   8.857   3.492 -0.4582 -0.1986 -0.2712
 3484SOL    HW112126   4.242   8.926   3.490 -0.2027 -0.4482 -1.9747
 3484SOL    HW212127   4.092   8.905   3.490 -0.2835  0.0948 -1.1214
 3485SOL     OW12128   5.962   7.186   7.902 -0.2294  0.2312  0.1308
 3485SOL    HW112129   5.874   7.181   7.938  0.0266  1.2359  0.9394
 3485SOL    HW212130   5.955   7.147   7.815 -1.1287 -1.1157  0.7718
 3486SOL     OW12131   2.397   4.035   7.882 -1.0468  0.5288 -0.2264
 3486SOL    HW112132   2.412   4.116   7.931 -0.8348  0.0974  0.4260
 3486SOL    HW212133   2.303   4.019   7.889 -0.8084 -0.3350  1.3284
 3487SOL     OW12134   8.731   3.533   6.850 -0.0718  0.3039 -0.5307
 3487SOL    HW112135   8.750   3.598   6.917  0.2168 -0.2603 -0.0572
 3487SOL    HW212136   8.666   3.475   6.890  0.7857 -0.5766 -0.3909
 3488SOL     OW12137   7.376   3.329   0.423 -0.6961 -0.3334  0.0957
 3488SOL    HW112138   7.428   3.378   0.487 -1.3294 -0.2541  0.5602
 3488SOL    HW212139   7.370   3.387   0.347 -1.6089  0.4113  0.7140
 3489SOL     OW12140   0.654   3.503   4.632 -0.1830 -0.0490 -0.7041
 3489SOL    HW112141   0.636   3.596   4.618 -0.1966 -0.1374 -1.2963
 3489SOL    HW212142   0.572   3.458   4.610  0.1065 -0.2741 -1.3728
 3490SOL     OW12143   3.914   2.371   9.674  0.2252  0.2462 -0.5432
 3490SOL    HW112144   3.972   2.294   9.679 -0.7593 -0.4689  0.5802
 3490SOL    HW212145   3.911   2.392   9.581  2.4607  0.4701 -0.6341
 3491SOL     OW12146   1.192   4.768   3.545  0.6550  0.0634 -0.1634
 3491SOL    HW112147   1.140   4.722   3.611 -0.1840  1.6795  0.3522
 3491SOL    HW212148   1.276   4.783   3.588  0.4209  0.3189  0.2102
 3492SOL     OW12149   8.063   6.524   7.541 -0.2790 -0.1284 -0.5240
 3492SOL    HW112150   8.016   6.458   7.591 -0.8687 -2.0090 -3.3243
 3492SOL    HW212151   8.151   6.526   7.580 -1.0052 -0.6904  1.2183
 3493SOL     OW12152   1.217   6.448   2.355 -0.1981  0.3016 -0.1181
 3493SOL    HW112153   1.184   6.373   2.306 -0.3534  1.1147 -1.2821
 3493SOL    HW212154   1.311   6.434   2.360 -0.1781  0.2228 -0.6740
 3494SOL     OW12155   2.550   8.843   5.281  0.8917 -0.0710 -0.1226
 3494SOL    HW112156   2.462   8.805   5.270  0.6553  0.0296  1.2711
 3494SOL    HW212157   2.608   8.767   5.290  1.4289 -0.2655 -3.6658
 3495SOL     OW12158   0.425   7.270   0.072 -0.0713  0.0870  0.7247
 3495SOL    HW112159   0.452   7.211   0.142 -0.2163  0.8681  1.4531
 3495SOL    HW212160   0.507   7.293   0.027  0.3821  1.4936  2.1748
 3496SOL     OW12161   4.814   0.412   2.474 -0.2975  0.4851  0.5864
 3496SOL    HW112162   4.809   0.317   2.488  1.4909  0.4955  1.6070
 3496SOL    HW212163   4.884   0.424   2.411 -1.8222  1.0665 -1.0821
 3497SOL     OW12164   7.664   5.897   4.185 -0.1004 -0.2307  0.3316
 3497SOL    HW112165   7.702   5.931   4.105 -1.8515 -2.2489 -1.4704
 3497SOL    HW212166   7.733   5.841   4.222  0.3411 -0.1361 -0.3318
 3498SOL     OW12167   1.245   4.107   6.568 -0.4190 -0.2347  0.8126
 3498SOL    HW112168   1.235   4.138   6.478  0.3422 -0.3277  0.6909
 3498SOL    HW212169   1.170   4.145   6.614 -0.3561  0.5036  0.3277
 3499SOL     OW12170   2.805   4.273   1.611 -0.3098 -0.7855  0.5706
 3499SOL    HW112171   2.720   4.230   1.614 -0.6764 -0.1553 -0.2406
 3499SOL    HW212172   2.864   4.205   1.577 -0.8465 -0.7281 -0.5305
 3500SOL     OW12173   2.698   3.414   1.338 -0.2982  0.3430  0.0708
 3500SOL    HW112174   2.667   3.324   1.348  0.0720  0.3842  2.0757
 3500SOL    HW212175   2.619   3.466   1.324 -0.5910 -0.1803 -0.2371
 3501SOL     OW12176   9.094   7.641   6.766  0.1935 -0.2030 -0.5519
 3501SOL    HW112177   9.069   7.567   6.821  3.7072 -0.4526  0.9585
 3501SOL    HW212178   9.028   7.707   6.784 -1.0539 -1.7190  0.8035
 3502SOL     OW12179   7.600   6.760   7.861 -0.5743 -0.4203  0.3033
 3502SOL    HW112180   7.521   6.794   7.903  0.9617  2.3814  1.1806
 3502SOL    HW212181   7.646   6.838   7.830  2.9506 -1.7075  1.8005
 3503SOL     OW12182   8.159   0.107   0.839  0.0946  0.1076  0.2026
 3503SOL    HW112183   8.210   0.178   0.878 -1.2299  0.4642  1.3581
 3503SOL    HW212184   8.220   0.032   0.838  1.7615  1.3915 -1.7529
 3504SOL     OW12185   8.797   1.251   1.623  0.8747  0.4950 -0.4768
 3504SOL    HW112186   8.722   1.299   1.657  0.2888  0.0050 -1.0385
 3504SOL    HW212187   8.776   1.237   1.530  1.5111  0.0586 -0.5634
 3505SOL     OW12188   0.573   7.842   9.575  0.1606 -0.2139  0.5731
 3505SOL    HW112189   0.579   7.857   9.481 -0.2053 -2.6349  0.1064
 3505SOL    HW212190   0.646   7.783   9.595 -1.0829 -1.5659  1.3288
 3506SOL     OW12191   0.487   7.758   5.548 -0.4843 -0.0324 -0.2074
 3506SOL    HW112192   0.463   7.743   5.640  1.5335  0.8173  0.5145
 3506SOL    HW212193   0.535   7.680   5.523 -1.7702 -0.6491 -0.8682
 3507SOL     OW12194   1.952   9.563   4.377 -0.0728  0.1416  0.0427
 3507SOL    HW112195   2.009   9.494   4.343 -1.5775 -0.9072 -0.4688
 3507SOL    HW212196   1.939   9.541   4.469 -1.8915 -1.3004 -0.4942
 3508SOL     OW12197   7.105   4.258   7.021  0.6099 -0.2414  0.3834
 3508SOL    HW112198   7.186   4.213   7.046  1.0721  0.5852  0.4085
 3508SOL    HW212199   7.082   4.220   6.936 -0.3772 -2.2922  1.4939
 3509SOL     OW12200   0.193   8.019   0.476  0.7418 -0.1943 -0.4307
 3509SOL    HW112201   0.122   7.967   0.439  1.3946 -1.6355  0.2629
 3509SOL    HW212202   0.213   7.977   0.559  0.8425  1.6076  0.5120
 3510SOL     OW12203   8.887   5.140   2.015  0.0427  0.2803  0.3117
 3510SOL    HW112204   8.916   5.091   2.092 -0.5280 -0.6274 -0.0360
 3510SOL    HW212205   8.800   5.104   1.994  0.1833  0.5116 -0.7492
 3511SOL     OW12206   4.646   8.111   7.111  0.3164 -0.6530  0.1697
 3511SOL    HW112207   4.573   8.052   7.131 -0.6037  0.6819  0.8599
 3511SOL    HW212208   4.653   8.107   7.015  0.3174 -1.9112  0.2032
 3512SOL     OW12209   3.948   3.757   9.076  0.3902 -0.1084 -0.1260
 3512SOL    HW112210   3.910   3.795   8.997 -0.2131 -1.8234 -0.7249
 3512SOL    HW212211   3.991   3.677   9.046  1.8000  0.1804  1.0201
 3513SOL     OW12212   3.055   2.552   5.088 -0.0812  0.0603 -0.4151
 3513SOL    HW112213   3.151   2.552   5.085 -0.0961  0.6828 -1.4793
 3513SOL    HW212214   3.030   2.630   5.039 -1.1487 -0.5169 -0.8086
 3514SOL     OW12215   5.176   7.947   2.956  0.0710  0.1081 -0.5831
 3514SOL    HW112216   5.159   8.026   2.904  1.1225  0.5910 -0.2213
 3514SOL    HW212217   5.182   7.877   2.891 -0.5795  0.3664 -0.9351
 3515SOL     OW12218   0.016   5.392   0.978  0.1060  0.1352  0.1931
 3515SOL    HW112219   0.097   5.411   0.930 -0.0532 -1.8887 -0.9838
 3515SOL    HW212220  -0.053   5.436   0.928  0.3070  0.6647  0.3784
 3516SOL     OW12221   4.504   7.902   3.027  0.1166 -0.0074  0.4074
 3516SOL    HW112222   4.493   7.991   2.995  0.5269  0.3576  1.2586
 3516SOL    HW212223   4.597   7.882   3.014 -0.2249 -0.7944 -0.9777
 3517SOL     OW12224   6.334   0.098   3.301  0.3933 -0.4697 -0.0711
 3517SOL    HW112225   6.383   0.028   3.345 -0.5711 -1.2327 -0.1822
 3517SOL    HW212226   6.248   0.061   3.286 -0.4332  1.0641  0.6489
 3518SOL     OW12227   8.718   0.684   3.625  0.3162 -0.1736 -0.5524
 3518SOL    HW112228   8.707   0.591   3.645  2.1605 -0.2256  0.5107
 3518SOL    HW212229   8.643   0.727   3.665  1.6177 -0.7842  2.9556
 3519SOL     OW12230   0.335   2.773   7.785  0.0500  0.0337 -0.1672
 3519SOL    HW112231   0.428   2.776   7.763 -0.1762 -0.5381 -1.2649
 3519SOL    HW212232   0.290   2.779   7.701 -0.8739 -1.7790  0.1497
 3520SOL     OW12233   0.109   8.139   8.053 -0.5819 -0.1915 -0.7663
 3520SOL    HW112234   0.051   8.114   8.125 -1.4007 -0.7602 -1.5993
 3520SOL    HW212235   0.078   8.088   7.978 -1.5218  2.3804 -2.2553
 3521SOL     OW12236   7.039   7.876   8.356  0.4840  0.8228  0.4961
 3521SOL    HW112237   7.033   7.885   8.451  2.4890  1.6125  0.5976
 3521SOL    HW212238   7.124   7.834   8.341  0.2555  0.8272 -0.9678
 3522SOL     OW12239   3.952   9.420   3.230 -0.6580 -0.3486 -0.6111
 3522SOL    HW112240   3.944   9.515   3.231 -1.3702 -0.4014 -0.2563
 3522SOL    HW212241   3.922   9.395   3.142  1.4694 -0.1223 -1.4555
 3523SOL     OW12242   1.962   7.826   3.652 -0.0528  0.4244  0.2144
 3523SOL    HW112243   2.053   7.828   3.623 -0.0937 -0.2228  0.0302
 3523SOL    HW212244   1.954   7.744   3.701 -1.4081 -1.3530 -2.7124
 3524SOL     OW12245   6.754   8.040   2.073 -0.0489  0.0901 -0.1013
 3524SOL    HW112246   6.824   8.103   2.086 -0.2219  0.4866 -0.9841
 3524SOL    HW212247   6.798   7.964   2.035 -0.0625  0.2617 -0.4643
 3525SOL     OW12248   0.665   2.852   6.465 -0.7877  0.2320 -0.4399
 3525SOL    HW112249   0.759   2.846   6.448 -0.8318 -2.4387 -0.1563
 3525SOL    HW212250   0.658   2.885   6.554 -0.0877 -0.3282 -0.1749
 3526SOL     OW12251   7.231   2.898   7.645 -0.1592 -0.1339  0.2150
 3526SOL    HW112252   7.219   2.829   7.579 -1.2022  0.5918 -0.4000
 3526SOL    HW212253   7.146   2.905   7.688 -0.3799  1.4049 -0.3950
 3527SOL     OW12254   7.768   3.790   9.043  0.2239 -0.2449 -0.4235
 3527SOL    HW112255   7.750   3.861   9.104 -0.8931 -0.1791 -0.8043
 3527SOL    HW212256   7.727   3.818   8.961  1.2730 -0.5460 -1.0777
 3528SOL     OW12257   5.820   2.461   6.000 -0.2755 -0.1494  0.2375
 3528SOL    HW112258   5.768   2.503   6.069  0.2304  0.0606  0.4980
 3528SOL    HW212259   5.887   2.526   5.978  0.1016 -0.5632  0.1675
 3529SOL     OW12260   8.363   5.990   5.067 -0.9687  0.6287  0.1415
 3529SOL    HW112261   8.329   6.030   5.148  0.4855  0.2701  0.9592
 3529SOL    HW212262   8.383   6.063   5.010  0.0919  1.0178  0.9824
 3530SOL     OW12263   1.472   8.992   8.282  0.0015  0.3718 -0.4387
 3530SOL    HW112264   1.467   9.023   8.372 -1.6792 -1.5338  0.1998
 3530SOL    HW212265   1.558   9.021   8.251  0.4386  1.4273  1.6073
 3531SOL     OW12266   8.374   6.177   5.299  0.0509 -0.4532 -0.0701
 3531SOL    HW112267   8.388   6.166   5.393 -1.1799  2.2791  0.5355
 3531SOL    HW212268   8.460   6.203   5.265  0.0763  0.4883  0.6790
 3532SOL     OW12269   5.107   5.728   5.991  0.0282 -0.0717 -0.5220
 3532SOL    HW112270   5.194   5.720   6.030 -0.8698  1.0724  1.8983
 3532SOL    HW212271   5.110   5.669   5.915  2.2950 -1.5031  0.5538
 3533SOL     OW12272   1.123   6.816   7.619  0.0339  0.4753 -0.0686
 3533SOL    HW112273   1.185   6.798   7.690  2.5559 -1.9565 -2.6527
 3533SOL    HW212274   1.114   6.911   7.619  2.7301  0.8262  1.3083
 3534SOL     OW12275   3.627   3.186   0.004 -0.6853 -0.3973  0.5548
 3534SOL    HW112276   3.638   3.177   0.099  0.3884  0.2515  0.5036
 3534SOL    HW212277   3.589   3.273  -0.007 -0.6764 -0.4160  0.3751
 3535SOL     OW12278   7.680   3.012   4.604  0.0594 -0.1120 -0.7170
 3535SOL    HW112279   7.695   3.087   4.661 -1.6915  0.4606 -0.9730
 3535SOL    HW212280   7.640   2.946   4.661  0.0024 -0.2203 -0.8831
 3536SOL     OW12281   5.348   0.930   4.495 -0.5928  0.1936  0.0828
 3536SOL    HW112282   5.397   0.942   4.576  0.8155 -3.5781 -0.0043
 3536SOL    HW212283   5.412   0.942   4.425 -0.9732  0.1225 -0.2842
 3537SOL     OW12284   8.948   7.869   6.812  0.0785 -0.0562 -0.1770
 3537SOL    HW112285   8.871   7.826   6.848 -1.2370  0.7357 -1.9049
 3537SOL    HW212286   8.914   7.945   6.765  1.8356 -0.0044 -1.4794
 3538SOL     OW12287   6.201   7.741   1.019  0.2967 -0.8338  0.3493
 3538SOL    HW112288   6.196   7.690   0.938 -0.5032 -0.2664  0.0339
 3538SOL    HW212289   6.216   7.831   0.990  0.6945 -0.7265  0.8648
 3539SOL     OW12290   0.529   8.332   1.904  0.1547  0.0874 -0.7460
 3539SOL    HW112291   0.434   8.343   1.900  0.0019 -1.2295 -1.0997
 3539SOL    HW212292   0.564   8.412   1.866 -0.8328  0.1544 -1.5389
 3540SOL     OW12293   0.889   8.817   8.037 -0.0513 -0.1081  0.3737
 3540SOL    HW112294   0.973   8.795   7.996 -0.5897  0.5409 -1.1531
 3540SOL    HW212295   0.825   8.763   7.990 -0.9993  2.3774 -1.4130
 3541SOL     OW12296   8.914   5.413   1.049 -0.1247  0.3031  0.1012
 3541SOL    HW112297   8.855   5.414   0.974  1.0481 -0.9558 -0.8916
 3541SOL    HW212298   8.858   5.389   1.123 -0.9784 -0.1911 -0.6851
 3542SOL     OW12299   0.661   7.005   1.943 -0.2729 -0.2774 -0.6480
 3542SOL    HW112300   0.700   7.063   2.009  0.4031  0.0315 -1.3183
 3542SOL    HW212301   0.735   6.966   1.898 -0.7231 -1.4916 -0.3721
 3543SOL     OW12302   1.568   0.816   4.907  0.2238  0.0437 -0.8658
 3543SOL    HW112303   1.656   0.841   4.879  0.9714 -1.1098  0.3370
 3543SOL    HW212304   1.565   0.721   4.895 -0.2233 -0.1732  0.6761
 3544SOL     OW12305   7.806   9.437   0.846  0.0404  0.2821  0.1323
 3544SOL    HW112306   7.846   9.523   0.858 -0.7372  0.4138  2.1590
 3544SOL    HW212307   7.713   9.455   0.834 -0.4983 -0.3231  2.9150
 3545SOL     OW12308   9.163   0.556   7.078  0.4859  0.3208 -0.1845
 3545SOL    HW112309   9.146   0.598   6.994  1.0462 -0.0742 -0.5042
 3545SOL    HW212310   9.096   0.590   7.136 -0.1762  0.2778 -0.9048
 3546SOL     OW12311   6.686   3.482   9.344 -0.9274  0.1568  0.0314
 3546SOL    HW112312   6.777   3.456   9.328 -1.2864 -1.1177 -0.1100
 3546SOL    HW212313   6.692   3.569   9.384  0.3963 -0.2827  0.8600
 3547SOL     OW12314   7.889   2.084   7.714 -0.3374  0.0224  0.3910
 3547SOL    HW112315   7.887   2.133   7.796  0.0263  0.4804  0.1303
 3547SOL    HW212316   7.822   2.124   7.659  0.6339  0.9128 -0.1941
 3548SOL     OW12317   2.894   3.671   0.809 -0.2711  0.0569 -0.1406
 3548SOL    HW112318   2.901   3.648   0.716 -0.9205 -0.7477 -0.0017
 3548SOL    HW212319   2.919   3.591   0.855  0.9468  0.7221  0.3995
 3549SOL     OW12320   3.348   4.191   9.351  0.3698  0.0340  0.3398
 3549SOL    HW112321   3.320   4.134   9.279  1.6945 -0.3798  0.1069
 3549SOL    HW212322   3.370   4.274   9.309 -1.9131  0.8909  0.7283
 3550SOL     OW12323   3.787   2.412   8.146  0.3947  0.5636 -0.1813
 3550SOL    HW112324   3.764   2.381   8.058  0.5353 -0.1985  0.0478
 3550SOL    HW212325   3.882   2.411   8.149  0.4359  1.7921 -0.4354
 3551SOL     OW12326   1.841   9.287   6.734  0.6156  0.3447  0.0997
 3551SOL    HW112327   1.933   9.261   6.747  0.6848 -0.2162 -1.3421
 3551SOL    HW212328   1.793   9.232   6.797  1.1735 -0.0880  0.1665
 3552SOL     OW12329   5.162   7.895   1.635 -0.1680 -0.6550 -0.5468
 3552SOL    HW112330   5.109   7.868   1.710 -0.0812  0.6117 -0.0058
 3552SOL    HW212331   5.099   7.928   1.571 -0.0949  0.4321 -0.0824
 3553SOL     OW12332   2.865   7.983   7.100  0.5380 -0.4691  0.1837
 3553SOL    HW112333   2.785   7.937   7.074 -0.9030  1.6990  0.4654
 3553SOL    HW212334   2.918   7.986   7.021 -0.6365 -0.1265 -0.6174
 3554SOL     OW12335   2.504   3.854   1.604  0.6944  0.1375 -0.0967
 3554SOL    HW112336   2.468   3.847   1.516 -0.1826 -0.5088  0.3016
 3554SOL    HW212337   2.470   3.777   1.651 -0.4472  1.4656  1.3628
 3555SOL     OW12338   5.885   6.106   9.171 -0.8618 -0.3869  0.0748
 3555SOL    HW112339   5.919   6.043   9.108  0.6941 -0.1256  0.6270
 3555SOL    HW212340   5.818   6.154   9.122 -0.4245 -0.8863 -1.0485
 3556SOL     OW12341   7.554   7.412   9.191 -0.3729  0.1992  0.0191
 3556SOL    HW112342   7.522   7.433   9.279 -2.0424  0.6941 -0.6657
 3556SOL    HW212343   7.554   7.317   9.188 -2.1585  0.1792 -0.0601
 3557SOL     OW12344   0.898   6.916   6.334 -0.4724  0.0534 -0.0940
 3557SOL    HW112345   0.843   6.992   6.354 -0.6155 -0.0040 -0.2717
 3557SOL    HW212346   0.893   6.861   6.412 -0.8372 -0.0549 -0.1952
 3558SOL     OW12347   7.357   6.387   5.891  0.5874  0.3551  0.2965
 3558SOL    HW112348   7.385   6.306   5.849  2.3290  2.0112 -1.9473
 3558SOL    HW212349   7.429   6.410   5.951  1.0780  1.2464 -0.6010
 3559SOL     OW12350   2.108   1.290   1.438 -0.0774 -0.4422 -0.0097
 3559SOL    HW112351   2.119   1.276   1.344 -1.1332  0.4713 -0.2850
 3559SOL    HW212352   2.186   1.339   1.464  0.0123 -0.3194 -0.5001
 3560SOL     OW12353   0.106   0.486   7.349  0.0723  1.0461  0.3584
 3560SOL    HW112354   0.071   0.399   7.372 -1.6627  0.9328 -2.2345
 3560SOL    HW212355   0.196   0.469   7.322 -0.5928 -0.1910 -1.2203
 3561SOL     OW12356   5.541   8.395   4.122  0.1223 -0.1880  0.8183
 3561SOL    HW112357   5.540   8.343   4.202 -2.2946 -1.7896 -0.1325
 3561SOL    HW212358   5.494   8.341   4.058  0.0587  1.9704 -1.0701
 3562SOL     OW12359   2.901   8.345   4.418  0.2285  0.5556  0.0428
 3562SOL    HW112360   2.958   8.391   4.357  1.8117 -2.2367 -0.8068
 3562SOL    HW212361   2.841   8.296   4.362  0.9198 -1.1151  0.6817
 3563SOL     OW12362   7.375   6.530   0.913  0.1619 -0.1259  0.4740
 3563SOL    HW112363   7.361   6.476   0.990 -1.4931 -0.1194  0.2056
 3563SOL    HW212364   7.353   6.474   0.839  0.9964  0.1070  0.0323
 3564SOL     OW12365   3.083   9.355   0.410 -0.0529 -0.0499  0.6979
 3564SOL    HW112366   3.005   9.348   0.465 -1.0405 -0.6111 -0.7116
 3564SOL    HW212367   3.061   9.306   0.331  2.7116 -2.4599  1.2865
 3565SOL     OW12368   1.173   3.620   5.553  0.5272  0.3538 -0.5855
 3565SOL    HW112369   1.079   3.611   5.537  0.4404  2.0528 -1.2137
 3565SOL    HW212370   1.200   3.693   5.498  1.5750  1.9669  1.8739
 3566SOL     OW12371   7.608   0.145   3.325  0.0520 -0.3872  0.4670
 3566SOL    HW112372   7.636   0.060   3.359  1.0793  0.2905  1.3704
 3566SOL    HW212373   7.533   0.168   3.380 -0.0073 -0.5520  0.4562
 3567SOL     OW12374   5.759   4.509   7.853 -0.7816  0.0614 -0.0692
 3567SOL    HW112375   5.834   4.565   7.873 -1.9676  1.1782  1.5968
 3567SOL    HW212376   5.757   4.503   7.758  2.7075 -1.9037 -0.1828
 3568SOL     OW12377   8.616   2.759   6.973 -0.0050  0.4847 -0.3389
 3568SOL    HW112378   8.670   2.680   6.982  1.2557  0.9421 -2.9299
 3568SOL    HW212379   8.612   2.774   6.878 -3.6044  1.2698 -0.1913
 3569SOL     OW12380   6.133   2.476   1.894 -0.6962  0.0280  1.0187
 3569SOL    HW112381   6.115   2.400   1.837 -1.4775  0.5583  0.5472
 3569SOL    HW212382   6.229   2.479   1.899 -0.6538 -1.7567  2.0921
 3570SOL     OW12383   0.844   6.038   2.464 -0.3671 -0.1206 -0.5647
 3570SOL    HW112384   0.877   6.020   2.376  0.2933  1.2880 -0.6307
 3570SOL    HW212385   0.757   5.998   2.465 -0.6441  0.3580 -2.0717
 3571SOL     OW12386   6.534   5.438   4.040  0.4442  0.0398 -0.2746
 3571SOL    HW112387   6.520   5.438   4.134  1.8404  1.2383 -0.0408
 3571SOL    HW212388   6.611   5.383   4.027  0.4267  0.1151 -0.7033
 3572SOL     OW12389   4.239   6.719   1.490  0.0238  0.2627  0.2810
 3572SOL    HW112390   4.144   6.715   1.486  0.0004 -2.7934  1.1857
 3572SOL    HW212391   4.266   6.735   1.399 -1.2786  2.8648  0.2491
 3573SOL     OW12392   9.419   5.651   6.652 -0.3994 -0.2556 -0.4127
 3573SOL    HW112393   9.332   5.626   6.623 -0.7318  0.5140 -0.1002
 3573SOL    HW212394   9.414   5.649   6.748 -0.0921 -0.1429 -0.3916
 3574SOL     OW12395   3.832   1.459   8.595  0.0300  0.9097 -0.2188
 3574SOL    HW112396   3.900   1.517   8.626 -0.7585  1.3967  0.6404
 3574SOL    HW212397   3.766   1.517   8.558 -0.2722  0.4949 -0.3426
 3575SOL     OW12398   7.062   9.667   0.002 -0.0283 -0.5579 -0.1660
 3575SOL    HW112399   7.085   9.688  -0.088 -0.8684 -0.5680 -0.3853
 3575SOL    HW212400   7.084   9.746   0.052 -1.3147  0.1556 -0.6782
 3576SOL     OW12401   0.797   1.664   2.432  0.4621  0.5407 -0.9574
 3576SOL    HW112402   0.888   1.666   2.461  0.2440  0.5852 -0.2643
 3576SOL    HW212403   0.799   1.615   2.350  0.8238 -1.2176  0.0664
 3577SOL     OW12404   2.544   5.213   2.993  0.0310  0.9010 -0.4471
 3577SOL    HW112405   2.468   5.261   3.025 -1.7881 -1.0540 -1.5484
 3577SOL    HW212406   2.565   5.254   2.909  1.1624  2.3379  0.4822
 3578SOL     OW12407   3.960   8.850   6.444  0.0519  0.4291 -0.0915
 3578SOL    HW112408   3.870   8.818   6.446  0.2427 -0.0875  0.5490
 3578SOL    HW212409   3.968   8.894   6.360 -1.2170  1.6736  0.3985
 3579SOL     OW12410   6.529   9.266   9.453  0.4478 -0.0306 -0.0787
 3579SOL    HW112411   6.565   9.251   9.541  0.2968  0.1029  0.0064
 3579SOL    HW212412   6.497   9.180   9.425  0.2577 -0.0223  0.1055
 3580SOL     OW12413   9.445   2.388   4.816 -0.1007 -0.3254 -0.0323
 3580SOL    HW112414   9.498   2.319   4.776 -0.5244 -1.5488  1.4321
 3580SOL    HW212415   9.369   2.395   4.759 -0.0943 -1.1403 -0.1624
 3581SOL     OW12416   3.391   3.363   4.315  0.3001  0.2997  0.1517
 3581SOL    HW112417   3.333   3.369   4.240 -0.8365  0.8293  1.0339
 3581SOL    HW212418   3.374   3.443   4.365  0.6455 -0.2799  1.2306
 3582SOL     OW12419   6.918   0.069   1.862  0.1860 -0.0593  0.8288
 3582SOL    HW112420   7.011   0.079   1.842 -0.2135  1.9082 -0.3474
 3582SOL    HW212421   6.904  -0.025   1.863  2.0097 -0.3826  0.1022
 3583SOL     OW12422   7.642   0.205   0.451  0.5443 -0.0634 -0.1001
 3583SOL    HW112423   7.597   0.121   0.438  0.0044  0.4290 -1.6533
 3583SOL    HW212424   7.689   0.194   0.533 -1.4863 -1.0224  1.0228
 3584SOL     OW12425   5.330   2.824   4.504  0.1185 -0.0877 -0.0076
 3584SOL    HW112426   5.292   2.757   4.447 -2.0973  1.7009 -0.7962
 3584SOL    HW212427   5.383   2.775   4.567 -0.0261 -2.4043 -1.5587
 3585SOL     OW12428   7.086   6.167   9.546  0.1232  0.4468  0.2681
 3585SOL    HW112429   7.174   6.180   9.583  0.7013  1.2039 -1.2872
 3585SOL    HW212430   7.086   6.075   9.520  1.3081  0.9359 -1.6944
 3586SOL     OW12431   6.582   1.001   0.381  0.4168  0.1731 -0.1044
 3586SOL    HW112432   6.491   1.029   0.390  0.5735  0.6665 -0.0328
 3586SOL    HW212433   6.614   0.996   0.471  0.7278  0.9045 -0.1704
 3587SOL     OW12434   2.377   1.852   8.330  0.1862  0.2788 -0.5314
 3587SOL    HW112435   2.456   1.803   8.352  0.5357  0.9681 -0.2370
 3587SOL    HW212436   2.381   1.930   8.385 -1.2121 -0.1677  0.2523
 3588SOL     OW12437   4.778   9.318   0.099 -0.2214 -0.3166  0.5659
 3588SOL    HW112438   4.795   9.397   0.048  1.2186 -0.6701  0.4650
 3588SOL    HW212439   4.766   9.350   0.189 -0.0552  0.0584  0.4576
 3589SOL     OW12440   0.886   2.952   8.212 -0.1108 -0.1708 -0.4197
 3589SOL    HW112441   0.956   2.934   8.150 -0.3377  2.3933 -1.5483
 3589SOL    HW212442   0.807   2.955   8.159 -0.7679 -0.8497  0.4829
 3590SOL     OW12443   5.136   9.391   1.998 -0.2085 -0.1890 -0.3428
 3590SOL    HW112444   5.134   9.396   2.093 -0.1028 -1.0132 -0.2933
 3590SOL    HW212445   5.143   9.482   1.969 -0.3240  0.0678  0.4299
 3591SOL     OW12446   0.338   1.884   2.138  0.3275  0.0985 -0.1418
 3591SOL    HW112447   0.408   1.820   2.149 -0.4848 -0.7421  0.3137
 3591SOL    HW212448   0.382   1.962   2.105  1.3749 -0.6198 -0.5028
 3592SOL     OW12449   2.407   3.099   4.391 -0.4224  0.3896 -0.8531
 3592SOL    HW112450   2.460   3.060   4.461 -0.5010 -1.3189 -1.7024
 3592SOL    HW212451   2.415   3.194   4.406  1.3933  0.1418  0.1206
 3593SOL     OW12452   1.075   0.454   0.917  0.2326  0.4241  0.2075
 3593SOL    HW112453   1.064   0.540   0.957  0.4071 -0.0272  1.2735
 3593SOL    HW212454   0.987   0.426   0.895  0.2155  1.0681 -0.5931
 3594SOL     OW12455   5.751   5.464   7.823 -0.1974 -0.2800 -0.4873
 3594SOL    HW112456   5.733   5.371   7.830 -1.3181  0.0308  1.5390
 3594SOL    HW212457   5.683   5.498   7.764 -0.7305 -0.5213 -0.0184
 3595SOL     OW12458   0.115   7.869   9.524 -0.1905 -0.2103 -0.3265
 3595SOL    HW112459   0.193   7.813   9.521  0.4567  0.6758 -0.5504
 3595SOL    HW212460   0.127   7.930   9.451  0.2580  1.6559  1.2324
 3596SOL     OW12461   9.310   5.441   2.393 -0.0077 -0.1346 -0.1843
 3596SOL    HW112462   9.306   5.535   2.378 -1.6738  0.0065  0.8678
 3596SOL    HW212463   9.252   5.426   2.467  2.2518 -1.6783  1.3864
 3597SOL     OW12464   6.638   4.109   6.074  0.4642 -0.1993 -0.2297
 3597SOL    HW112465   6.702   4.102   6.003  0.5668 -1.2542 -0.0419
 3597SOL    HW212466   6.567   4.051   6.048  0.2003 -0.0731  0.2067
 3598SOL     OW12467   8.494   7.113   5.398 -0.5642  0.3417  0.5048
 3598SOL    HW112468   8.513   7.069   5.481  1.1892 -0.3676 -0.2281
 3598SOL    HW212469   8.560   7.080   5.337 -1.7829  0.8589 -1.1899
 3599SOL     OW12470   7.630   7.627   0.974  0.2681 -0.2594  0.0523
 3599SOL    HW112471   7.590   7.563   0.915  0.5710 -0.7086  0.3378
 3599SOL    HW212472   7.563   7.642   1.041  1.2466 -2.4499  1.6207
 3600SOL     OW12473   2.170   8.111   6.498  1.0091  0.0445 -0.4112
 3600SOL    HW112474   2.103   8.149   6.555  1.1284  0.2405 -0.3994
 3600SOL    HW212475   2.206   8.186   6.450  0.0844 -0.2584 -1.6169
 3601SOL     OW12476   5.900   7.672   4.092 -0.1709 -0.4891 -0.4848
 3601SOL    HW112477   5.916   7.668   4.186 -5.3758  0.7201  0.7906
 3601SOL    HW212478   5.902   7.766   4.071 -0.8992 -0.5950 -1.0859
 3602SOL     OW12479   5.139   4.915   8.072  0.3721 -0.3392  0.4597
 3602SOL    HW112480   5.117   4.924   7.979  2.3742  0.9265  0.0465
 3602SOL    HW212481   5.107   4.996   8.112 -1.6400 -1.4236  1.1935
 3603SOL     OW12482   2.203   9.132   3.089  0.0827 -0.4315 -0.4508
 3603SOL    HW112483   2.122   9.107   3.133  0.6263  0.0316  0.8768
 3603SOL    HW212484   2.188   9.220   3.057  0.3184 -0.0145  0.5389
 3604SOL     OW12485   3.448   7.095   2.631  0.0609  0.4284 -0.5579
 3604SOL    HW112486   3.406   7.157   2.571  1.5346  1.1032 -0.9231
 3604SOL    HW212487   3.442   7.011   2.586 -2.3176  0.1612  0.1217
 3605SOL     OW12488   3.697   3.040   9.434  0.4158 -0.7605 -0.7265
 3605SOL    HW112489   3.704   2.959   9.483  1.9132  0.5595  1.4415
 3605SOL    HW212490   3.658   3.102   9.496 -0.4189  0.2747 -2.2163
 3606SOL     OW12491   7.621   2.780   2.747 -0.4951 -0.0771  0.0885
 3606SOL    HW112492   7.665   2.846   2.800  0.0422 -1.7605  1.8613
 3606SOL    HW212493   7.593   2.714   2.810  1.8468 -3.1567 -1.8062
 3607SOL     OW12494   4.211   4.244   2.555 -0.1181  0.0305  0.1804
 3607SOL    HW112495   4.200   4.275   2.465 -0.5387  1.0146  0.5533
 3607SOL    HW212496   4.129   4.197   2.573  0.5927 -1.4980 -0.4451
 3608SOL     OW12497   9.465   6.511   1.037 -0.0458 -0.0581 -0.0092
 3608SOL    HW112498   9.375   6.546   1.040  0.0414  0.6876 -2.7329
 3608SOL    HW212499   9.518   6.586   1.009  1.3794 -0.6192  1.0931
 3609SOL     OW12500   4.203   9.184   3.325  0.0915 -0.3104  0.1746
 3609SOL    HW112501   4.269   9.239   3.366  1.0698 -1.0170 -0.4227
 3609SOL    HW212502   4.146   9.157   3.398  0.8545 -0.2544  0.8048
 3610SOL     OW12503   0.589   6.329   6.080 -0.5418  0.2120  0.3764
 3610SOL    HW112504   0.541   6.335   5.997  1.9526  0.9483 -1.1039
 3610SOL    HW212505   0.575   6.239   6.109 -0.2641 -0.5287 -1.6465
 3611SOL     OW12506   2.826   8.147   6.229  0.2986  0.0658 -0.4205
 3611SOL    HW112507   2.797   8.057   6.245 -0.1879  0.3268  0.2241
 3611SOL    HW212508   2.808   8.162   6.137  0.4890 -0.5366 -0.5609
 3612SOL     OW12509   1.190   2.856   2.318 -0.8810 -0.3495 -0.1383
 3612SOL    HW112510   1.185   2.779   2.262 -0.0843 -0.2855 -0.3154
 3612SOL    HW212511   1.274   2.848   2.362 -1.5368 -0.4499  1.1409
 3613SOL     OW12512   4.299   9.032   5.718  0.6007  0.4463  0.0796
 3613SOL    HW112513   4.269   9.118   5.688 -2.4660 -0.6913 -0.4440
 3613SOL    HW212514   4.300   8.978   5.640  0.5456 -0.4906  0.7098
 3614SOL     OW12515   3.968   9.314   8.308 -0.8416 -0.6008 -0.1732
 3614SOL    HW112516   4.023   9.239   8.331 -0.0552 -0.1762 -0.6267
 3614SOL    HW212517   3.883   9.295   8.348 -0.0749 -0.7758  1.4375
 3615SOL     OW12518   8.376   2.374   2.649 -0.0634 -0.4560 -0.9511
 3615SOL    HW112519   8.412   2.346   2.565 -1.0731 -1.1830 -1.1504
 3615SOL    HW212520   8.296   2.323   2.660 -0.0067 -0.3005  0.4072
 3616SOL     OW12521   1.769   8.216   0.162  0.3046  0.5093 -0.5948
 3616SOL    HW112522   1.674   8.208   0.149  0.4997 -2.4049 -0.8636
 3616SOL    HW212523   1.799   8.268   0.088 -1.1710  2.5470  0.1341
 3617SOL     OW12524   1.079   4.531   6.161  0.3870  0.0469 -0.3517
 3617SOL    HW112525   1.059   4.607   6.216 -0.9444 -0.0257 -0.7068
 3617SOL    HW212526   1.024   4.543   6.083  1.6370 -0.2772 -1.3064
 3618SOL     OW12527   7.679   5.576   5.300 -0.0316  0.7353  0.4111
 3618SOL    HW112528   7.740   5.621   5.241  0.1590 -0.6706 -0.5220
 3618SOL    HW212529   7.627   5.646   5.339 -0.6217  1.7159 -1.9319
 3619SOL     OW12530   3.247   5.743   2.543  0.0643  0.5695  0.0860
 3619SOL    HW112531   3.304   5.671   2.515  0.5452  0.8910  0.2467
 3619SOL    HW212532   3.292   5.784   2.616 -2.1618 -1.6086  2.9158
 3620SOL     OW12533   1.724   8.657   2.641  0.0241  0.6505  0.5763
 3620SOL    HW112534   1.705   8.572   2.681 -0.4431  0.7831  0.6420
 3620SOL    HW212535   1.813   8.677   2.669 -0.1779  0.5865  1.2736
 3621SOL     OW12536   9.266   9.232   0.176  0.0692  0.1443 -0.3792
 3621SOL    HW112537   9.201   9.202   0.239 -1.1590  2.5955 -0.3554
 3621SOL    HW212538   9.279   9.157   0.117 -2.2795 -0.6462  0.0152
 3622SOL     OW12539   9.149   6.502   2.279  0.6476  0.0615 -0.2501
 3622SOL    HW112540   9.232   6.455   2.274  1.4962  1.5761 -1.4462
 3622SOL    HW212541   9.096   6.465   2.208  0.4573 -0.5703  0.2079
 3623SOL     OW12542   8.592   3.599   8.748 -0.7322 -0.0020 -0.4273
 3623SOL    HW112543   8.592   3.679   8.800  2.0074 -0.1169 -0.0836
 3623SOL    HW212544   8.583   3.630   8.658  1.5527  0.8952 -0.4198
 3624SOL     OW12545   7.444   1.661   4.635  0.5786 -0.9717 -0.5054
 3624SOL    HW112546   7.353   1.634   4.644  0.0225  0.9958  0.2402
 3624SOL    HW212547   7.472   1.625   4.551 -1.8901  1.0149 -2.2863
 3625SOL     OW12548   3.102   1.107   9.665 -0.1812 -0.1099 -0.5658
 3625SOL    HW112549   3.023   1.094   9.614  0.4155 -0.3596 -1.4455
 3625SOL    HW212550   3.171   1.066   9.613  0.1269 -2.3766  1.4237
 3626SOL     OW12551   0.656   8.810   5.958 -0.0508 -0.5641  0.0433
 3626SOL    HW112552   0.598   8.794   6.033  0.4724 -0.6446  0.4437
 3626SOL    HW212553   0.714   8.880   5.987 -0.0077 -0.4205 -0.3847
 3627SOL     OW12554   7.324   6.743   8.777  0.3234  0.1675 -0.0939
 3627SOL    HW112555   7.246   6.740   8.832 -0.7730  0.0846 -1.5672
 3627SOL    HW212556   7.305   6.682   8.706  1.9680 -0.2313 -0.2182
 3628SOL     OW12557   3.003   6.244   4.798  0.5105 -0.3330  0.1453
 3628SOL    HW112558   3.012   6.284   4.712  0.1499 -1.3658 -0.3843
 3628SOL    HW212559   3.093   6.233   4.829  0.6942 -0.9518 -0.5776
 3629SOL     OW12560   7.960   8.615   5.543  0.3187 -0.2550 -0.0503
 3629SOL    HW112561   7.979   8.562   5.465  1.1166 -1.2050  0.7723
 3629SOL    HW212562   8.041   8.615   5.593 -0.6986 -1.2184  1.6901
 3630SOL     OW12563   3.736   0.801   5.046  0.0902  0.4357  0.7553
 3630SOL    HW112564   3.687   0.864   5.100 -0.0052 -0.3374  1.5843
 3630SOL    HW212565   3.705   0.818   4.957  0.2777  1.7586  0.9116
 3631SOL     OW12566   0.138   8.602   2.966  0.2279  0.0594  0.4941
 3631SOL    HW112567   0.079   8.562   3.030 -0.5636 -0.8602 -0.7721
 3631SOL    HW212568   0.087   8.675   2.929  0.3043 -0.0284  0.2124
 3632SOL     OW12569   1.677   1.115   6.776 -0.7000  0.6009  0.1172
 3632SOL    HW112570   1.747   1.171   6.742 -0.3175 -0.3960 -0.7767
 3632SOL    HW212571   1.709   1.087   6.862 -0.7236  1.4164  0.4071
 3633SOL     OW12572   3.382   5.032   9.010  0.4049  0.2553 -0.3658
 3633SOL    HW112573   3.391   5.099   8.942  4.3189 -0.6450 -0.9806
 3633SOL    HW212574   3.419   5.072   9.088 -1.2959  0.2539  0.4657
 3634SOL     OW12575   2.358   5.730   0.159  0.3964  0.3519  0.3199
 3634SOL    HW112576   2.299   5.717   0.233 -1.1103  3.1388 -0.2260
 3634SOL    HW212577   2.314   5.687   0.086 -0.3835  1.3413  0.1811
 3635SOL     OW12578   0.987   7.516   4.711 -0.1828  0.1805  0.3063
 3635SOL    HW112579   0.969   7.600   4.667 -0.0109  0.0341 -0.0509
 3635SOL    HW212580   0.944   7.524   4.796 -0.7497  0.3749  0.0109
 3636SOL     OW12581   6.612   2.468   1.506  0.1025 -0.1799  0.1883
 3636SOL    HW112582   6.612   2.408   1.432  1.7347 -1.4209  1.1045
 3636SOL    HW212583   6.525   2.460   1.544 -0.0657 -1.1588 -0.3700
 3637SOL     OW12584   8.156   5.229   7.734  0.5356  0.1918  0.2512
 3637SOL    HW112585   8.161   5.297   7.668 -0.7962  0.2631  0.1936
 3637SOL    HW212586   8.187   5.271   7.814  1.1399  0.4171 -0.0937
 3638SOL     OW12587   4.375   5.765   5.906  0.5134  0.0637  0.5821
 3638SOL    HW112588   4.392   5.686   5.856  0.8630  0.3717  0.2140
 3638SOL    HW212589   4.460   5.808   5.915  0.4054  0.1716  1.1693
 3639SOL     OW12590   8.487   4.514   5.442  0.3038  0.0900 -0.2247
 3639SOL    HW112591   8.413   4.572   5.425  0.7915  0.6466 -0.5401
 3639SOL    HW212592   8.472   4.438   5.386 -0.3269 -0.0663  0.1621
 3640SOL     OW12593   5.409   1.963   0.272 -0.0935 -0.0085 -0.3495
 3640SOL    HW112594   5.487   1.923   0.311 -0.1793  0.3609  0.2026
 3640SOL    HW212595   5.376   1.896   0.212 -0.3833 -0.8849  0.7611
 3641SOL     OW12596   4.370   6.668   9.113  0.0828 -0.7833  0.2486
 3641SOL    HW112597   4.287   6.620   9.116 -0.1368 -0.3619  1.6007
 3641SOL    HW212598   4.407   6.658   9.200  1.4818 -0.9654 -0.3366
 3642SOL     OW12599   1.018   3.962   6.004  0.1960 -0.8497  0.6979
 3642SOL    HW112600   0.948   3.907   5.968 -0.6014 -0.0002  0.9455
 3642SOL    HW212601   1.026   3.933   6.095  2.2044 -2.9912 -0.0486
 3643SOL     OW12602   3.829   0.585   3.467 -0.3303  0.0306 -0.0179
 3643SOL    HW112603   3.847   0.677   3.445  0.2902 -0.3279 -1.1129
 3643SOL    HW212604   3.784   0.589   3.551  0.0895  1.3132  0.1782
 3644SOL     OW12605   1.622   3.408   1.460 -0.4658  0.4602  0.1973
 3644SOL    HW112606   1.632   3.473   1.390 -1.2176  0.0792 -0.2835
 3644SOL    HW212607   1.553   3.350   1.429 -1.1300  0.5378  1.4574
 3645SOL     OW12608   7.158   4.900   0.225 -0.4812 -0.8102  0.4763
 3645SOL    HW112609   7.222   4.836   0.193  1.9170  1.1059  1.1506
 3645SOL    HW212610   7.110   4.927   0.147 -0.5845 -2.3607 -0.0334
 3646SOL     OW12611   2.899   4.496   4.904  0.0813  0.5381  0.2105
 3646SOL    HW112612   2.963   4.480   4.834  1.6698  0.1524  1.6926
 3646SOL    HW212613   2.824   4.441   4.880  0.8432 -0.0924 -0.8440
 3647SOL     OW12614   2.684   0.472   9.047  0.1672  0.0426 -0.0328
 3647SOL    HW112615   2.680   0.381   9.018 -0.3991  0.4098 -1.1559
 3647SOL    HW212616   2.595   0.493   9.075 -0.2013  0.8163 -1.6499
 3648SOL     OW12617   2.045   0.366   7.430  0.1658 -0.0998  0.0780
 3648SOL    HW112618   2.079   0.447   7.392  0.0419  0.2621  0.7409
 3648SOL    HW212619   2.049   0.379   7.524 -0.0235 -0.7971  0.1900
 3649SOL     OW12620   7.020   4.189   5.830 -0.6943 -0.1279  0.4001
 3649SOL    HW112621   6.931   4.159   5.849 -0.8617 -0.4644 -0.8274
 3649SOL    HW212622   7.070   4.108   5.815 -0.0858  0.0400  1.4036
 3650SOL     OW12623   7.586   6.299   7.625 -0.0780  0.1215 -0.1181
 3650SOL    HW112624   7.600   6.391   7.646 -3.2617  0.3223  1.8576
 3650SOL    HW212625   7.586   6.254   7.710 -2.6451 -0.9296 -0.5771
 3651SOL     OW12626   2.855   5.096   2.190  0.2022 -0.3968 -0.2750
 3651SOL    HW112627   2.797   5.037   2.239 -0.5246  0.3611 -0.2032
 3651SOL    HW212628   2.899   5.147   2.258  1.1159 -1.0954 -0.3200
 3652SOL     OW12629   2.539   5.602   4.940 -0.2766  0.0355  0.3297
 3652SOL    HW112630   2.602   5.670   4.966 -1.9537  1.6209  0.4335
 3652SOL    HW212631   2.525   5.551   5.020 -0.8700  1.1605  0.9753
 3653SOL     OW12632   7.331   1.473   8.459  0.2230  0.3227 -0.1186
 3653SOL    HW112633   7.366   1.388   8.488 -0.1253 -0.3878 -1.6617
 3653SOL    HW212634   7.288   1.454   8.375  0.4219  2.0834 -0.6652
 3654SOL     OW12635   7.917   3.060   5.792 -0.0672  0.3753  0.2420
 3654SOL    HW112636   7.961   3.021   5.868  1.5340  0.3387 -0.6540
 3654SOL    HW212637   7.849   2.997   5.768  1.5639 -1.2491 -0.3358
 3655SOL     OW12638   1.330   5.887   4.199  0.4092  0.0284 -0.2319
 3655SOL    HW112639   1.329   5.952   4.270  1.8595  0.4221 -0.5547
 3655SOL    HW212640   1.407   5.834   4.215  1.5491  0.9623 -2.2294
 3656SOL     OW12641   1.911   0.188   0.727 -0.5245 -0.1716  0.6581
 3656SOL    HW112642   2.001   0.220   0.734  0.2296 -2.2181  1.0936
 3656SOL    HW212643   1.898   0.174   0.633  0.7027 -2.5650  0.7640
 3657SOL     OW12644   8.475   0.428   5.254 -0.0492 -0.2442 -0.0564
 3657SOL    HW112645   8.559   0.404   5.294  0.0199 -1.3189 -0.7904
 3657SOL    HW212646   8.497   0.445   5.163  0.0120  3.3847  0.4966
 3658SOL     OW12647   2.823   5.043   2.634  0.0073 -0.3427  0.2847
 3658SOL    HW112648   2.857   5.082   2.714 -0.6748 -0.6203  0.7101
 3658SOL    HW212649   2.792   5.118   2.582  2.5283  0.0944 -0.7670
 3659SOL     OW12650   4.434   9.409   2.180  0.0282 -0.0449 -0.1756
 3659SOL    HW112651   4.447   9.379   2.270  1.8906 -0.7514 -0.6390
 3659SOL    HW212652   4.339   9.414   2.170 -0.2212 -0.1142  1.7653
 3660SOL     OW12653   9.480   3.430   0.907 -0.1738 -0.4161  0.1202
 3660SOL    HW112654   9.560   3.471   0.939 -0.2129 -1.5591  1.8242
 3660SOL    HW212655   9.410   3.472   0.958 -0.3611 -1.4145  0.7058
 3661SOL     OW12656   0.424   2.392   2.573  0.1816 -0.5979  0.7119
 3661SOL    HW112657   0.419   2.451   2.648 -0.5233  0.1191  0.1261
 3661SOL    HW212658   0.434   2.450   2.498  0.1335 -1.2620  0.1837
 3662SOL     OW12659   9.674   5.069   5.676 -0.0559  0.2588  0.3139
 3662SOL    HW112660   9.676   5.074   5.772 -1.1856 -1.5347  0.4910
 3662SOL    HW212661   9.591   5.112   5.652 -0.6621 -0.8523  0.3294
 3663SOL     OW12662   5.423   7.548   8.474 -0.2555 -0.0347 -0.1334
 3663SOL    HW112663   5.351   7.594   8.432 -0.8326  0.7414  1.5972
 3663SOL    HW212664   5.395   7.539   8.565  2.1064  0.9139  0.7615
 3664SOL     OW12665   2.642   2.754   2.149 -0.3325 -0.0063 -0.6650
 3664SOL    HW112666   2.556   2.794   2.165 -0.8295 -0.8958 -1.0198
 3664SOL    HW212667   2.701   2.828   2.139 -0.0124  0.7683  4.4830
 3665SOL     OW12668   1.050   0.034   6.912 -0.6351 -0.1792 -0.0847
 3665SOL    HW112669   1.034   0.038   7.006 -0.5191 -1.0643 -0.0195
 3665SOL    HW212670   1.131   0.085   6.900 -0.8926  0.3088  0.2283
 3666SOL     OW12671   4.406   4.995   4.723  0.3821 -0.0723 -0.1258
 3666SOL    HW112672   4.457   5.060   4.772 -0.3197 -0.2771  0.9179
 3666SOL    HW212673   4.347   5.048   4.668 -0.1326  0.1918  0.6633
 3667SOL     OW12674   5.128   5.528   1.427 -0.0491  0.1124 -0.0364
 3667SOL    HW112675   5.194   5.595   1.408 -2.2221  2.8674  1.4550
 3667SOL    HW212676   5.156   5.491   1.511  1.1359 -0.9313 -0.8457
 3668SOL     OW12677   5.563   1.680   3.121 -0.3746  0.2456 -0.2600
 3668SOL    HW112678   5.568   1.639   3.208  0.1444 -1.1755 -0.9276
 3668SOL    HW212679   5.525   1.612   3.065 -0.2019  0.9555 -1.2639
 3669SOL     OW12680   3.263   2.126   2.445  0.1619  0.4440  0.0945
 3669SOL    HW112681   3.289   2.117   2.537  0.5755 -1.7438 -0.1747
 3669SOL    HW212682   3.175   2.088   2.441  0.7415 -0.8963 -0.6434
 3670SOL     OW12683   4.300   5.575   7.102  0.2736 -0.3850 -0.2013
 3670SOL    HW112684   4.359   5.648   7.119 -0.5051  0.4140 -0.8126
 3670SOL    HW212685   4.264   5.592   7.015 -2.3555  0.2596  0.9045
 3671SOL     OW12686   8.518   7.894   1.271  0.1638 -0.2332  0.8152
 3671SOL    HW112687   8.515   7.987   1.251  1.8582 -0.0656  1.1804
 3671SOL    HW212688   8.584   7.858   1.212  2.3327 -0.4435  3.1762
 3672SOL     OW12689   6.421   9.106   0.906  0.0958  0.2926  0.6109
 3672SOL    HW112690   6.486   9.055   0.856 -1.9863 -0.6758 -1.2862
 3672SOL    HW212691   6.451   9.197   0.897 -0.0839  0.1697 -2.4310
 3673SOL     OW12692   5.575   2.213   8.123  0.2666 -0.2458 -0.0796
 3673SOL    HW112693   5.540   2.301   8.118  0.0832 -0.3679 -0.9386
 3673SOL    HW212694   5.499   2.157   8.137  0.5342 -0.1297  2.3195
 3674SOL     OW12695   3.601   5.893   4.978  0.0613 -0.2099 -0.5234
 3674SOL    HW112696   3.641   5.942   5.050  0.6381  0.0467 -1.0114
 3674SOL    HW212697   3.566   5.961   4.920 -3.1279 -0.3882  0.9537
 3675SOL     OW12698   1.350   6.878   4.387  0.6484  0.1235 -0.4837
 3675SOL    HW112699   1.278   6.845   4.440  0.5612  1.4448  0.2663
 3675SOL    HW212700   1.385   6.801   4.344 -1.3514 -0.5206 -1.0515
 3676SOL     OW12701   1.864   7.573   8.931  0.4835 -0.1431  0.4254
 3676SOL    HW112702   1.769   7.587   8.933  0.4030 -0.3452 -1.1308
 3676SOL    HW212703   1.889   7.565   9.023 -1.2228 -1.4870  0.8157
 3677SOL     OW12704   4.369   6.873   3.498  0.0730  0.4555 -0.7934
 3677SOL    HW112705   4.452   6.896   3.541 -0.1650  0.0467 -0.1046
 3677SOL    HW212706   4.375   6.778   3.484  0.1374  0.5783 -1.6519
 3678SOL     OW12707   6.494   1.259   3.759  0.6158 -0.8532  0.1755
 3678SOL    HW112708   6.457   1.237   3.845  2.5870 -0.5032  1.1656
 3678SOL    HW212709   6.581   1.219   3.760  0.8917 -0.3462 -1.4419
 3679SOL     OW12710   0.814   3.769   5.926  0.0632 -0.2723  0.3096
 3679SOL    HW112711   0.770   3.765   5.841 -0.7704 -1.6552  0.7736
 3679SOL    HW212712   0.758   3.825   5.979 -1.2237 -2.0363  0.9012
 3680SOL     OW12713   8.437   1.983   2.914  0.3663 -0.3962  0.3867
 3680SOL    HW112714   8.396   2.059   2.955  0.2118 -0.8974  1.1957
 3680SOL    HW212715   8.402   1.981   2.825  0.6381  0.6705  0.2482
 3681SOL     OW12716   7.312   9.582   7.217 -0.2033  0.5278 -0.5018
 3681SOL    HW112717   7.339   9.501   7.261 -2.9075  0.2620  0.8501
 3681SOL    HW212718   7.313   9.648   7.287 -1.3798  0.8555 -0.7805
 3682SOL     OW12719   8.275   7.636   3.492  0.1694  0.2527 -0.0368
 3682SOL    HW112720   8.292   7.671   3.404  0.8622  0.3304  0.1245
 3682SOL    HW212721   8.332   7.559   3.498 -1.8776 -1.3899 -0.6764
 3683SOL     OW12722   8.336   5.183   5.198 -0.5332 -0.3267 -0.2070
 3683SOL    HW112723   8.262   5.215   5.249  0.9328  1.9997  0.6925
 3683SOL    HW212724   8.319   5.091   5.184 -2.1215 -0.5752  2.6103
 3684SOL     OW12725   8.367   7.257   8.430  0.3759 -0.1197 -0.4020
 3684SOL    HW112726   8.274   7.256   8.456  0.3002 -1.9022 -0.5807
 3684SOL    HW212727   8.414   7.247   8.513  0.3636 -0.2787 -0.4141
 3685SOL     OW12728   3.755   7.138   3.996 -0.0453  0.2013 -0.0539
 3685SOL    HW112729   3.665   7.119   4.021  0.1160 -0.5089  0.0308
 3685SOL    HW212730   3.807   7.115   4.073  0.4303 -1.7157 -0.8600
 3686SOL     OW12731   0.854   0.988   9.270  0.1148  0.6623  0.2208
 3686SOL    HW112732   0.866   1.082   9.281  0.0385  0.4779  2.0244
 3686SOL    HW212733   0.937   0.950   9.298 -0.0496  0.1519  0.0216
 3687SOL     OW12734   5.599   2.414   8.884  0.1296 -0.1402 -0.1086
 3687SOL    HW112735   5.651   2.335   8.901  0.2929 -0.3554 -1.4980
 3687SOL    HW212736   5.556   2.432   8.968  1.9741 -0.2777  0.9404
 3688SOL     OW12737   0.866   6.875   1.815 -0.2451 -0.4873 -0.3917
 3688SOL    HW112738   0.908   6.866   1.729 -1.0884  0.8850 -0.9845
 3688SOL    HW212739   0.930   6.843   1.877 -0.1133 -2.7875 -1.6277
 3689SOL     OW12740   5.926   6.291   4.014 -0.3468 -0.2846  0.3242
 3689SOL    HW112741   5.974   6.259   4.090 -0.7617  0.4618  0.9170
 3689SOL    HW212742   5.987   6.350   3.970 -1.0728  1.6501  1.7681
 3690SOL     OW12743   4.093   5.650   8.833 -0.0027  0.5555 -0.5749
 3690SOL    HW112744   4.007   5.660   8.793  0.2956 -1.0865 -1.7403
 3690SOL    HW212745   4.120   5.561   8.810  1.1471  0.3173  1.4932
 3691SOL     OW12746   6.238   0.662   0.852  0.1566 -0.3832 -0.1300
 3691SOL    HW112747   6.296   0.609   0.799 -0.7883 -1.2682 -0.3205
 3691SOL    HW212748   6.258   0.638   0.942  0.6812 -0.0320 -0.1493
 3692SOL     OW12749   0.224   8.638   3.978  0.1380 -0.1105  0.0498
 3692SOL    HW112750   0.282   8.654   4.053  1.4746  1.0947 -1.1851
 3692SOL    HW212751   0.145   8.689   3.998 -0.9847 -2.4180  2.1388
 3693SOL     OW12752   6.522   5.472   7.523  0.1124 -0.5967  0.6187
 3693SOL    HW112753   6.455   5.476   7.590  0.7305  1.5700  1.1896
 3693SOL    HW212754   6.479   5.506   7.444  0.3148  0.0557  0.7869
 3694SOL     OW12755   0.803   6.458   2.252 -0.0552  0.0275 -0.4242
 3694SOL    HW112756   0.727   6.408   2.282  0.4930 -0.4737  0.1590
 3694SOL    HW212757   0.841   6.403   2.183 -0.5583  0.5607 -1.1381
 3695SOL     OW12758   2.633   6.902   5.167 -0.2465 -0.0891  0.5876
 3695SOL    HW112759   2.668   6.973   5.222 -1.2553  0.9571 -0.0787
 3695SOL    HW212760   2.697   6.831   5.176  1.4717  1.3391  0.2952
 3696SOL     OW12761   2.477   5.291   7.670 -0.1824  0.4265  0.4066
 3696SOL    HW112762   2.423   5.312   7.593  0.3420 -0.0815 -0.1062
 3696SOL    HW212763   2.484   5.195   7.669  0.5594  0.4731  0.5838
 3697SOL     OW12764   8.435   9.192   0.120  0.5486 -0.2137  0.2215
 3697SOL    HW112765   8.445   9.274   0.072  1.7295 -0.4213  0.1021
 3697SOL    HW212766   8.365   9.146   0.073 -1.3153  1.4084  1.2751
 3698SOL     OW12767   8.525   4.934   4.987  0.9022 -0.2766  0.6109
 3698SOL    HW112768   8.599   4.917   5.044  3.0079  1.7370 -1.3369
 3698SOL    HW212769   8.563   4.952   4.901 -1.9402 -0.5301 -0.8481
 3699SOL     OW12770   7.038   4.304   4.990 -0.1793  0.3103  0.4208
 3699SOL    HW112771   7.034   4.381   4.934 -2.1266 -0.0818 -0.0470
 3699SOL    HW212772   7.066   4.234   4.932  1.0611  0.5223  0.7274
 3700SOL     OW12773   2.085   1.283   7.694 -0.0612 -0.5504 -0.3520
 3700SOL    HW112774   2.100   1.377   7.690  0.1522 -0.5476  0.3202
 3700SOL    HW212775   2.042   1.269   7.779  0.7636 -1.1712 -0.0218
 3701SOL     OW12776   3.978   3.147   3.456 -0.2478  0.8695 -0.5452
 3701SOL    HW112777   4.060   3.178   3.419  1.9827 -1.4422  1.9819
 3701SOL    HW212778   3.977   3.053   3.435 -2.1318  0.7982 -0.2911
 3702SOL     OW12779   5.653   1.762   2.496  0.0556  0.3206  0.2276
 3702SOL    HW112780   5.744   1.737   2.505  0.7355  1.6055 -2.1514
 3702SOL    HW212781   5.635   1.754   2.402 -2.5063 -0.5904  0.7231
 3703SOL     OW12782   8.321   8.811   4.098  0.5964 -0.2644 -0.0284
 3703SOL    HW112783   8.241   8.862   4.086  0.7530  0.3202  1.2519
 3703SOL    HW212784   8.290   8.723   4.119  0.3185 -1.1449 -3.5468
 3704SOL     OW12785   5.316   6.307   7.753  0.2066  0.4043 -0.2263
 3704SOL    HW112786   5.373   6.294   7.829  0.0443 -0.2633 -0.2101
 3704SOL    HW212787   5.363   6.266   7.681 -1.1380 -2.0653  0.1764
 3705SOL     OW12788   0.642   8.909   0.081  0.2510 -0.3932 -0.3596
 3705SOL    HW112789   0.648   8.935   0.173 -1.1610  0.2393 -0.4098
 3705SOL    HW212790   0.707   8.840   0.071  0.6820 -0.2186  1.0227
 3706SOL     OW12791   0.422   2.275   9.468 -0.2260 -0.0211 -0.1254
 3706SOL    HW112792   0.364   2.259   9.393  1.0918  0.0829 -1.2164
 3706SOL    HW212793   0.378   2.343   9.519 -1.5521 -0.6852 -0.3390
 3707SOL     OW12794   9.538   7.300   7.610  0.3573 -0.2465 -0.3731
 3707SOL    HW112795   9.543   7.225   7.669  0.9116 -0.4729 -0.7026
 3707SOL    HW212796   9.541   7.262   7.522  1.7986  0.2080 -0.5513
 3708SOL     OW12797   0.438   8.699   5.116 -0.2231 -0.0162  0.1318
 3708SOL    HW112798   0.389   8.669   5.040 -0.2977  0.1062  0.1316
 3708SOL    HW212799   0.530   8.687   5.092 -0.2564 -1.7316  0.7185
 3709SOL     OW12800   0.314   1.490   4.566 -0.4603  0.9484 -0.4565
 3709SOL    HW112801   0.385   1.509   4.628 -2.0107  2.1408  1.0455
 3709SOL    HW212802   0.348   1.418   4.513  1.1360  0.2031  1.4379
 3710SOL     OW12803   0.338   4.594   1.482  0.3540 -0.4694 -0.8811
 3710SOL    HW112804   0.360   4.683   1.453 -0.3703  0.1628  0.4296
 3710SOL    HW212805   0.282   4.560   1.413  2.2355 -0.6933 -2.3991
 3711SOL     OW12806   1.338   6.554   0.351 -0.2525 -0.2976 -0.6831
 3711SOL    HW112807   1.350   6.528   0.443 -3.0467  2.4485  0.6606
 3711SOL    HW212808   1.360   6.647   0.349 -2.2182  0.2190 -2.2230
 3712SOL     OW12809   4.450   1.135   9.609  0.7569  0.1507 -0.2515
 3712SOL    HW112810   4.378   1.142   9.546 -0.4810 -1.4212  0.8953
 3712SOL    HW212811   4.506   1.066   9.573 -0.1168 -0.9704  0.4574
 3713SOL     OW12812   3.732   6.612   7.935  0.4903  0.5653 -0.6717
 3713SOL    HW112813   3.689   6.556   8.000 -0.7926  0.6557 -1.4191
 3713SOL    HW212814   3.777   6.679   7.988 -1.0256  0.9972  0.1375
 3714SOL     OW12815   2.069   9.096   2.277 -0.1379 -0.4365  0.3047
 3714SOL    HW112816   2.053   9.100   2.183  0.1562 -1.4900  0.1993
 3714SOL    HW212817   2.164   9.107   2.286  0.0312 -1.7212  0.3522
 3715SOL     OW12818   9.595   5.831   6.531  0.0124 -0.3752  0.5251
 3715SOL    HW112819   9.522   5.793   6.581  0.5829 -0.8592  1.0137
 3715SOL    HW212820   9.649   5.755   6.508  0.9866  0.0952  1.2099
 3716SOL     OW12821   3.924   5.545   9.164 -0.3630  0.3738 -0.4552
 3716SOL    HW112822   4.006   5.517   9.123  0.4732 -0.1873  1.4996
 3716SOL    HW212823   3.932   5.640   9.171  0.7323  0.2017  0.9148
 3717SOL     OW12824   0.041   2.695   4.342 -0.0678 -0.3275 -0.3381
 3717SOL    HW112825  -0.052   2.688   4.365 -0.0474 -1.5666 -0.6068
 3717SOL    HW212826   0.086   2.706   4.426 -0.4334  0.1234 -0.1962
 3718SOL     OW12827   7.156   1.688   3.993  0.0568  0.0428 -0.0845
 3718SOL    HW112828   7.125   1.598   3.982  1.1967 -0.5978  1.5563
 3718SOL    HW212829   7.161   1.724   3.904 -3.1573 -0.5196 -0.6070
 3719SOL     OW12830   4.440   1.900   0.351 -0.1274 -0.3604 -0.2248
 3719SOL    HW112831   4.529   1.930   0.372 -0.0067 -1.3932  0.8809
 3719SOL    HW212832   4.412   1.956   0.279  0.6920  1.2845  0.6621
 3720SOL     OW12833   4.449   9.087   6.467 -0.1352  0.2859 -0.1570
 3720SOL    HW112834   4.405   9.041   6.539 -0.3088 -0.9437 -1.0034
 3720SOL    HW212835   4.384   9.087   6.396 -0.1489  1.9203 -0.1799
 3721SOL     OW12836   6.235   4.059   3.407  0.0900 -0.4403  0.4437
 3721SOL    HW112837   6.259   3.966   3.399 -0.1263 -0.3754 -1.6506
 3721SOL    HW212838   6.307   4.105   3.365  0.9689  0.5215  2.8428
 3722SOL     OW12839   2.982   1.075   8.290 -0.8209 -0.2348  0.5419
 3722SOL    HW112840   2.888   1.082   8.276 -0.8982 -0.6431  0.8281
 3722SOL    HW212841   3.019   1.059   8.204 -1.0789 -0.6932  0.5122
 3723SOL     OW12842   8.651   0.539   3.302  0.1099 -0.2657 -0.1394
 3723SOL    HW112843   8.567   0.562   3.260 -0.1830 -1.3958 -0.2052
 3723SOL    HW212844   8.668   0.612   3.362 -0.5689  0.3185 -0.6283
 3724SOL     OW12845   6.424   1.775   7.591  0.8751 -0.3971 -0.2029
 3724SOL    HW112846   6.348   1.794   7.536  1.4012 -1.5977 -1.3828
 3724SOL    HW212847   6.399   1.809   7.677 -1.8569 -2.4974 -0.0042
 3725SOL     OW12848   5.898   4.986   3.921 -0.1928 -0.0045  0.7506
 3725SOL    HW112849   5.841   5.003   3.995 -1.1507  0.3059 -0.0347
 3725SOL    HW212850   5.887   4.892   3.903  0.4720 -0.2009  1.3421
 3726SOL     OW12851   3.011   1.300   5.474 -0.3052 -1.3616 -0.5912
 3726SOL    HW112852   2.926   1.342   5.467  0.2411  0.0890  0.9360
 3726SOL    HW212853   2.995   1.208   5.451 -2.2679 -1.1120 -0.3308
 3727SOL     OW12854   8.424   1.254   4.703  0.0090 -0.0107  0.5128
 3727SOL    HW112855   8.489   1.312   4.663  0.0971 -0.0627  0.5846
 3727SOL    HW212856   8.340   1.298   4.686  0.2377  1.3427  2.5780
 3728SOL     OW12857   6.080   7.086   8.420  0.0074  0.7921  0.1775
 3728SOL    HW112858   6.070   7.068   8.326 -0.0581 -2.5260  0.6787
 3728SOL    HW212859   6.128   7.168   8.424  1.9242 -0.0146 -2.8327
 3729SOL     OW12860   8.084   3.203   0.285  0.0840 -0.1571 -0.8724
 3729SOL    HW112861   7.997   3.189   0.324  0.2621 -0.0264 -0.4219
 3729SOL    HW212862   8.143   3.207   0.360  0.5384 -0.6521 -1.1970
 3730SOL     OW12863   2.740   4.052   4.613 -0.0705  0.6143 -0.3796
 3730SOL    HW112864   2.780   4.054   4.700 -1.0069 -0.7211  0.1097
 3730SOL    HW212865   2.673   3.984   4.619 -0.6824  1.0456 -1.9227
 3731SOL     OW12866   5.613   0.623   3.719 -0.2280  0.8105 -0.2183
 3731SOL    HW112867   5.550   0.579   3.662  1.3305  0.4930 -1.7815
 3731SOL    HW212868   5.676   0.554   3.741 -0.7472  0.9375  1.9031
 3732SOL     OW12869   6.528   2.805   7.827  0.0135 -0.1921  0.3742
 3732SOL    HW112870   6.579   2.750   7.886  0.5398  1.6129  1.6549
 3732SOL    HW212871   6.442   2.811   7.867  0.2569  0.7261  0.7742
 3733SOL     OW12872   4.850   6.640   7.662 -0.3568  0.3877 -0.2092
 3733SOL    HW112873   4.920   6.685   7.709 -0.8604  3.2603 -1.9856
 3733SOL    HW212874   4.770   6.686   7.688 -1.2852 -1.1882 -0.1526
 3734SOL     OW12875   2.348   1.827   1.945  0.1410  0.2165  0.4671
 3734SOL    HW112876   2.295   1.873   2.011 -0.4620 -0.0483  0.1794
 3734SOL    HW212877   2.289   1.761   1.909  0.4928  0.2905 -0.2668
 3735SOL     OW12878   1.318   2.501   3.258  0.2185 -0.3072  0.4300
 3735SOL    HW112879   1.336   2.578   3.204  0.7583  0.0166  1.0534
 3735SOL    HW212880   1.339   2.426   3.202 -0.0533  0.0041 -0.0913
 3736SOL     OW12881   4.732   8.136   8.040 -0.5956 -0.3342 -0.3805
 3736SOL    HW112882   4.691   8.192   7.974 -0.6306  0.8021  0.5678
 3736SOL    HW212883   4.683   8.154   8.120  0.1565 -0.8388  0.2008
 3737SOL     OW12884   5.277   3.191   8.239  0.0167  0.4452  0.2362
 3737SOL    HW112885   5.204   3.205   8.298  0.6460  1.0462  0.8881
 3737SOL    HW212886   5.325   3.117   8.276 -0.7349 -0.5501 -0.6876
 3738SOL     OW12887   4.294   7.243   0.707  0.0337 -0.7838 -0.7158
 3738SOL    HW112888   4.345   7.242   0.626 -2.0210 -0.9772 -2.0954
 3738SOL    HW212889   4.252   7.329   0.708 -0.0844 -0.8428  0.0692
 3739SOL     OW12890   5.075   1.929   4.244 -0.1583  0.1267  0.7984
 3739SOL    HW112891   5.157   1.934   4.293 -0.0332 -0.6441  0.6841
 3739SOL    HW212892   5.084   1.849   4.191 -0.0938  1.1692 -0.8341
 3740SOL     OW12893   4.183   3.125   6.256 -0.0748 -0.0109  0.1859
 3740SOL    HW112894   4.206   3.194   6.194 -1.4880  0.0199 -0.3279
 3740SOL    HW212895   4.266   3.080   6.274  0.4516  0.3252 -1.2895
 3741SOL     OW12896   2.456   6.971   8.617  0.3234 -0.1771 -0.1802
 3741SOL    HW112897   2.390   7.016   8.670 -0.2475 -1.0863 -0.0802
 3741SOL    HW212898   2.498   7.040   8.566 -0.3305  0.4901  0.1683
 3742SOL     OW12899   7.762   5.839   9.171 -0.2584  0.1738 -0.2808
 3742SOL    HW112900   7.807   5.850   9.087 -1.9467  0.0674 -1.2409
 3742SOL    HW212901   7.741   5.745   9.175 -0.2920  0.2003  0.1964
 3743SOL     OW12902   6.667   3.760   6.107  0.0993  0.1134 -0.3027
 3743SOL    HW112903   6.668   3.856   6.114 -0.4511  0.1350 -0.4815
 3743SOL    HW212904   6.697   3.729   6.192 -1.9177  0.4214  0.5842
 3744SOL     OW12905   6.034   8.843   0.969 -0.3319  0.2611 -0.0501
 3744SOL    HW112906   6.075   8.784   1.032 -0.9960 -0.9460 -0.7257
 3744SOL    HW212907   6.089   8.921   0.971  0.5548 -0.3574  0.8713
 3745SOL     OW12908   7.597   7.892   8.748  0.1028  0.3653 -0.0646
 3745SOL    HW112909   7.560   7.981   8.747 -1.4284 -0.2171 -2.2000
 3745SOL    HW212910   7.526   7.837   8.781  0.5064 -0.2797 -0.2652
 3746SOL     OW12911   4.760   3.432   2.861  0.3910  0.1806  0.0465
 3746SOL    HW112912   4.667   3.447   2.878 -0.4344 -0.3653 -3.2296
 3746SOL    HW212913   4.781   3.352   2.910 -1.0415  0.0021  0.4068
 3747SOL     OW12914   3.757   6.820   5.190  0.4567  0.2314 -0.1728
 3747SOL    HW112915   3.838   6.865   5.215  0.0301  0.6402  0.5138
 3747SOL    HW212916   3.731   6.772   5.268 -0.8819  1.5034  0.2140
 3748SOL     OW12917   3.177   4.696   4.741 -0.6054  0.3980  0.3188
 3748SOL    HW112918   3.267   4.670   4.720 -0.1580  1.5598  0.7588
 3748SOL    HW212919   3.149   4.749   4.667 -0.8467  0.2350  0.2926
 3749SOL     OW12920   0.267   8.016   5.559 -0.0965  0.2412  0.6471
 3749SOL    HW112921   0.295   7.965   5.483 -1.0012 -0.9881  1.1121
 3749SOL    HW212922   0.240   8.101   5.523 -1.0869 -0.5346 -0.4829
 3750SOL     OW12923   2.240   2.312   6.638  0.7496  0.5355  0.3317
 3750SOL    HW112924   2.325   2.299   6.596  1.0779  0.7661  0.9201
 3750SOL    HW212925   2.196   2.378   6.583  0.8003  0.1561 -0.1743
 3751SOL     OW12926   4.147   3.277   8.235 -0.1129  0.3009 -0.1638
 3751SOL    HW112927   4.144   3.191   8.276  0.6384  0.1398 -0.4367
 3751SOL    HW212928   4.226   3.275   8.180 -1.2292  0.4174 -1.8337
 3752SOL     OW12929   1.134   8.666   3.947 -0.0604  0.0251  0.6497
 3752SOL    HW112930   1.042   8.647   3.965 -0.7005  1.7519 -0.5106
 3752SOL    HW212931   1.155   8.616   3.868  0.1252 -0.6510  1.1182
 3753SOL     OW12932   8.174   0.281   8.308  0.1065  0.1481 -0.2827
 3753SOL    HW112933   8.090   0.299   8.265  1.0656  1.2912 -1.8176
 3753SOL    HW212934   8.239   0.318   8.248  1.6169  0.9115  1.7047
 3754SOL     OW12935   6.423   1.779   4.674 -0.8359 -0.2783  0.0705
 3754SOL    HW112936   6.376   1.705   4.712  0.6083 -0.9868  0.5605
 3754SOL    HW212937   6.383   1.856   4.715  0.1764 -0.9778  2.5870
 3755SOL     OW12938   2.897   8.898   0.121  0.2453  0.1470  0.3764
 3755SOL    HW112939   2.945   8.817   0.130  0.2636  0.0341 -0.5969
 3755SOL    HW212940   2.805   8.872   0.122  0.2406 -0.2621 -2.5922
 3756SOL     OW12941   8.238   6.888   8.469 -0.1839 -0.0918  0.2367
 3756SOL    HW112942   8.235   6.849   8.557 -0.2802  2.0201  1.2444
 3756SOL    HW212943   8.172   6.840   8.420  0.7444 -2.1933  0.8857
 3757SOL     OW12944   7.048   8.351   5.311 -0.2083 -0.2213 -1.1713
 3757SOL    HW112945   6.959   8.372   5.338  0.1022 -0.3050  0.0088
 3757SOL    HW212946   7.099   8.356   5.392  0.5369 -1.9079 -1.4917
 3758SOL     OW12947   3.413   0.215   7.127  0.3579  0.0664 -0.2990
 3758SOL    HW112948   3.439   0.299   7.089  0.9988  0.8270  1.6887
 3758SOL    HW212949   3.389   0.235   7.217  1.3004 -1.9979  0.4848
 3759SOL     OW12950   1.481   1.837   6.614  0.6224  0.1678 -0.1431
 3759SOL    HW112951   1.542   1.900   6.652  0.8682 -0.2384  0.1531
 3759SOL    HW212952   1.482   1.763   6.676 -0.8049  0.5004  0.3033
 3760SOL     OW12953   8.713   8.103   5.012  0.5588  0.3003 -0.0015
 3760SOL    HW112954   8.717   8.034   5.078  0.2503 -1.0330 -1.3352
 3760SOL    HW212955   8.619   8.118   4.997  0.5673 -1.1593 -1.8560
 3761SOL     OW12956   4.717   2.996   0.641 -0.1573  0.1924 -1.0329
 3761SOL    HW112957   4.810   2.985   0.624  0.2734  1.3483  0.4032
 3761SOL    HW212958   4.678   2.912   0.616  1.1985 -0.1831 -1.9903
 3762SOL     OW12959   9.477   5.505   0.854  0.1429 -0.1477 -0.8962
 3762SOL    HW112960   9.442   5.587   0.820  1.6730  1.1102  0.4026
 3762SOL    HW212961   9.408   5.472   0.912  0.1540  1.1151 -0.1209
 3763SOL     OW12962   9.023   2.592   6.454 -0.0742 -0.6075 -0.0839
 3763SOL    HW112963   8.973   2.655   6.402 -0.9016 -0.7645  0.5047
 3763SOL    HW212964   9.050   2.640   6.532 -1.9700 -1.3257  1.0876
 3764SOL     OW12965   4.789   0.619   2.879 -0.1372 -0.7275  0.0794
 3764SOL    HW112966   4.848   0.631   2.953 -1.0239 -0.4270  0.7612
 3764SOL    HW212967   4.703   0.646   2.913 -0.9016 -2.2941 -0.4934
 3765SOL     OW12968   1.834   1.894   0.639  0.0832  0.0618  0.1290
 3765SOL    HW112969   1.841   1.898   0.734  0.0801 -1.0142  0.1827
 3765SOL    HW212970   1.799   1.807   0.620 -1.6802  0.9122 -0.7772
 3766SOL     OW12971   4.064   0.178   8.948  0.1704  0.3062 -0.4157
 3766SOL    HW112972   4.086   0.239   8.878  0.3458  0.6365 -0.0772
 3766SOL    HW212973   4.024   0.103   8.904 -0.2120  0.7478 -0.8169
 3767SOL     OW12974   4.143   7.219   3.557  0.1099 -0.0594 -0.0138
 3767SOL    HW112975   4.175   7.136   3.592 -2.0815 -1.5365 -1.2582
 3767SOL    HW212976   4.213   7.250   3.499  2.1961  0.5455  2.6622
 3768SOL     OW12977   6.087   3.485   5.915 -0.9499 -0.2452 -0.0915
 3768SOL    HW112978   6.061   3.568   5.954  0.4025  0.7656 -1.2277
 3768SOL    HW212979   6.180   3.497   5.893 -1.6804 -0.5349 -3.9965
 3769SOL     OW12980   0.441   7.323   6.044 -0.2131 -1.0374 -0.0615
 3769SOL    HW112981   0.367   7.377   6.073  1.2152  2.6155 -2.4452
 3769SOL    HW212982   0.401   7.243   6.010 -2.6770 -0.7786  1.9445
 3770SOL     OW12983   3.720   7.847   1.630 -0.5243  0.1477 -0.3507
 3770SOL    HW112984   3.773   7.911   1.583 -0.0698  0.2233  0.2511
 3770SOL    HW212985   3.782   7.802   1.687 -0.9941 -0.2215 -0.1264
 3771SOL     OW12986   9.079   1.798   3.483 -0.4571  0.2736 -0.6539
 3771SOL    HW112987   9.007   1.856   3.507 -0.1783  0.2725  0.2388
 3771SOL    HW212988   9.093   1.744   3.561  0.2317 -0.0066 -0.9648
 3772SOL     OW12989   1.477   8.621   7.087  0.1223 -0.3236 -0.3174
 3772SOL    HW112990   1.555   8.645   7.138  1.1950  0.7356 -2.3170
 3772SOL    HW212991   1.414   8.592   7.152  1.7686 -0.0561  1.5027
 3773SOL     OW12992   3.174   4.068   3.211  0.2592 -0.3375  0.0605
 3773SOL    HW112993   3.086   4.034   3.228  0.5529 -0.5322  1.3311
 3773SOL    HW212994   3.230   4.019   3.272  1.2039 -0.0130 -0.5332
 3774SOL     OW12995   2.094   9.277   5.304  0.4250 -0.4391  0.1131
 3774SOL    HW112996   2.096   9.189   5.266  0.7274  0.0735 -1.0911
 3774SOL    HW212997   2.010   9.281   5.349 -0.6381 -0.5892 -1.7510
 3775SOL     OW12998   6.068   3.999   4.985 -0.1561  0.0933 -0.1150
 3775SOL    HW112999   6.152   4.038   4.959 -1.2512  1.4213 -1.8573
 3775SOL    HW213000   6.043   4.046   5.064  0.2229  0.4661 -0.2122
 3776SOL     OW13001   3.129   8.293   7.915 -0.3050 -0.2255 -0.0106
 3776SOL    HW113002   3.076   8.353   7.863  1.5006  0.4386 -1.1857
 3776SOL    HW213003   3.130   8.332   8.003 -1.7123 -0.2703  0.0576
 3777SOL     OW13004   7.348   4.703   2.226  0.0933 -0.0037  0.2822
 3777SOL    HW113005   7.378   4.793   2.217 -0.6509  0.2529  0.2568
 3777SOL    HW213006   7.252   4.710   2.226  0.0106 -0.8898 -0.7480
 3778SOL     OW13007   4.327   0.539   2.772 -0.0929 -0.6360 -0.0657
 3778SOL    HW113008   4.349   0.465   2.716  0.6941 -0.1186 -0.4574
 3778SOL    HW213009   4.405   0.595   2.769  0.2672 -0.9353  2.0917
 3779SOL     OW13010   9.022   5.440   2.123 -0.6596 -0.5679 -0.2625
 3779SOL    HW113011   8.978   5.421   2.206 -2.1554  0.1877 -0.8568
 3779SOL    HW213012   9.009   5.361   2.070  0.7877 -1.2819  0.3737
 3780SOL     OW13013   1.956   6.576   6.755 -0.3914 -0.4368 -0.1626
 3780SOL    HW113014   1.887   6.597   6.817 -0.3005  2.5558 -0.9547
 3780SOL    HW213015   1.910   6.557   6.673 -0.3448 -0.1758 -0.2495
 3781SOL     OW13016   8.531   4.252   1.265  0.4177  0.0474  0.2389
 3781SOL    HW113017   8.538   4.158   1.283  0.1238  0.1331  0.8109
 3781SOL    HW213018   8.547   4.259   1.171 -1.5706 -0.8322 -0.2236
 3782SOL     OW13019   0.944   0.104   2.877  0.6480 -0.0398 -0.3151
 3782SOL    HW113020   0.862   0.099   2.928  0.2432 -0.9215 -1.0361
 3782SOL    HW213021   0.974   0.194   2.890 -1.8148  1.1491 -2.1188
 3783SOL     OW13022   4.208   4.802   1.235  0.2492  0.2606 -0.4356
 3783SOL    HW113023   4.225   4.711   1.260 -0.2706 -0.0858 -1.2957
 3783SOL    HW213024   4.154   4.837   1.306 -1.8248 -0.9220 -1.3549
 3784SOL     OW13025   1.974   2.826   5.944  0.3243 -0.1472  0.0953
 3784SOL    HW113026   1.945   2.860   5.860  2.3612 -2.6696 -1.8024
 3784SOL    HW213027   2.021   2.900   5.985  0.6484  0.7021 -1.7084
 3785SOL     OW13028   5.848   6.927   2.810 -0.0580  0.2587 -0.3752
 3785SOL    HW113029   5.844   6.945   2.716 -0.4223  0.1017 -0.3911
 3785SOL    HW213030   5.901   6.999   2.846 -0.3153  0.5846 -0.6339
 3786SOL     OW13031   9.530   7.736   7.652 -0.3855  0.0165 -0.5006
 3786SOL    HW113032   9.461   7.682   7.613 -2.2160  1.0898  1.1193
 3786SOL    HW213033   9.558   7.794   7.581 -0.6318 -0.8964 -1.3711
 3787SOL     OW13034   1.149   1.053   8.102  0.1468 -0.9014  0.0383
 3787SOL    HW113035   1.119   1.071   8.013 -1.8412  0.3041  0.8732
 3787SOL    HW213036   1.076   1.006   8.143  0.5207 -0.3587  1.3811
 3788SOL     OW13037   5.501   4.418   0.194 -0.0290  0.5063  0.5060
 3788SOL    HW113038   5.585   4.424   0.149 -0.5731  0.7933 -0.5011
 3788SOL    HW213039   5.496   4.497   0.247  1.2134 -0.4757  2.1730
 3789SOL     OW13040   2.485   1.708   6.756  0.2580 -0.0049 -0.9968
 3789SOL    HW113041   2.482   1.710   6.851  0.1921  1.2643 -1.0005
 3789SOL    HW213042   2.422   1.641   6.730 -1.8618  1.5571 -0.1996
 3790SOL     OW13043   5.939   0.744   5.422 -0.5098  0.3902  0.0190
 3790SOL    HW113044   6.029   0.773   5.434 -0.0176 -0.7670 -0.7009
 3790SOL    HW213045   5.890   0.824   5.404  0.1760  1.1538  1.3957
 3791SOL     OW13046   8.121   0.847   3.762 -0.3403  0.5579  0.1464
 3791SOL    HW113047   8.200   0.827   3.712 -1.7372 -1.1685 -1.5291
 3791SOL    HW213048   8.154   0.879   3.846  2.1518 -0.7899 -0.2111
 3792SOL     OW13049   0.539   3.641   5.161  0.3105 -0.4806  0.0512
 3792SOL    HW113050   0.450   3.611   5.176 -0.2574  0.4410 -1.2707
 3792SOL    HW213051   0.571   3.586   5.088  0.2019  0.3094 -0.6092
 3793SOL     OW13052   0.869   8.149   5.339  0.1153 -0.1096 -0.1490
 3793SOL    HW113053   0.824   8.221   5.296  0.1585 -0.2926 -0.5015
 3793SOL    HW213054   0.800   8.102   5.386  0.1553  0.4218  0.4577
 3794SOL     OW13055   7.863   8.161   2.302 -0.6621 -0.5122  0.0142
 3794SOL    HW113056   7.808   8.155   2.224 -0.6502  2.5359 -0.3676
 3794SOL    HW213057   7.815   8.220   2.360  0.5401 -0.6619  1.2112
 3795SOL     OW13058   1.469   1.248   4.767 -0.6161  0.0832  0.5759
 3795SOL    HW113059   1.470   1.229   4.673  1.2270 -0.0173  0.5720
 3795SOL    HW213060   1.553   1.290   4.783 -1.0929  0.4884  2.1159
 3796SOL     OW13061   7.826   8.485   0.216  0.0791 -0.5850 -0.2274
 3796SOL    HW113062   7.765   8.415   0.194  1.0357 -1.0194 -1.6305
 3796SOL    HW213063   7.876   8.451   0.290 -0.6664 -0.6403  0.2605
 3797SOL     OW13064   5.402   9.155   2.089  0.2656 -0.2067 -0.1023
 3797SOL    HW113065   5.472   9.112   2.039  0.8979 -0.7441  1.1648
 3797SOL    HW213066   5.336   9.087   2.101 -0.1009  0.0610 -0.6185
 3798SOL     OW13067   0.992   1.988   2.495 -0.1002 -1.0003 -0.1157
 3798SOL    HW113068   1.035   1.903   2.488 -1.3368 -1.6828  0.3013
 3798SOL    HW213069   0.900   1.970   2.477 -0.5853  0.0377  1.1789
 3799SOL     OW13070   0.711   6.323   1.024 -0.4974 -0.6540  0.1541
 3799SOL    HW113071   0.782   6.262   1.041  0.8842  0.6020 -0.8642
 3799SOL    HW213072   0.703   6.374   1.105  2.0810  1.3878 -0.7140
 3800SOL     OW13073   2.452   2.112   0.864  0.4119 -0.2468  0.4169
 3800SOL    HW113074   2.452   2.207   0.862 -0.9431 -0.2212 -0.5525
 3800SOL    HW213075   2.405   2.087   0.784  2.1862 -1.7748 -0.2269
 3801SOL     OW13076   0.826   8.749   7.354 -0.4960  0.1619  0.3417
 3801SOL    HW113077   0.773   8.796   7.289  0.8044 -0.4386 -1.2293
 3801SOL    HW213078   0.768   8.680   7.386 -0.9902  0.1200 -0.6039
 3802SOL     OW13079   1.951   4.222   5.190 -0.1105  0.4509 -0.1012
 3802SOL    HW113080   1.928   4.139   5.149  1.8153  0.4419 -1.2695
 3802SOL    HW213081   1.942   4.287   5.120  2.1473  0.6040 -0.3214
 3803SOL     OW13082   2.235   8.332   0.634  0.0298  0.3658  0.3984
 3803SOL    HW113083   2.236   8.240   0.607  2.8476  0.7689 -1.3102
 3803SOL    HW213084   2.226   8.329   0.729  1.7231 -1.8110  0.5680
 3804SOL     OW13085   5.136   2.242   9.444  0.2512 -0.1242 -0.1021
 3804SOL    HW113086   5.041   2.249   9.446  0.1189 -1.3433 -0.9388
 3804SOL    HW213087   5.153   2.154   9.409  1.6650 -0.5842  1.5604
 3805SOL     OW13088   5.588   4.406   5.328 -0.0306  0.5135  0.3907
 3805SOL    HW113089   5.567   4.333   5.270  0.9627  1.4583 -1.2304
 3805SOL    HW213090   5.603   4.365   5.413 -1.3009 -0.9391 -0.0336
 3806SOL     OW13091   8.256   9.615   2.343  0.5612 -0.1096  0.3180
 3806SOL    HW113092   8.333   9.588   2.294 -0.1543  0.6822 -1.3287
 3806SOL    HW213093   8.225   9.693   2.297 -1.4908 -0.6857  0.6355
 3807SOL     OW13094   1.099   1.548   6.060  0.7667 -0.2461 -0.2452
 3807SOL    HW113095   1.072   1.541   5.969  1.7529  1.4692 -0.7073
 3807SOL    HW213096   1.191   1.573   6.056  1.1189 -1.1674  1.2482
 3808SOL     OW13097   8.852   6.344   1.702 -0.3724 -0.2079 -0.2263
 3808SOL    HW113098   8.933   6.394   1.691  0.2215 -1.2855 -0.8639
 3808SOL    HW213099   8.784   6.399   1.663  0.3595 -0.1499 -1.4570
 3809SOL     OW13100   2.271   4.609   3.845  0.6429  0.4618 -0.3942
 3809SOL    HW113101   2.224   4.588   3.764 -0.0349 -0.7294  0.2903
 3809SOL    HW213102   2.343   4.547   3.849 -0.8393 -1.2621  1.1819
 3810SOL     OW13103   8.617   5.496   7.416  0.2544  0.0635  0.5161
 3810SOL    HW113104   8.635   5.590   7.419 -0.3712  0.1765  1.9407
 3810SOL    HW213105   8.522   5.490   7.416  0.2441 -0.5382  2.1963
 3811SOL     OW13106   2.105   3.255   8.181 -0.0578 -0.2059  0.2193
 3811SOL    HW113107   2.014   3.235   8.199 -0.7782  1.0836 -1.7200
 3811SOL    HW213108   2.125   3.209   8.100  0.3860  1.1069 -0.4472
 3812SOL     OW13109   7.305   3.530   0.221 -0.0096  0.3924  0.4973
 3812SOL    HW113110   7.249   3.498   0.150  0.4530 -0.7317  0.6099
 3812SOL    HW213111   7.346   3.609   0.186 -1.1741  0.8875  0.1881
 3813SOL     OW13112   7.220   2.477   8.976  0.1122 -0.0036 -0.0985
 3813SOL    HW113113   7.125   2.479   8.989  0.1069 -1.2226  0.1838
 3813SOL    HW213114   7.257   2.472   9.064  0.3603 -0.9547 -0.2377
 3814SOL     OW13115   7.724   7.529   8.299  0.3574  0.5004 -0.6067
 3814SOL    HW113116   7.698   7.611   8.341 -2.0702 -0.8722  0.7428
 3814SOL    HW213117   7.819   7.535   8.293  0.2102  4.0403 -1.9561
 3815SOL     OW13118   4.213   8.347   6.740  0.0438 -0.2397 -0.0519
 3815SOL    HW113119   4.301   8.383   6.730 -0.4587  1.0848  0.1765
 3815SOL    HW213120   4.174   8.398   6.810 -0.5418 -1.5770  0.6360
 3816SOL     OW13121   6.528   6.721   7.258 -0.1084 -0.4776 -0.2610
 3816SOL    HW113122   6.444   6.693   7.294 -1.6168  0.0468 -3.0607
 3816SOL    HW213123   6.550   6.801   7.305 -0.7701 -1.0318  1.0320
 3817SOL     OW13124   9.206   1.151   5.062  0.3004  0.2098 -0.5905
 3817SOL    HW113125   9.165   1.210   4.998  1.2860  1.8235  0.2059
 3817SOL    HW213126   9.145   1.150   5.136  0.7994  1.1339 -0.1564
 3818SOL     OW13127   2.746   0.300   5.994 -0.0411  0.4303  0.2052
 3818SOL    HW113128   2.702   0.334   5.916  0.7361  0.9047 -0.0449
 3818SOL    HW213129   2.837   0.288   5.967 -0.0870 -0.9615  0.5786
 3819SOL     OW13130   0.202   7.741   4.729 -0.6169 -0.1093  0.0654
 3819SOL    HW113131   0.189   7.836   4.721  0.8898  0.0570 -0.8027
 3819SOL    HW213132   0.284   7.724   4.682 -0.8571 -1.8494  0.2149
 3820SOL     OW13133   6.842   8.773   2.865  0.4079 -0.4214  0.1681
 3820SOL    HW113134   6.881   8.743   2.947  2.1163 -0.8223 -0.7473
 3820SOL    HW213135   6.851   8.868   2.868  2.3024 -0.5486 -0.3827
 3821SOL     OW13136   6.440   5.093   5.401 -0.2046  0.2928 -0.1372
 3821SOL    HW113137   6.459   5.041   5.479 -1.4025  0.9761  0.6364
 3821SOL    HW213138   6.385   5.165   5.432 -1.2953  0.1936 -1.7162
 3822SOL     OW13139   8.707   9.637   8.267  0.2665  0.2298 -0.4669
 3822SOL    HW113140   8.699   9.663   8.358  0.2277  2.2258 -1.0022
 3822SOL    HW213141   8.633   9.578   8.252  0.7414 -0.7867  0.9670
 3823SOL     OW13142   3.026   5.505   3.635 -0.1637 -0.0288 -0.2373
 3823SOL    HW113143   3.119   5.490   3.653  0.0971  2.5756  0.9843
 3823SOL    HW213144   3.012   5.597   3.656 -2.5458  0.2550 -2.5640
 3824SOL     OW13145   1.307   9.231   2.042 -0.2292 -0.5040  0.6216
 3824SOL    HW113146   1.270   9.298   2.099 -1.3449 -1.2228  0.7687
 3824SOL    HW213147   1.333   9.161   2.101  0.5747 -0.3737  0.4315
 3825SOL     OW13148   6.095   4.682   6.110 -0.0794 -0.6684  0.3543
 3825SOL    HW113149   6.172   4.716   6.062  1.0867  0.4460  2.8272
 3825SOL    HW213150   6.118   4.592   6.131  0.7778 -0.2281  1.4082
 3826SOL     OW13151   8.717   6.400   5.687  0.9401 -0.2210 -0.2502
 3826SOL    HW113152   8.713   6.304   5.687  1.0265 -0.2698 -2.1410
 3826SOL    HW213153   8.658   6.426   5.616  0.8578  1.1383  0.2922
 3827SOL     OW13154   7.636   1.441   4.089 -0.3327  0.4010  0.7938
 3827SOL    HW113155   7.629   1.523   4.040 -2.1581  0.2491  0.7508
 3827SOL    HW213156   7.563   1.443   4.150  0.5266 -0.4998  1.8895
 3828SOL     OW13157   1.690   1.968   7.233  0.0983  0.5755  0.4676
 3828SOL    HW113158   1.657   1.898   7.177  0.1768  1.2018 -0.3809
 3828SOL    HW213159   1.629   1.970   7.307  0.0039 -0.2741  0.4282
 3829SOL     OW13160   3.117   4.180   9.605 -0.2133 -0.2549 -0.3095
 3829SOL    HW113161   3.098   4.104   9.551 -0.8245 -0.3258 -0.0063
 3829SOL    HW213162   3.140   4.143   9.691 -1.2439 -0.0952  0.0568
 3830SOL     OW13163   0.972   5.658   6.446 -0.2265 -0.1949 -0.1243
 3830SOL    HW113164   1.036   5.645   6.375  0.1502 -0.0951  0.1970
 3830SOL    HW213165   0.939   5.570   6.464 -1.9423  0.0163 -1.9112
 3831SOL     OW13166   9.231   6.389   3.776  0.0247  0.0015 -0.1504
 3831SOL    HW113167   9.245   6.482   3.758 -1.7188  0.1121 -1.1536
 3831SOL    HW213168   9.164   6.387   3.843 -0.7625 -0.5227 -0.9327
 3832SOL     OW13169   4.484   1.208   2.569 -0.0113 -0.1712 -0.2350
 3832SOL    HW113170   4.522   1.287   2.608 -1.8093  0.8403 -0.4387
 3832SOL    HW213171   4.478   1.146   2.642  0.0833  0.3913  0.2570
 3833SOL     OW13172   4.856   1.889   7.701  0.4566  0.0674 -0.1410
 3833SOL    HW113173   4.866   1.802   7.741  0.5258 -0.1297 -0.5817
 3833SOL    HW213174   4.945   1.920   7.688  0.4534 -0.2022 -0.8534
 3834SOL     OW13175   2.366   2.277   2.638 -0.2687 -0.0236  0.4606
 3834SOL    HW113176   2.289   2.321   2.674 -1.1607  0.5072 -1.9214
 3834SOL    HW213177   2.439   2.307   2.692 -1.2566  2.1905  0.6481
 3835SOL     OW13178   7.989   1.960   8.372 -0.1659  0.0385 -0.3516
 3835SOL    HW113179   7.988   1.948   8.467  0.6693 -0.4650 -0.3878
 3835SOL    HW213180   7.952   2.047   8.357 -0.9840 -0.1741  0.3782
 3836SOL     OW13181   5.511   1.680   5.101  0.3671 -0.0833 -0.2039
 3836SOL    HW113182   5.501   1.696   5.195  1.6222  0.5343 -0.1568
 3836SOL    HW213183   5.502   1.767   5.062  0.7898 -0.2061 -0.5677
 3837SOL     OW13184   6.348   4.686   5.588  0.5595 -0.7230 -0.2772
 3837SOL    HW113185   6.365   4.728   5.503  1.0201  0.1857  0.2523
 3837SOL    HW213186   6.361   4.756   5.652 -1.4996 -0.9320  0.4442
 3838SOL     OW13187   9.173   7.793   9.416  0.0215 -0.0455 -0.1243
 3838SOL    HW113188   9.186   7.872   9.364 -0.2067 -0.0020 -0.1162
 3838SOL    HW213189   9.261   7.757   9.427  0.1196  0.1774 -0.1733
 3839SOL     OW13190   5.494   4.721   9.227  0.7950 -0.1200 -0.2463
 3839SOL    HW113191   5.480   4.675   9.144  0.3455 -1.6655  0.6413
 3839SOL    HW213192   5.538   4.657   9.283  0.9250  0.8283  0.7737
 3840SOL     OW13193   9.284   3.531   2.064  0.3471 -0.3833  0.1539
 3840SOL    HW113194   9.371   3.490   2.066  0.6202  0.2314  1.2969
 3840SOL    HW213195   9.230   3.475   2.120  0.2852 -0.1289  0.3467
 3841SOL     OW13196   7.919   4.757   1.885 -0.6147 -0.1224  0.3412
 3841SOL    HW113197   7.961   4.700   1.820 -0.2921  1.7746 -1.2167
 3841SOL    HW213198   7.980   4.758   1.959  0.2595 -0.3992 -0.3498
 3842SOL     OW13199   1.519   7.825   8.414 -0.1092  0.4310  0.4713
 3842SOL    HW113200   1.606   7.802   8.448 -0.0537 -0.1452 -0.0368
 3842SOL    HW213201   1.494   7.750   8.360 -1.5874 -0.0721  1.8089
 3843SOL     OW13202   2.369   8.586   6.013  0.3847  0.7473  0.2948
 3843SOL    HW113203   2.432   8.576   6.084  1.2407 -0.4183 -0.5827
 3843SOL    HW213204   2.337   8.497   5.997 -1.3235  1.2938  0.5658
 3844SOL     OW13205   7.565   6.454   1.477 -0.0484 -0.8944  0.0040
 3844SOL    HW113206   7.626   6.511   1.524 -1.2920  1.0595 -0.6119
 3844SOL    HW213207   7.599   6.452   1.388 -0.7788  0.1492 -0.3259
 3845SOL     OW13208   9.484   1.621   4.752 -0.2880  0.1509  0.0917
 3845SOL    HW113209   9.545   1.553   4.779 -0.9499 -0.0895  1.0582
 3845SOL    HW213210   9.502   1.695   4.811  0.5833  0.9235 -1.0977
 3846SOL     OW13211   7.118   4.860   6.578 -0.2932 -0.2767 -0.1935
 3846SOL    HW113212   7.128   4.924   6.507 -0.6125 -0.8199 -0.7264
 3846SOL    HW213213   7.174   4.787   6.553  0.6684  0.0798  0.7819
 3847SOL     OW13214   1.321   3.393   3.599 -0.5292 -0.1814 -0.2476
 3847SOL    HW113215   1.245   3.440   3.564 -0.5837 -1.1329 -1.4636
 3847SOL    HW213216   1.349   3.337   3.528  1.9307  0.8418 -0.1672
 3848SOL     OW13217   6.561   5.090   7.218  0.5793 -0.1357  0.1125
 3848SOL    HW113218   6.490   5.127   7.166 -0.5649 -1.6179  0.5517
 3848SOL    HW213219   6.545   5.123   7.306  0.1420 -0.8566  0.3064
 3849SOL     OW13220   4.257   0.079   8.040 -0.1365  0.0066 -0.5705
 3849SOL    HW113221   4.248   0.001   8.096  2.0595  0.4605  0.5294
 3849SOL    HW213222   4.219   0.150   8.093 -2.5569 -0.2916 -1.7571
 3850SOL     OW13223   0.775   4.873   7.140  0.1201 -0.6325  0.2589
 3850SOL    HW113224   0.868   4.872   7.118 -0.0235 -0.6829 -0.3781
 3850SOL    HW213225   0.773   4.890   7.234  0.7948 -1.4980  0.4450
 3851SOL     OW13226   6.128   0.567   7.198  0.4727 -0.4306 -0.0148
 3851SOL    HW113227   6.119   0.630   7.126  1.1931  0.8001  0.9298
 3851SOL    HW213228   6.071   0.494   7.173  0.0647  0.3239 -1.4257
 3852SOL     OW13229   1.428   2.162   4.938 -0.2298  0.6875  0.1071
 3852SOL    HW113230   1.363   2.093   4.936 -0.3125  0.7546  0.4936
 3852SOL    HW213231   1.489   2.137   5.008  1.3712 -0.4698 -1.5872
 3853SOL     OW13232   1.122   8.595   1.654  0.4894  0.0288  0.1383
 3853SOL    HW113233   1.057   8.608   1.585 -0.2594 -1.3726  0.5481
 3853SOL    HW213234   1.090   8.648   1.727 -0.8066 -1.4384  0.6967
 3854SOL     OW13235   9.027   8.718   4.079  0.5438 -0.3984 -0.2798
 3854SOL    HW113236   9.112   8.724   4.036  0.1666  1.4247 -0.8556
 3854SOL    HW213237   8.976   8.789   4.041 -0.2963  0.3627  2.1035
 3855SOL     OW13238   0.499   4.564   2.141 -0.0308  0.2341  0.1159
 3855SOL    HW113239   0.476   4.526   2.056  0.1418 -0.1175  0.2253
 3855SOL    HW213240   0.585   4.529   2.160  0.7745  1.8172 -0.4531
 3856SOL     OW13241   4.589   1.973   5.425  0.0254  0.5142  0.0598
 3856SOL    HW113242   4.631   2.017   5.351 -0.5619 -1.7555 -1.7557
 3856SOL    HW213243   4.514   2.028   5.446  0.7414  1.6975 -0.3999
 3857SOL     OW13244   0.161   0.168   8.784  0.3813  1.1370 -0.1428
 3857SOL    HW113245   0.175   0.257   8.818  0.2729  1.4205 -0.8104
 3857SOL    HW213246   0.123   0.120   8.857  0.9290  1.4964  0.3898
 3858SOL     OW13247   7.430   8.258   2.843  0.1658 -0.1881  0.5799
 3858SOL    HW113248   7.421   8.307   2.924  1.1508  1.8102 -0.4437
 3858SOL    HW213249   7.503   8.198   2.859 -0.6134 -0.8855  1.6272
 3859SOL     OW13250   1.301   1.862   1.787 -0.1953  0.2481  0.0679
 3859SOL    HW113251   1.244   1.862   1.710  0.0227  0.1369 -0.0935
 3859SOL    HW213252   1.245   1.896   1.858 -0.1269  1.2336 -0.3365
 3860SOL     OW13253   5.960   6.989   1.921  0.1183 -0.2747 -0.1029
 3860SOL    HW113254   6.004   7.072   1.942  0.3969  0.1770 -2.2919
 3860SOL    HW213255   5.871   7.015   1.899 -0.6046 -0.9176  1.8278
 3861SOL     OW13256   3.724   0.692   5.839 -0.6886  0.5732  0.0183
 3861SOL    HW113257   3.708   0.634   5.765  0.4981  0.2945 -0.0391
 3861SOL    HW213258   3.814   0.723   5.827 -0.6065  0.8237  1.1245
 3862SOL     OW13259   9.089   8.256   0.281  0.2609 -0.9660  0.2864
 3862SOL    HW113260   9.048   8.241   0.195 -0.3073  2.0648 -0.0831
 3862SOL    HW213261   9.138   8.338   0.270  3.5254 -2.5295  1.7792
 3863SOL     OW13262   0.611   6.122   5.498  0.0703  0.1399  0.8579
 3863SOL    HW113263   0.534   6.176   5.516 -0.3008 -0.1094  0.0529
 3863SOL    HW213264   0.679   6.158   5.555 -0.5926  0.4642  1.4687
 3864SOL     OW13265   2.479   2.738   3.056  0.1225  0.5908 -0.7107
 3864SOL    HW113266   2.460   2.713   3.146 -0.2937 -0.4607 -1.0840
 3864SOL    HW213267   2.543   2.809   3.064  0.6242  0.0392  0.3894
 3865SOL     OW13268   9.106   8.855   4.347  0.0251  0.5549  0.6194
 3865SOL    HW113269   9.114   8.761   4.358 -0.0886  0.3008 -1.2795
 3865SOL    HW213270   9.194   8.884   4.323 -0.1677  0.7718  0.1656
 3866SOL     OW13271   2.849   2.979   4.823  0.7559 -0.5975 -0.2550
 3866SOL    HW113272   2.801   2.995   4.742 -0.4713 -0.1055  0.5519
 3866SOL    HW213273   2.911   3.052   4.829 -1.0252  0.9267  0.5953
 3867SOL     OW13274   2.671   6.905   6.015 -0.0903 -0.1119  0.2893
 3867SOL    HW113275   2.578   6.899   5.993 -0.0344 -0.2638  0.0882
 3867SOL    HW213276   2.706   6.969   5.953  0.1963 -1.0151 -0.5179
 3868SOL     OW13277   5.756   8.452   8.392  0.6525 -0.5395  0.3094
 3868SOL    HW113278   5.780   8.415   8.307  1.2848 -1.3554  0.8169
 3868SOL    HW213279   5.731   8.376   8.445  2.7500 -0.3970  1.6372
 3869SOL     OW13280   7.215   0.168   8.160 -0.0613  0.0573  0.1908
 3869SOL    HW113281   7.141   0.164   8.100  1.1862 -0.4302 -1.3886
 3869SOL    HW213282   7.233   0.262   8.169 -1.3739  0.2250  1.2713
 3870SOL     OW13283   1.362   4.392   2.383  0.0046 -0.3105  0.4360
 3870SOL    HW113284   1.375   4.481   2.350  2.6696 -0.5283  0.6619
 3870SOL    HW213285   1.431   4.341   2.341 -0.9157 -2.0924  0.9979
 3871SOL     OW13286   7.702   3.569   4.947  0.1688  0.1708 -0.1421
 3871SOL    HW113287   7.765   3.544   4.879 -2.5428  1.8235 -3.5627
 3871SOL    HW213288   7.685   3.487   4.994  2.6325 -0.9234 -0.9432
 3872SOL     OW13289   7.615   8.504   7.216  0.5509  0.1032 -0.2422
 3872SOL    HW113290   7.570   8.559   7.279  1.5035 -0.2744  0.7889
 3872SOL    HW213291   7.597   8.414   7.244  1.5671 -0.0597 -0.0680
 3873SOL     OW13292   3.359   1.992   9.457  0.4042 -0.4342 -0.2476
 3873SOL    HW113293   3.385   2.069   9.406 -0.0389 -1.2549 -1.8018
 3873SOL    HW213294   3.441   1.950   9.481  0.7462  1.4332  2.2184
 3874SOL     OW13295   6.708   2.553   9.306  0.4541  0.2120  0.1542
 3874SOL    HW113296   6.621   2.537   9.343  0.3553  0.2416 -0.0680
 3874SOL    HW213297   6.759   2.475   9.330 -0.6341 -1.5558 -2.8024
 3875SOL     OW13298   6.565   2.077   7.561  0.2861  0.4003  0.1642
 3875SOL    HW113299   6.497   2.125   7.609 -2.3587 -1.9792 -0.8632
 3875SOL    HW213300   6.605   2.020   7.627 -1.7376 -1.1968  0.1167
 3876SOL     OW13301   4.665   2.300   9.373  0.1706  0.5950 -0.2377
 3876SOL    HW113302   4.659   2.390   9.408  0.2111  0.6292 -0.3196
 3876SOL    HW213303   4.758   2.286   9.359  0.3292 -0.0212  1.2550
 3877SOL     OW13304   3.552   6.697   9.631 -0.0894  0.3548  0.2448
 3877SOL    HW113305   3.495   6.620   9.638 -1.0701  1.0127 -0.2875
 3877SOL    HW213306   3.522   6.755   9.701  0.1598  0.5565  0.1823
 3878SOL     OW13307   6.792   1.429   0.010 -0.2249 -0.1658 -0.2506
 3878SOL    HW113308   6.880   1.409   0.041  0.1437 -1.8939 -2.1740
 3878SOL    HW213309   6.749   1.344   0.003 -1.1580  0.3891 -1.8208
 3879SOL     OW13310   4.071   6.874   2.864  0.8001 -0.1409  0.2720
 3879SOL    HW113311   4.105   6.789   2.837 -0.2127 -0.3519 -0.4114
 3879SOL    HW213312   3.985   6.879   2.822 -0.1679  0.2121  2.1792
 3880SOL     OW13313   1.219   8.546   4.182  0.5057 -0.0971 -0.3673
 3880SOL    HW113314   1.176   8.461   4.170  1.5788 -0.6540 -0.4070
 3880SOL    HW213315   1.186   8.600   4.111  0.4468 -0.7577 -0.8554
 3881SOL     OW13316   3.164   7.940   2.006 -0.4207  0.4023  0.0122
 3881SOL    HW113317   3.208   7.895   2.079 -2.9490 -0.3060  1.2112
 3881SOL    HW213318   3.234   7.956   1.943  1.3624 -1.5988  1.3053
 3882SOL     OW13319   5.833   9.254   4.531  0.4255 -0.3717 -0.4069
 3882SOL    HW113320   5.813   9.243   4.438 -1.1952 -0.9417 -0.0306
 3882SOL    HW213321   5.748   9.269   4.572  0.8855 -1.8969  1.2149
 3883SOL     OW13322   7.304   9.260   0.811 -0.1472 -0.1365 -0.0933
 3883SOL    HW113323   7.279   9.306   0.731  0.2993 -0.5037 -0.4501
 3883SOL    HW213324   7.259   9.307   0.881 -0.6117  0.1333 -0.5693
 3884SOL     OW13325   2.125   3.264   6.725 -0.1552  0.0999 -0.1753
 3884SOL    HW113326   2.151   3.191   6.781  0.2715  0.2022 -0.2407
 3884SOL    HW213327   2.073   3.321   6.783 -0.2180 -0.0909 -0.0422
 3885SOL     OW13328   3.005   5.551   2.845 -0.1912  0.3879  0.3096
 3885SOL    HW113329   2.916   5.586   2.854  0.4335  2.2029 -0.1704
 3885SOL    HW213330   3.058   5.608   2.901  0.9057  0.3432 -0.6574
 3886SOL     OW13331   2.085   7.386   7.599 -0.5181  0.1793  0.4320
 3886SOL    HW113332   2.089   7.375   7.694 -0.0408 -0.0402  0.3948
 3886SOL    HW213333   2.054   7.476   7.586 -2.7724 -0.5003  0.7666
 3887SOL     OW13334   2.783   8.639   2.378 -0.0719 -0.2141 -0.0373
 3887SOL    HW113335   2.706   8.595   2.413 -0.2774  0.3438  0.2226
 3887SOL    HW213336   2.759   8.663   2.289 -1.0509  1.9822  0.7761
 3888SOL     OW13337   5.723   8.916   5.169 -0.2205  0.6158 -0.5910
 3888SOL    HW113338   5.631   8.934   5.147 -0.5162 -1.0746 -0.9357
 3888SOL    HW213339   5.773   8.981   5.121 -1.2861  2.7031  0.9787
 3889SOL     OW13340   3.352   8.761   3.852  0.4038  0.1752 -0.1252
 3889SOL    HW113341   3.306   8.845   3.850 -0.2238 -0.0293  2.3637
 3889SOL    HW213342   3.421   8.770   3.785  0.6020  2.8102  0.3071
 3890SOL     OW13343   4.384   4.811   3.517  0.2387 -0.5454 -0.2736
 3890SOL    HW113344   4.407   4.749   3.447  0.7667 -0.5481 -0.1051
 3890SOL    HW213345   4.291   4.829   3.504 -0.0037 -1.6157 -0.1395
 3891SOL     OW13346   0.365   5.793   5.801 -0.2274 -0.4829  0.3281
 3891SOL    HW113347   0.401   5.734   5.735  2.3216  0.2972  0.9166
 3891SOL    HW213348   0.325   5.736   5.866 -0.6368 -1.3692 -0.6722
 3892SOL     OW13349   4.874   5.255   6.139  0.6504 -0.2006  0.0379
 3892SOL    HW113350   4.930   5.327   6.168  1.1446 -0.7230  0.4144
 3892SOL    HW213351   4.805   5.250   6.206  0.2285  0.3415 -0.3430
 3893SOL     OW13352   7.595   1.815   6.277 -0.3142  0.0251 -0.4401
 3893SOL    HW113353   7.529   1.746   6.264 -0.0717 -0.0130 -1.5779
 3893SOL    HW213354   7.659   1.799   6.208  0.0159  1.0746 -0.3839
 3894SOL     OW13355   1.334   1.176   5.359  0.1256 -0.0372  0.3468
 3894SOL    HW113356   1.284   1.158   5.438 -0.1735 -0.0035  0.1661
 3894SOL    HW213357   1.279   1.235   5.308  0.3423 -0.0106  0.1401
 3895SOL     OW13358   1.711   0.125   1.529  0.8248 -0.4779 -0.1528
 3895SOL    HW113359   1.767   0.087   1.597 -1.1155 -1.1972  1.1223
 3895SOL    HW213360   1.641   0.169   1.578 -0.2983 -0.4884 -1.6851
 3896SOL     OW13361   6.604   3.314   5.040 -0.0420  0.4085  0.2718
 3896SOL    HW113362   6.522   3.335   4.996  1.0215  1.8361 -1.0982
 3896SOL    HW213363   6.624   3.391   5.093 -0.3615 -0.5694  1.9123
 3897SOL     OW13364   4.255   6.332   0.865 -0.1220 -0.3142  0.0131
 3897SOL    HW113365   4.254   6.367   0.954  1.3794 -1.5986  0.5823
 3897SOL    HW213366   4.297   6.400   0.812 -2.5473  1.2026 -0.1267
 3898SOL     OW13367   4.332   8.837   1.676 -0.3834 -0.2582  0.3509
 3898SOL    HW113368   4.330   8.761   1.734 -0.3468 -0.4826  0.0563
 3898SOL    HW213369   4.412   8.826   1.625  0.7350  1.0298  1.7201
 3899SOL     OW13370   0.361   3.319   3.076  0.0011  0.4390  0.3180
 3899SOL    HW113371   0.352   3.235   3.032  0.7087 -0.6324  2.1177
 3899SOL    HW213372   0.280   3.330   3.125  0.1893  0.4680  0.6269
 3900SOL     OW13373   4.332   1.335   2.332  0.8567 -0.1719 -0.1085
 3900SOL    HW113374   4.396   1.285   2.384  0.2026  1.4152  2.4046
 3900SOL    HW213375   4.382   1.366   2.257  1.9619 -2.2802 -0.3187
 3901SOL     OW13376   8.840   9.035   7.805 -0.1274 -0.5059  0.9759
 3901SOL    HW113377   8.809   9.105   7.863 -0.5551  0.3121 -0.2001
 3901SOL    HW213378   8.796   8.956   7.837  0.3985 -0.2703  2.3579
 3902SOL     OW13379   3.633   7.874   1.347 -0.4983  0.0183  0.3968
 3902SOL    HW113380   3.664   7.843   1.432  0.7528  1.1658  0.3893
 3902SOL    HW213381   3.662   7.806   1.285  0.1520  0.0397  0.6669
 3903SOL     OW13382   0.372   9.496   6.747  0.1725 -0.0206  0.1935
 3903SOL    HW113383   0.443   9.480   6.809 -0.3689 -2.2291  0.3267
 3903SOL    HW213384   0.392   9.440   6.672 -1.2577 -0.4749  0.1230
 3904SOL     OW13385   6.500   8.198   4.039  0.1569 -0.5450 -0.2207
 3904SOL    HW113386   6.532   8.275   3.992  0.1990 -0.0417  0.6084
 3904SOL    HW213387   6.434   8.160   3.981 -2.7431  2.3260  0.9175
 3905SOL     OW13388   7.512   8.125   8.869 -0.4114  0.2581 -0.1672
 3905SOL    HW113389   7.540   8.068   8.940  1.7997 -0.2406 -1.3527
 3905SOL    HW213390   7.505   8.212   8.909  0.1018 -0.1377  0.8099
 3906SOL     OW13391   5.630   0.997   7.464 -0.5518  0.2727  0.4343
 3906SOL    HW113392   5.696   1.032   7.524  0.5112 -0.4309 -0.2897
 3906SOL    HW213393   5.580   1.074   7.437 -0.4048  0.7409  1.4320
 3907SOL     OW13394   9.459   9.558   8.546 -0.1197  0.0025  0.2006
 3907SOL    HW113395   9.459   9.648   8.512 -0.8284 -0.1116 -0.1246
 3907SOL    HW213396   9.549   9.528   8.534 -0.0644  0.4009 -0.4311
 3908SOL     OW13397   7.637   2.771   4.245  0.2841 -0.1002 -0.4164
 3908SOL    HW113398   7.633   2.774   4.149  0.0342 -1.1535 -0.4484
 3908SOL    HW213399   7.680   2.853   4.269 -0.9688  0.8707 -1.3404
 3909SOL     OW13400   8.686   0.256   7.820  0.3881 -0.2032  0.1768
 3909SOL    HW113401   8.608   0.267   7.766  0.5276 -2.5768 -0.6054
 3909SOL    HW213402   8.654   0.266   7.910 -0.9245 -1.5354 -0.1101
 3910SOL     OW13403   1.672   1.933   6.783 -0.3257 -0.4790 -0.3956
 3910SOL    HW113404   1.666   1.879   6.861 -0.0404 -0.4924 -0.3835
 3910SOL    HW213405   1.764   1.956   6.776 -0.3538 -0.4511 -0.7101
 3911SOL     OW13406   4.436   8.158   7.503 -0.0356 -0.8619  0.3901
 3911SOL    HW113407   4.412   8.166   7.411 -0.6465 -1.9514  0.4287
 3911SOL    HW213408   4.484   8.238   7.523  0.2200 -0.6680 -0.9059
 3912SOL     OW13409   3.347   4.487   0.865 -0.6141  0.4124  0.0965
 3912SOL    HW113410   3.372   4.394   0.864 -1.7817  0.0788 -0.7782
 3912SOL    HW213411   3.404   4.527   0.800 -1.4309 -0.0997 -0.9749
 3913SOL     OW13412   3.923   4.278   2.717  0.0232 -0.0709 -0.1955
 3913SOL    HW113413   3.956   4.349   2.771 -1.5806  0.5102  0.0655
 3913SOL    HW213414   3.909   4.318   2.631 -0.6645 -0.0972 -0.1074
 3914SOL     OW13415   8.952   0.081   6.292  0.2456 -0.0032 -0.4333
 3914SOL    HW113416   8.940   0.105   6.200 -0.1105  0.3178 -0.3069
 3914SOL    HW213417   8.945   0.164   6.340  0.6017 -0.1452 -0.1327
 3915SOL     OW13418   9.089   1.263   5.457  0.2127 -0.3204  0.0886
 3915SOL    HW113419   9.070   1.336   5.398 -0.3844 -1.3040 -0.9886
 3915SOL    HW213420   9.017   1.262   5.520  0.3157  0.1250  0.2132
 3916SOL     OW13421   9.454   4.193   5.708  0.1692  0.4180  0.1479
 3916SOL    HW113422   9.412   4.131   5.648 -0.8616  1.8562 -0.7064
 3916SOL    HW213423   9.507   4.249   5.652  0.4898  0.7754  0.7919
 3917SOL     OW13424   6.965   6.572   1.284  0.2084 -0.6026  0.2343
 3917SOL    HW113425   7.020   6.633   1.236  0.9266 -0.7065  0.9030
 3917SOL    HW213426   6.930   6.623   1.357 -2.5611  0.1399 -1.4784
 3918SOL     OW13427   7.998   4.920   2.806  0.6442 -0.4304  0.3459
 3918SOL    HW113428   8.065   4.860   2.837  0.6542 -0.6020 -0.0004
 3918SOL    HW213429   7.915   4.877   2.827  0.6134  0.2525  1.7101
 3919SOL     OW13430   5.750   6.192   3.332  0.0061 -0.1793  0.0332
 3919SOL    HW113431   5.678   6.195   3.396 -0.7525 -1.2987 -0.7346
 3919SOL    HW213432   5.789   6.106   3.343  2.5731  1.0911  1.7977
 3920SOL     OW13433   7.975   8.672   3.638  0.2525 -0.6421  0.0839
 3920SOL    HW113434   8.052   8.726   3.657  0.0285 -0.7243  1.3513
 3920SOL    HW213435   7.965   8.618   3.716 -3.0811  1.7303  1.5401
 3921SOL     OW13436   7.425   8.524   1.104  0.5190  0.4942 -0.2902
 3921SOL    HW113437   7.351   8.532   1.044  0.2604  2.8946  0.2322
 3921SOL    HW213438   7.485   8.463   1.062 -1.8590 -1.8014 -0.5815
 3922SOL     OW13439   7.717   0.129   5.729 -0.8185  0.2481  0.0878
 3922SOL    HW113440   7.752   0.189   5.794  1.8378  0.0753 -1.0365
 3922SOL    HW213441   7.629   0.108   5.760  0.1006  0.5814  3.2832
 3923SOL     OW13442   2.080   4.206   5.434 -0.0382  0.9188  0.6613
 3923SOL    HW113443   2.001   4.178   5.480  0.0701 -0.3755  0.1142
 3923SOL    HW213444   2.050   4.229   5.346  0.0144  1.6413  0.8302
 3924SOL     OW13445   3.360   9.425   2.194  0.2132 -0.0385 -0.2411
 3924SOL    HW113446   3.449   9.412   2.161  0.1533 -2.2790  0.3263
 3924SOL    HW213447   3.362   9.391   2.283 -0.8297  1.4378  0.3836
 3925SOL     OW13448   3.950   9.530   3.538 -0.8121  0.5888 -0.3292
 3925SOL    HW113449   3.934   9.583   3.616 -0.6444 -0.1877  0.2478
 3925SOL    HW213450   3.900   9.573   3.469 -0.9177  1.3230  0.1931
 3926SOL     OW13451   5.312   1.039   3.907 -0.2706  0.2202  0.1338
 3926SOL    HW113452   5.361   0.988   3.842 -1.1449  0.9815 -1.1588
 3926SOL    HW213453   5.306   1.127   3.870 -1.7188  0.4058  0.7451
 3927SOL     OW13454   7.958   4.193   0.903  0.4115 -0.0685  0.1369
 3927SOL    HW113455   7.969   4.117   0.960 -1.7398 -2.7087 -2.6454
 3927SOL    HW213456   8.047   4.211   0.871  1.0815 -0.9180  1.3995
 3928SOL     OW13457   3.408   8.317   1.988  0.1398  0.0332  0.8429
 3928SOL    HW113458   3.471   8.263   1.940  0.8162 -1.6027  3.3475
 3928SOL    HW213459   3.414   8.403   1.948  1.2534 -0.9899 -1.3748
 3929SOL     OW13460   3.452   0.547   8.170 -0.1354 -0.3007  0.8362
 3929SOL    HW113461   3.481   0.554   8.261  0.4334  0.8209  0.5813
 3929SOL    HW213462   3.502   0.614   8.124  1.6895 -2.6859 -0.8697
 3930SOL     OW13463   3.614   7.721   7.096  0.3413  0.5577  0.2925
 3930SOL    HW113464   3.564   7.646   7.064  0.1799  1.1507 -0.8700
 3930SOL    HW213465   3.700   7.712   7.055  0.8020  0.2551  1.2725
 3931SOL     OW13466   5.268   1.563   8.968 -0.3140 -0.0135 -0.2798
 3931SOL    HW113467   5.323   1.590   8.895  2.2649 -0.8043  1.2166
 3931SOL    HW213468   5.254   1.469   8.955  0.5716 -0.2614  0.4392
 3932SOL     OW13469   8.563   4.848   5.550  0.4572 -0.4129 -0.0191
 3932SOL    HW113470   8.519   4.912   5.606 -0.4620 -0.7423 -0.3508
 3932SOL    HW213471   8.635   4.815   5.604 -0.7146 -1.1088  1.1752
 3933SOL     OW13472   2.787   1.985   7.999  0.7000 -0.6116  0.4091
 3933SOL    HW113473   2.819   1.970   7.910 -0.6660  0.6121 -0.3281
 3933SOL    HW213474   2.694   1.962   7.996  0.5054 -0.0431  1.3848
 3934SOL     OW13475   2.776   8.356   0.109 -0.5253 -0.5632 -0.4947
 3934SOL    HW113476   2.715   8.423   0.140 -0.6534 -0.9499  0.1100
 3934SOL    HW213477   2.730   8.273   0.121  0.3811 -0.9380  0.7327
 3935SOL     OW13478   5.384   0.203   0.836 -0.2054 -0.5129 -0.3254
 3935SOL    HW113479   5.370   0.276   0.775 -0.4435 -0.8713 -0.6994
 3935SOL    HW213480   5.458   0.231   0.889 -0.9168  0.4469  0.1980
 3936SOL     OW13481   8.450   3.273   8.903  0.0973 -0.8030 -0.2354
 3936SOL    HW113482   8.422   3.363   8.892  0.9766 -0.6076 -1.0854
 3936SOL    HW213483   8.518   3.276   8.971  2.3248 -0.2833 -2.3272
 3937SOL     OW13484   7.741   8.904   7.434 -0.0667  0.3929  0.7308
 3937SOL    HW113485   7.832   8.923   7.460  0.1215 -0.0260  0.3945
 3937SOL    HW213486   7.750   8.849   7.356 -0.6194  1.7252 -0.3164
 3938SOL     OW13487   2.501   3.592   3.806 -0.7439 -0.5440 -0.1410
 3938SOL    HW113488   2.533   3.522   3.749  1.5336  0.6559 -0.4744
 3938SOL    HW213489   2.536   3.570   3.893 -0.1763  0.0357 -0.2100
 3939SOL     OW13490   4.774   1.644   8.161  0.5435  0.0205  0.1989
 3939SOL    HW113491   4.748   1.658   8.252 -1.3623 -0.9837 -0.1451
 3939SOL    HW213492   4.798   1.552   8.157  0.0464 -0.0838 -0.4425
 3940SOL     OW13493   4.545   8.416   9.506 -0.1631  0.1326 -0.5604
 3940SOL    HW113494   4.526   8.486   9.568 -0.4800 -0.9249  0.5679
 3940SOL    HW213495   4.460   8.374   9.491  0.3319 -1.2546  0.3406
 3941SOL     OW13496   6.162   8.464   2.589  0.1299  0.3831 -0.2868
 3941SOL    HW113497   6.139   8.442   2.499  0.8748 -1.8376  0.0115
 3941SOL    HW213498   6.107   8.539   2.611 -1.6957 -0.4415 -1.8374
 3942SOL     OW13499   1.101   4.532   7.453  0.2545 -0.0171 -0.0208
 3942SOL    HW113500   1.185   4.576   7.458 -0.5756  1.5277  1.6211
 3942SOL    HW213501   1.036   4.602   7.460 -1.1860 -1.1720 -0.9974
 3943SOL     OW13502   6.467   7.221   2.134 -0.3428  0.3647 -0.3365
 3943SOL    HW113503   6.513   7.157   2.079 -1.5921 -0.5979 -0.2965
 3943SOL    HW213504   6.467   7.181   2.221  1.8170  1.9758  0.4915
 3944SOL     OW13505   6.882   7.714   1.217  0.0096  0.5622  1.4405
 3944SOL    HW113506   6.791   7.686   1.233 -0.3227  1.0402  0.4738
 3944SOL    HW213507   6.874   7.792   1.162  1.0227  0.1077  0.6004
 3945SOL     OW13508   4.480   1.762   4.048  0.2917  0.1639 -0.0551
 3945SOL    HW113509   4.473   1.727   3.959 -1.2582 -2.0865  0.8568
 3945SOL    HW213510   4.400   1.813   4.061  0.1029 -0.1998  0.2762
 3946SOL     OW13511   3.258   5.951   6.521  0.3093  0.8415  0.4440
 3946SOL    HW113512   3.265   5.981   6.430 -0.7579 -0.6964 -0.1866
 3946SOL    HW213513   3.197   5.877   6.517 -0.8530  1.6075  2.6243
 3947SOL     OW13514   0.053   8.385   2.160  0.1248 -0.0769  0.2318
 3947SOL    HW113515   0.107   8.463   2.170 -0.4383  0.0051  3.5335
 3947SOL    HW213516   0.103   8.315   2.203 -0.2674 -1.1409 -0.9471
 3948SOL     OW13517   6.933   9.325   5.196  0.0199  0.6721  0.2891
 3948SOL    HW113518   6.845   9.312   5.230 -0.4653  0.1140 -1.0928
 3948SOL    HW213519   6.989   9.273   5.254 -0.9161 -1.1901 -0.3817
 3949SOL     OW13520   5.425   3.780   5.095 -0.2762 -0.0881 -0.1181
 3949SOL    HW113521   5.519   3.785   5.113 -0.2811  0.3084 -0.1971
 3949SOL    HW213522   5.385   3.766   5.181 -0.1648  0.0115 -0.0494
 3950SOL     OW13523   4.941   2.891   3.485 -0.3978  0.7616 -0.1277
 3950SOL    HW113524   4.869   2.838   3.452  0.8342 -0.4721 -0.9083
 3950SOL    HW213525   5.004   2.895   3.413  0.5170  1.4495  0.6811
 3951SOL     OW13526   4.344   2.496   1.154  0.3698 -0.1074  0.5563
 3951SOL    HW113527   4.293   2.415   1.164  1.5066 -0.5899  3.1937
 3951SOL    HW213528   4.279   2.566   1.162 -0.2323 -0.7364  1.4489
 3952SOL     OW13529   7.907   0.964   7.799  0.1551  0.0485  0.1315
 3952SOL    HW113530   7.999   0.951   7.822 -0.5003 -2.4564  1.7628
 3952SOL    HW213531   7.909   1.027   7.727  3.4237 -2.4319 -2.2776
 3953SOL     OW13532   3.486   6.713   0.252 -0.1886 -0.0410 -0.0725
 3953SOL    HW113533   3.566   6.761   0.276  0.3195 -0.5345 -0.7448
 3953SOL    HW213534   3.501   6.624   0.283  0.0080 -0.4138 -1.1984
 3954SOL     OW13535   6.549   6.027   9.210  0.1397  0.5610  0.5175
 3954SOL    HW113536   6.579   6.016   9.300 -1.5456  0.3005  1.0913
 3954SOL    HW213537   6.479   5.962   9.200 -1.9069  2.6940  0.0979
 3955SOL     OW13538   0.826   7.407   3.148 -0.7467 -0.2725  0.2067
 3955SOL    HW113539   0.735   7.385   3.127 -1.6630  0.7888  2.7352
 3955SOL    HW213540   0.822   7.498   3.179  0.6354 -1.0926  3.1325
 3956SOL     OW13541   0.393   9.028   1.441 -0.1132  0.2655  0.3474
 3956SOL    HW113542   0.309   8.984   1.452 -0.1809  0.0827 -0.7935
 3956SOL    HW213543   0.400   9.085   1.517 -0.9319 -0.2579  0.8287
 3957SOL     OW13544   0.648   5.873   1.581 -0.1817  0.5790  0.2442
 3957SOL    HW113545   0.579   5.896   1.518 -1.1082 -0.3200  0.8995
 3957SOL    HW213546   0.619   5.790   1.618  1.2205  0.2382  0.6167
 3958SOL     OW13547   2.696   3.040   0.905  0.0847 -0.1264 -0.0836
 3958SOL    HW113548   2.683   3.115   0.963 -0.5166 -0.1859 -0.1384
 3958SOL    HW213549   2.725   3.078   0.822  0.2844  0.0081  0.0488
 3959SOL     OW13550   6.142   6.742   1.883 -0.3134  0.5052 -0.3701
 3959SOL    HW113551   6.181   6.803   1.946  0.9936  0.0646 -0.7084
 3959SOL    HW213552   6.082   6.689   1.934 -1.1221  1.7451  0.0207
 3960SOL     OW13553   4.182   3.756   1.294  0.3269  0.4773 -0.1937
 3960SOL    HW113554   4.201   3.774   1.202  2.0400  0.5959  0.1625
 3960SOL    HW213555   4.199   3.662   1.304  0.8343  0.6070  0.1653
 3961SOL     OW13556   0.034   3.939   8.326 -0.0346  0.7265 -0.6645
 3961SOL    HW113557  -0.058   3.912   8.335 -0.5824  2.4949 -0.5679
 3961SOL    HW213558   0.029   4.028   8.292  1.6844  0.6063 -1.2954
 3962SOL     OW13559   4.547   2.889   5.354  0.3406 -0.7024 -0.3536
 3962SOL    HW113560   4.544   2.842   5.271 -2.4110 -0.0926 -0.6851
 3962SOL    HW213561   4.485   2.843   5.410 -2.0089  1.9928 -0.4885
 3963SOL     OW13562   8.350   7.380   6.841  0.8158  0.2986 -0.3600
 3963SOL    HW113563   8.353   7.300   6.789  1.4447 -1.5748  2.3318
 3963SOL    HW213564   8.258   7.388   6.868  1.3282 -2.0641  2.7468
 3964SOL     OW13565   1.486   6.374   2.349  0.0814 -0.0344 -0.2808
 3964SOL    HW113566   1.559   6.319   2.321  1.4765 -0.6537  3.8854
 3964SOL    HW213567   1.521   6.464   2.344 -0.3793  0.0830 -2.1037
 3965SOL     OW13568   7.938   6.976   7.092 -0.1489  0.0714  0.1641
 3965SOL    HW113569   7.918   7.069   7.101 -0.9940 -0.2313  1.7709
 3965SOL    HW213570   7.862   6.931   7.130 -0.2848 -1.3127 -1.6141
 3966SOL     OW13571   3.076   7.701   6.232  0.2363  1.2318  0.1427
 3966SOL    HW113572   3.124   7.749   6.165  0.0250  1.4395  0.1377
 3966SOL    HW213573   3.114   7.730   6.315  1.1866  0.2292  0.0883
 3967SOL     OW13574   3.455   3.051   2.266 -0.1422  0.1804 -0.4188
 3967SOL    HW113575   3.473   3.024   2.357 -0.3284  2.6174  0.4071
 3967SOL    HW213576   3.360   3.054   2.260 -0.1350  1.7841 -0.0876
 3968SOL     OW13577   8.500   3.078   0.404 -0.7903  0.3607 -0.3979
 3968SOL    HW113578   8.510   3.156   0.350  0.6095 -0.8164 -1.9799
 3968SOL    HW213579   8.498   3.006   0.341  1.7366 -1.1553  1.0799
 3969SOL     OW13580   2.806   4.883   2.001 -0.5543  0.2562 -0.5008
 3969SOL    HW113581   2.846   4.960   2.042  0.6394 -0.9400  0.6749
 3969SOL    HW213582   2.735   4.919   1.948  0.5457  2.2481 -0.7269
 3970SOL     OW13583   8.073   8.385   3.016 -0.3997 -0.1559 -0.4649
 3970SOL    HW113584   8.161   8.349   3.025  1.0932  3.1354 -0.4449
 3970SOL    HW213585   8.060   8.394   2.922  0.4677  1.7321 -0.4604
 3971SOL     OW13586   4.892   3.070   3.212  0.2594 -0.0353 -0.7246
 3971SOL    HW113587   4.971   3.033   3.251  0.1366 -0.1246 -0.5590
 3971SOL    HW213588   4.867   3.141   3.271  0.2112 -0.0134 -0.7713
 3972SOL     OW13589   5.372   7.667   0.841 -0.1163  0.1466  0.8284
 3972SOL    HW113590   5.382   7.634   0.930 -1.6473 -0.4525  0.8033
 3972SOL    HW213591   5.350   7.590   0.789 -2.3949  0.9311  0.5310
 3973SOL     OW13592   3.664   3.861   7.488  0.1439  0.5756 -0.8040
 3973SOL    HW113593   3.653   3.904   7.403  0.3271  0.1371 -1.0559
 3973SOL    HW213594   3.714   3.922   7.540 -2.0232  1.9332 -0.1822
 3974SOL     OW13595   5.612   9.056   8.932  0.0073 -0.1680 -0.5591
 3974SOL    HW113596   5.540   9.052   8.996  0.5211 -0.5115  0.0057
 3974SOL    HW213597   5.677   9.113   8.973  1.2568 -2.0298  0.1979
 3975SOL     OW13598   6.068   4.809   4.200  0.9381  0.0450  0.2801
 3975SOL    HW113599   6.069   4.827   4.294  0.3736  2.5038 -0.1165
 3975SOL    HW213600   6.061   4.896   4.159  0.5180 -1.0023 -2.0190
 3976SOL     OW13601   4.093   5.802   4.411 -0.7358 -0.8586 -0.1297
 3976SOL    HW113602   4.025   5.765   4.354 -0.7693  0.6014 -1.1182
 3976SOL    HW213603   4.113   5.887   4.371 -0.7523  0.2346  2.0396
 3977SOL     OW13604   9.672   3.129   0.349  0.2817 -0.2968 -0.1750
 3977SOL    HW113605   9.745   3.145   0.409  0.9982 -2.4730 -0.4111
 3977SOL    HW213606   9.594   3.138   0.404  0.7806  0.4434  0.4409
 3978SOL     OW13607   3.023   0.933   1.327 -0.5276  0.0440  0.4086
 3978SOL    HW113608   2.994   1.023   1.335  1.7682  0.9467 -0.5357
 3978SOL    HW213609   3.077   0.932   1.248 -0.5277 -2.1829  0.3565
 3979SOL     OW13610   8.771   0.443   5.179  0.3859  0.4558 -0.3065
 3979SOL    HW113611   8.794   0.529   5.215 -1.1789  1.2820 -1.1963
 3979SOL    HW213612   8.800   0.381   5.245  0.3799  1.7443  0.9543
 3980SOL     OW13613   1.611   1.890   2.058  0.0099 -0.1158 -0.1400
 3980SOL    HW113614   1.657   1.972   2.073 -0.7468  0.2104  0.4689
 3980SOL    HW213615   1.519   1.911   2.072 -0.1157 -1.2893  0.9983
 3981SOL     OW13616   1.166   6.172   0.545 -0.1008 -0.4389  0.2556
 3981SOL    HW113617   1.208   6.247   0.588  0.7647 -1.3242  1.0095
 3981SOL    HW213618   1.134   6.207   0.462 -2.1872  1.4359  1.7273
 3982SOL     OW13619   3.770   5.068   3.538 -0.3859 -0.0503 -0.4602
 3982SOL    HW113620   3.689   5.030   3.571 -0.5427 -0.2423 -1.0511
 3982SOL    HW213621   3.777   5.152   3.584 -1.0266  0.0578 -0.5391
 3983SOL     OW13622   4.051   6.957   0.026 -0.0418 -0.5323  0.5396
 3983SOL    HW113623   4.104   6.879   0.009  0.3912  0.2178 -1.9464
 3983SOL    HW213624   4.108   7.013   0.079 -0.4840 -1.9516  2.6668
 3984SOL     OW13625   4.072   6.651   7.190 -0.2315  0.0320  0.0641
 3984SOL    HW113626   4.084   6.711   7.116  1.5659  0.5786  0.7495
 3984SOL    HW213627   3.980   6.625   7.185 -0.3359  0.6255 -1.9219
 3985SOL     OW13628   1.722   0.456   1.593 -0.3484 -0.1284 -0.6006
 3985SOL    HW113629   1.637   0.471   1.552  0.3093  0.1111 -1.9094
 3985SOL    HW213630   1.765   0.542   1.592 -0.5016  0.0074  1.0851
 3986SOL     OW13631   4.084   5.812   9.438  0.2376  0.3473 -0.0209
 3986SOL    HW113632   4.123   5.878   9.496  0.7802 -0.4233  0.5045
 3986SOL    HW213633   3.996   5.845   9.420  0.2103  0.8122  0.8995
 3987SOL     OW13634   8.469   2.063   2.001 -0.8215 -0.5548 -0.5300
 3987SOL    HW113635   8.429   1.987   2.043 -3.2411  0.8740 -0.0453
 3987SOL    HW213636   8.402   2.094   1.940  0.4941  0.6286 -1.4073
 3988SOL     OW13637   2.507   4.320   8.664 -0.7274 -0.2874 -0.3040
 3988SOL    HW113638   2.580   4.308   8.603 -0.9248 -0.4629 -0.5028
 3988SOL    HW213639   2.430   4.288   8.617 -0.7609 -1.1302  0.3058
 3989SOL     OW13640   5.353   8.651   3.690 -0.2387  0.1787  0.5026
 3989SOL    HW113641   5.425   8.699   3.649 -1.2847 -0.1800 -1.8937
 3989SOL    HW213642   5.384   8.560   3.694 -0.4273  0.0725 -0.2753
 3990SOL     OW13643   1.449   5.075   2.608 -0.2310  0.2841  0.2712
 3990SOL    HW113644   1.483   5.070   2.697  0.4050 -0.9776 -0.0250
 3990SOL    HW213645   1.354   5.076   2.619 -0.1921 -1.0518  0.9418
 3991SOL     OW13646   0.619   1.382   5.571  0.6271  0.2422  0.0536
 3991SOL    HW113647   0.686   1.422   5.626 -0.1176  1.5318  0.0557
 3991SOL    HW213648   0.573   1.456   5.530 -2.7965 -0.3230  2.3857
 3992SOL     OW13649   7.155   4.563   4.376  0.0124  0.5313 -0.0795
 3992SOL    HW113650   7.239   4.608   4.377  0.7380 -0.6292 -2.2208
 3992SOL    HW213651   7.179   4.470   4.382 -1.2118  0.2504  0.6611
 3993SOL     OW13652   2.946   6.695   3.601 -0.2203  0.0886  0.0737
 3993SOL    HW113653   2.923   6.649   3.682  0.5881  0.8563  0.7597
 3993SOL    HW213654   3.018   6.752   3.626  0.5932 -0.2487 -1.3841
 3994SOL     OW13655   1.731   3.281   7.903  0.2059  0.3228  0.4008
 3994SOL    HW113656   1.673   3.241   7.838 -0.3097 -0.6570  1.4371
 3994SOL    HW213657   1.672   3.319   7.968  0.7139  1.4867  0.2023
 3995SOL     OW13658   2.920   0.457   9.642  0.0031 -0.4769 -0.9203
 3995SOL    HW113659   2.842   0.479   9.692 -0.6223  0.7035 -2.3486
 3995SOL    HW213660   2.966   0.392   9.696 -1.7153 -0.8552  0.1551
 3996SOL     OW13661   1.322   2.776   4.398  0.4416 -0.1793 -0.2088
 3996SOL    HW113662   1.339   2.795   4.306 -1.3434 -0.4010 -0.6191
 3996SOL    HW213663   1.362   2.690   4.413  1.6606  0.3115 -0.4508
 3997SOL     OW13664   8.504   7.174   9.526  0.2041 -0.3382 -0.1994
 3997SOL    HW113665   8.493   7.106   9.459 -0.2155  0.8564 -1.3990
 3997SOL    HW213666   8.421   7.174   9.574  1.0903 -2.2988  1.4432
 3998SOL     OW13667   2.362   4.452   5.630 -0.2578  0.5623  0.2597
 3998SOL    HW113668   2.424   4.500   5.686 -0.6632  0.0091  1.2214
 3998SOL    HW213669   2.323   4.518   5.574 -0.3829  1.2823  1.1630
 3999SOL     OW13670   8.819   3.194   8.641  0.0741 -0.3809  0.2004
 3999SOL    HW113671   8.811   3.282   8.678  0.5568  0.7887 -2.2461
 3999SOL    HW213672   8.913   3.183   8.625 -0.1228 -0.7768 -0.7528
 4000SOL     OW13673   1.082   2.775   5.467 -0.3211 -0.5212  0.1994
 4000SOL    HW113674   1.103   2.690   5.505  1.5068  0.5182  1.6773
 4000SOL    HW213675   0.991   2.791   5.492 -0.0142 -1.1082  1.8338
 4001SOL     OW13676   7.474   9.364   9.189  0.1339 -0.5441 -0.2994
 4001SOL    HW113677   7.482   9.459   9.198 -1.0299 -0.6244  2.4545
 4001SOL    HW213678   7.387   9.344   9.223  0.7457 -2.6974  0.1516
 4002SOL     OW13679   6.486   3.991   2.223 -0.0990 -0.0051  0.4092
 4002SOL    HW113680   6.403   3.968   2.183  0.8640 -0.7148 -1.2896
 4002SOL    HW213681   6.468   4.072   2.271 -1.9002 -0.5128  0.6634
 4003SOL     OW13682   1.397   1.953   6.942  0.0207 -0.6586  0.1158
 4003SOL    HW113683   1.447   2.019   6.991  0.2954 -0.7073 -0.0957
 4003SOL    HW213684   1.397   1.876   7.000  1.8265 -1.2992 -0.6490
 4004SOL     OW13685   9.281   4.359   3.629  0.3438 -0.0452 -0.7405
 4004SOL    HW113686   9.374   4.367   3.608  0.3758 -0.6868 -0.8718
 4004SOL    HW213687   9.276   4.378   3.722  0.6489 -0.2858 -0.6728
 4005SOL     OW13688   2.785   5.207   5.123  0.3854 -0.3514 -0.0404
 4005SOL    HW113689   2.738   5.242   5.047  0.7206 -0.3110 -0.2317
 4005SOL    HW213690   2.785   5.112   5.110  0.1180 -0.3702  0.0997
 4006SOL     OW13691   7.564   7.133   1.098  0.6290 -0.1463  0.4730
 4006SOL    HW113692   7.484   7.180   1.076  0.8529  0.6339  1.2753
 4006SOL    HW213693   7.551   7.045   1.062 -0.0193  0.3594 -0.5815
 4007SOL     OW13694   6.887   2.939   1.178  0.3148 -1.0159  0.3612
 4007SOL    HW113695   6.793   2.945   1.197  0.0697  0.7112 -1.1704
 4007SOL    HW213696   6.925   2.907   1.260 -1.4756 -0.7325  1.3635
 4008SOL     OW13697   5.470   3.067   5.198  0.5213  0.1584 -0.2717
 4008SOL    HW113698   5.472   3.013   5.277  1.6629 -0.2653 -0.5618
 4008SOL    HW213699   5.555   3.111   5.197  0.2899  0.6083 -0.9630
 4009SOL     OW13700   9.004   8.032   1.882  0.5839 -0.1817  0.2090
 4009SOL    HW113701   9.096   8.021   1.855  0.7731 -1.2862  1.2341
 4009SOL    HW213702   8.995   7.976   1.959 -1.0696 -0.4262 -0.1278
 4010SOL     OW13703   0.333   9.522   1.058  0.3208 -0.1911  0.1578
 4010SOL    HW113704   0.277   9.502   1.133  0.2993 -0.7692 -0.0035
 4010SOL    HW213705   0.273   9.547   0.989  0.2409 -0.8761 -0.0352
 4011SOL     OW13706   2.726   0.246   4.955  0.3927 -0.0414  0.1626
 4011SOL    HW113707   2.746   0.240   5.048  0.3929  0.6000  0.2086
 4011SOL    HW213708   2.663   0.318   4.948 -1.6257 -1.7351 -0.0341
 4012SOL     OW13709   8.503   9.384   0.325 -0.4463 -0.2482  0.4236
 4012SOL    HW113710   8.470   9.322   0.260 -1.4944 -0.1513  0.8470
 4012SOL    HW213711   8.476   9.470   0.291 -0.2859 -0.1357  0.5800
 4013SOL     OW13712   7.748   5.392   1.822  0.8057  0.1916  0.1022
 4013SOL    HW113713   7.713   5.360   1.905  0.2554  0.6686  0.0576
 4013SOL    HW213714   7.842   5.402   1.839  0.8617 -0.6858  0.3467
 4014SOL     OW13715   4.952   8.576   7.924 -0.2592  0.4862  0.5925
 4014SOL    HW113716   4.989   8.559   7.837 -1.6099  1.4476 -0.2105
 4014SOL    HW213717   5.002   8.651   7.957 -0.2042  0.5577  0.3468
 4015SOL     OW13718   0.985   4.736   2.402  0.4963  0.0963  0.7225
 4015SOL    HW113719   1.074   4.768   2.391  0.2220  0.7815  0.4834
 4015SOL    HW213720   0.940   4.804   2.452  0.4770 -0.8727  2.0934
 4016SOL     OW13721   1.566   3.803   6.166  0.2183 -0.0406  0.1192
 4016SOL    HW113722   1.621   3.787   6.089 -0.4330  0.5212 -0.4746
 4016SOL    HW213723   1.603   3.747   6.234  3.1978  2.2444  0.5540
 4017SOL     OW13724   3.746   9.334   1.001 -0.8892 -0.7671  0.0632
 4017SOL    HW113725   3.756   9.412   1.056  1.2155 -0.3001 -0.8820
 4017SOL    HW213726   3.792   9.265   1.048 -1.5602 -1.0935  0.2444
 4018SOL     OW13727   0.218   8.745   4.456  0.0535 -0.0004  0.5935
 4018SOL    HW113728   0.202   8.680   4.387  0.8260  0.5296 -0.1041
 4018SOL    HW213729   0.132   8.760   4.495 -0.2531 -0.9245  0.3022
 4019SOL     OW13730   1.509   8.252   4.295  0.0017 -0.3653  0.0187
 4019SOL    HW113731   1.542   8.162   4.297  0.0596 -0.3431  0.0685
 4019SOL    HW213732   1.433   8.248   4.237  0.1465 -0.3970 -0.1702
 4020SOL     OW13733   5.046   6.513   1.211  0.1026 -0.0110  0.4805
 4020SOL    HW113734   5.040   6.608   1.209  1.3960  0.0669 -0.7353
 4020SOL    HW213735   5.133   6.494   1.245 -0.2161 -0.7758  0.9070
 4021SOL     OW13736   7.886   4.723   4.221  0.0768  0.2091 -0.1082
 4021SOL    HW113737   7.958   4.695   4.163 -0.4605 -1.5146  0.0123
 4021SOL    HW213738   7.812   4.737   4.162 -0.7612 -2.5138  0.1457
 4022SOL     OW13739   0.149   7.895   4.208 -0.0739  0.1276  0.1724
 4022SOL    HW113740   0.097   7.814   4.204 -0.6080  0.5030 -1.2599
 4022SOL    HW213741   0.090   7.962   4.173  1.0286  0.7719 -0.4748
 4023SOL     OW13742   9.440   5.129   8.042  0.0511 -0.2341  0.4794
 4023SOL    HW113743   9.525   5.098   8.010 -0.5145  0.9525 -2.5311
 4023SOL    HW213744   9.460   5.205   8.096  0.8999  0.3307 -0.6135
 4024SOL     OW13745   7.992   9.174   3.045  0.0145 -0.2078 -0.1837
 4024SOL    HW113746   7.909   9.128   3.055 -0.1297  0.0365 -0.2416
 4024SOL    HW213747   7.975   9.239   2.976  0.5780 -0.9083 -1.0039
 4025SOL     OW13748   5.496   4.495   8.416 -0.2771  0.2203 -0.0690
 4025SOL    HW113749   5.437   4.425   8.385 -0.3462 -0.0686  0.6888
 4025SOL    HW213750   5.500   4.557   8.343 -0.3964 -0.4638 -0.6704
 4026SOL     OW13751   2.936   4.768   1.304  0.0597  0.0664  0.4752
 4026SOL    HW113752   2.960   4.700   1.367 -0.0711  0.4774  0.9782
 4026SOL    HW213753   2.845   4.789   1.325  0.6357  1.6687  1.5284
 4027SOL     OW13754   4.538   0.146   8.067  0.5623 -0.1092  0.1471
 4027SOL    HW113755   4.456   0.097   8.064 -0.9708  2.2577 -3.2645
 4027SOL    HW213756   4.585   0.119   7.987  1.4701  1.1147  0.2357
 4028SOL     OW13757   6.682   4.561   2.275 -0.1779 -0.1568  0.1841
 4028SOL    HW113758   6.664   4.467   2.278 -0.9002 -0.0349 -0.1431
 4028SOL    HW213759   6.762   4.572   2.328  0.0816 -0.9853 -0.0240
 4029SOL     OW13760   3.997   7.182   8.317 -0.3138 -0.1697 -0.4113
 4029SOL    HW113761   4.066   7.144   8.371  1.9116  2.4531 -1.2024
 4029SOL    HW213762   4.003   7.135   8.234  1.1843  0.6064 -0.7770
 4030SOL     OW13763   7.723   7.453   6.583 -0.1077 -0.8107  0.9236
 4030SOL    HW113764   7.647   7.504   6.554 -0.7037 -1.3955  1.4288
 4030SOL    HW213765   7.798   7.497   6.542 -0.7316 -0.3549  0.2373
 4031SOL     OW13766   1.170   0.725   8.816  0.2612 -0.1208  0.6253
 4031SOL    HW113767   1.153   0.807   8.768 -0.7621  0.9260  2.6386
 4031SOL    HW213768   1.250   0.690   8.777 -0.0236  1.1353 -1.1916
 4032SOL     OW13769   3.525   9.647   7.127  0.0147  0.1552  0.0192
 4032SOL    HW113770   3.522   9.742   7.115 -1.0609  0.1968  0.4575
 4032SOL    HW213771   3.434   9.623   7.146  0.6869 -0.5524  2.8954
 4033SOL     OW13772   5.960   4.402   1.367 -0.5181  0.0131  0.3320
 4033SOL    HW113773   5.873   4.423   1.402 -1.0974 -1.9585  0.2158
 4033SOL    HW213774   6.021   4.424   1.437 -1.4409 -1.6283  1.7219
 4034SOL     OW13775   4.448   0.986   3.705  0.3492 -0.2771  0.0990
 4034SOL    HW113776   4.467   1.004   3.797  0.0448 -1.3552  0.3832
 4034SOL    HW213777   4.533   0.970   3.665  0.4301 -0.3994  0.3224
 4035SOL     OW13778   1.603   5.897   3.016 -0.1709 -0.2378  0.0493
 4035SOL    HW113779   1.688   5.872   3.052  0.0219 -1.1121 -0.9482
 4035SOL    HW213780   1.623   5.929   2.928 -0.9929 -1.9455 -0.8087
 4036SOL     OW13781   2.606   2.825   9.127 -0.1928 -0.0426 -0.5214
 4036SOL    HW113782   2.605   2.791   9.037 -2.8589  0.6766 -0.8584
 4036SOL    HW213783   2.693   2.803   9.160  0.5294 -1.1956 -2.9413
 4037SOL     OW13784   7.371   7.650   7.213  0.6318  0.4361 -0.0864
 4037SOL    HW113785   7.307   7.579   7.207  0.8546  0.2258 -0.0028
 4037SOL    HW213786   7.405   7.643   7.303  0.2890  0.9657  0.0865
 4038SOL     OW13787   7.590   5.851   5.380 -0.1013 -0.2271  0.2586
 4038SOL    HW113788   7.508   5.815   5.414 -1.2817  0.4645 -1.7078
 4038SOL    HW213789   7.632   5.890   5.457 -1.1706 -1.3590  1.4711
 4039SOL     OW13790   2.142   4.826   3.680 -0.2040 -0.5897 -0.3721
 4039SOL    HW113791   2.203   4.791   3.745  0.3357  0.0506 -0.5175
 4039SOL    HW213792   2.187   4.903   3.644 -1.1933  0.0279 -0.3268
 4040SOL     OW13793   9.260   4.763   6.500 -1.1038 -0.2805  0.0312
 4040SOL    HW113794   9.199   4.828   6.465  0.8360  0.8385 -1.4636
 4040SOL    HW213795   9.210   4.717   6.567 -3.1050  1.5729 -0.0790
 4041SOL     OW13796   7.943   1.191   1.309  0.0350  0.1752  0.1336
 4041SOL    HW113797   7.990   1.262   1.266 -2.3945  2.1467  0.4737
 4041SOL    HW213798   7.944   1.215   1.402 -0.6548 -0.3245  0.2804
 4042SOL     OW13799   7.753   7.002   4.516  0.0503  0.0125 -0.0012
 4042SOL    HW113800   7.668   7.029   4.482 -0.2153  0.4643  0.9963
 4042SOL    HW213801   7.805   7.082   4.518  0.4854 -0.2487 -0.5418
 4043SOL     OW13802   1.369   5.520   0.998 -0.0512  0.2459 -0.3067
 4043SOL    HW113803   1.402   5.437   1.033  0.9795  0.7749  0.0042
 4043SOL    HW213804   1.333   5.497   0.912  0.9972 -0.3876 -0.5929
 4044SOL     OW13805   7.443   5.752   8.524  0.7121  0.0633 -0.1336
 4044SOL    HW113806   7.447   5.731   8.431  2.9761  1.1345 -0.3341
 4044SOL    HW213807   7.483   5.676   8.567 -2.2168 -1.4352  0.2701
 4045SOL     OW13808   3.372   6.483   0.011 -0.2482  0.0921  0.1501
 4045SOL    HW113809   3.294   6.501   0.063  1.0044  0.3339  2.0272
 4045SOL    HW213810   3.384   6.388   0.017  0.1674  0.1759  0.7404
 4046SOL     OW13811   0.030   1.524   0.575 -0.0681 -0.0053  0.5324
 4046SOL    HW113812   0.079   1.596   0.616 -2.0388  1.0187  1.2139
 4046SOL    HW213813   0.047   1.448   0.631  1.8309 -0.0463 -0.0455
 4047SOL     OW13814   4.025   8.716   6.905 -0.0643 -0.1837  0.6286
 4047SOL    HW113815   4.099   8.775   6.913 -0.0085  0.1208 -1.5582
 4047SOL    HW213816   4.053   8.636   6.950  1.3476  0.1283  0.3463
 4048SOL     OW13817   2.207   5.010   8.441 -0.1767  0.0493 -0.5587
 4048SOL    HW113818   2.186   5.101   8.418 -0.9297 -0.3172 -1.3936
 4048SOL    HW213819   2.124   4.973   8.469 -0.0586 -0.6312 -1.0920
 4049SOL     OW13820   5.249   7.747   2.500  0.1749 -0.2502  0.3434
 4049SOL    HW113821   5.248   7.752   2.405 -0.1415  1.7253  0.4078
 4049SOL    HW213822   5.339   7.726   2.523  1.0347  2.3380 -0.3431
 4050SOL     OW13823   8.826   3.266   3.517 -0.3987  0.4109  0.3082
 4050SOL    HW113824   8.755   3.230   3.464  0.4765 -0.3506 -0.3934
 4050SOL    HW213825   8.905   3.224   3.482  0.4325  1.4627  0.8607
 4051SOL     OW13826   2.571   0.809   3.379 -0.2830  0.2509  0.0882
 4051SOL    HW113827   2.482   0.784   3.404 -0.2790 -0.1860 -0.3049
 4051SOL    HW213828   2.591   0.753   3.304  0.0473  0.8710 -0.2948
 4052SOL     OW13829   7.897   8.248   5.497 -0.1449 -0.5054 -0.1162
 4052SOL    HW113830   7.988   8.250   5.526 -0.5651  0.3708  1.2457
 4052SOL    HW213831   7.858   8.177   5.548  0.0471 -1.8005 -1.6849
 4053SOL     OW13832   6.519   1.259   3.268  0.6871 -0.1361  0.5326
 4053SOL    HW113833   6.588   1.205   3.307  2.0894  0.7198 -0.6706
 4053SOL    HW213834   6.555   1.287   3.184 -1.2738  0.0773 -0.2944
 4054SOL     OW13835   6.056   4.518   1.651 -0.3794  0.1488  0.4363
 4054SOL    HW113836   5.990   4.453   1.674  0.7668 -1.1048  0.2930
 4054SOL    HW213837   6.007   4.586   1.605 -1.5865 -0.6813  0.4396
 4055SOL     OW13838   8.065   3.961   7.442  0.0156  0.0743 -0.3119
 4055SOL    HW113839   8.043   4.044   7.398  1.8018 -0.5635 -2.6069
 4055SOL    HW213840   8.139   3.926   7.392  2.5603 -0.5908  3.5041
 4056SOL     OW13841   5.468   5.719   2.341  0.0922  0.1033  0.6414
 4056SOL    HW113842   5.391   5.670   2.313  1.0490 -0.4889 -1.0524
 4056SOL    HW213843   5.450   5.741   2.433 -0.0534 -4.1031  1.8024
 4057SOL     OW13844   2.585   7.398   1.535 -0.1642 -0.5255 -0.6977
 4057SOL    HW113845   2.571   7.393   1.629 -1.5921 -0.5082 -0.8816
 4057SOL    HW213846   2.680   7.400   1.524  0.0236  1.0784  0.8215
 4058SOL     OW13847   7.231   0.038   4.268 -0.0524  0.1805  0.7126
 4058SOL    HW113848   7.234  -0.056   4.283 -0.4486  0.1109  0.3885
 4058SOL    HW213849   7.210   0.047   4.175  2.7875  0.5932  0.0273
 4059SOL     OW13850   0.242   5.544   8.513 -0.0633 -0.4309  0.3723
 4059SOL    HW113851   0.191   5.465   8.493  0.5620 -1.1175  1.3544
 4059SOL    HW213852   0.208   5.572   8.599 -0.3984  0.4795 -0.0476
 4060SOL     OW13853   6.722   2.878   5.727  0.3795  0.1412 -0.1463
 4060SOL    HW113854   6.697   2.800   5.776  1.3730  0.1651  0.4295
 4060SOL    HW213855   6.639   2.923   5.709  0.0374  1.1453  3.1949
 4061SOL     OW13856   3.673   1.034   3.827  0.0636  0.0881  0.0751
 4061SOL    HW113857   3.755   1.058   3.784  0.3651 -1.1583 -0.0885
 4061SOL    HW213858   3.698   1.017   3.918  0.1195 -0.9550 -0.1301
 4062SOL     OW13859   4.212   5.835   0.462 -0.5878 -0.3482  0.5630
 4062SOL    HW113860   4.187   5.886   0.384 -0.3755 -0.4306  0.4388
 4062SOL    HW213861   4.131   5.794   0.491 -0.6513 -0.3880  0.3312
 4063SOL     OW13862   1.510   7.337   2.954 -0.0921 -0.1559  0.1530
 4063SOL    HW113863   1.500   7.334   2.859 -0.0148  1.3569  0.0779
 4063SOL    HW213864   1.532   7.247   2.978  1.9320 -0.1801 -1.5065
 4064SOL     OW13865   1.645   7.188   5.293 -0.5435 -0.1757  0.1091
 4064SOL    HW113866   1.686   7.101   5.285 -1.0329 -0.2394 -4.0181
 4064SOL    HW213867   1.714   7.243   5.329  1.9472 -1.1711 -2.6272
 4065SOL     OW13868   9.570   7.355   7.973 -0.6792  0.1021  0.0664
 4065SOL    HW113869   9.482   7.328   7.999 -0.2674 -2.4073 -0.9277
 4065SOL    HW213870   9.568   7.358   7.878  0.2397  0.2940  0.0383
 4066SOL     OW13871   4.394   3.301   8.122  0.9082 -0.1000  0.6726
 4066SOL    HW113872   4.474   3.251   8.109  0.9664  0.4610 -1.4435
 4066SOL    HW213873   4.357   3.311   8.034 -0.3638  1.4931  1.3380
 4067SOL     OW13874   3.305   2.746   8.887  0.1117 -0.5806  0.1572
 4067SOL    HW113875   3.215   2.777   8.871  0.6719  1.8796  1.2564
 4067SOL    HW213876   3.360   2.810   8.842  1.3686 -0.4757  1.7797
 4068SOL     OW13877   9.624   8.468   3.438  0.1581  0.3376 -0.5626
 4068SOL    HW113878   9.648   8.438   3.525 -1.8860  0.0343 -0.0598
 4068SOL    HW213879   9.706   8.467   3.388  1.2317 -0.1148  1.1542
 4069SOL     OW13880   8.520   7.204   8.690  0.4994 -0.7287 -0.2397
 4069SOL    HW113881   8.568   7.144   8.747  2.0717  0.6420 -0.0312
 4069SOL    HW213882   8.538   7.291   8.727 -0.1511  0.0275 -1.6307
 4070SOL     OW13883   7.633   0.420   9.446  0.5852 -0.4124  0.2460
 4070SOL    HW113884   7.723   0.392   9.462  0.0958 -2.5138 -0.2975
 4070SOL    HW213885   7.618   0.492   9.507  2.4893 -0.2921  0.6188
 4071SOL     OW13886   1.541   7.390   9.640  0.1977 -0.1463  0.1492
 4071SOL    HW113887   1.510   7.422   9.555 -1.3154  0.1982  0.8001
 4071SOL    HW213888   1.589   7.465   9.677 -0.6173  0.3125  0.3126
 4072SOL     OW13889   7.300   8.777   6.680  0.0802 -0.1680 -0.9350
 4072SOL    HW113890   7.363   8.785   6.751 -1.4728  0.7649  0.4187
 4072SOL    HW213891   7.317   8.851   6.623 -0.5127  0.7737  0.0715
 4073SOL     OW13892   4.362   7.226   8.717  0.0187 -0.4877 -0.3848
 4073SOL    HW113893   4.419   7.206   8.791 -2.1127 -0.8974  1.2568
 4073SOL    HW213894   4.317   7.144   8.699 -2.5842  0.5960  0.7494
 4074SOL     OW13895   7.117   3.286   9.488 -0.5500  0.2686 -0.1608
 4074SOL    HW113896   7.166   3.212   9.453 -0.0624  0.7449 -0.5006
 4074SOL    HW213897   7.030   3.250   9.508 -0.2735 -0.4258 -0.1740
 4075SOL     OW13898   4.818   7.819   9.210  0.0470 -0.3521  0.2088
 4075SOL    HW113899   4.906   7.857   9.222 -0.3142  0.2331  1.1411
 4075SOL    HW213900   4.813   7.801   9.117  0.7185  0.7374 -0.0692
 4076SOL     OW13901   1.162   3.846   9.540  0.5201  0.2332 -0.3979
 4076SOL    HW113902   1.236   3.893   9.578  1.1882 -0.0380 -1.3165
 4076SOL    HW213903   1.202   3.782   9.482 -0.2018 -3.0730  2.4120
 4077SOL     OW13904   2.553   9.307   3.834 -0.1547  0.2582  0.1192
 4077SOL    HW113905   2.490   9.378   3.822 -0.5800 -0.1186  0.0700
 4077SOL    HW213906   2.598   9.327   3.916 -1.3036 -0.1732  0.8881
 4078SOL     OW13907   1.485   4.239   6.627  0.1250 -0.3072 -0.7104
 4078SOL    HW113908   1.409   4.298   6.629 -0.4339 -1.0264  0.7112
 4078SOL    HW213909   1.453   4.161   6.582 -0.5363 -1.2487  1.2494
 4079SOL     OW13910   3.112   2.351   0.659  0.1237  0.0593  0.4775
 4079SOL    HW113911   3.174   2.361   0.731 -0.2570 -1.3125  1.0344
 4079SOL    HW213912   3.158   2.385   0.583  1.1237  0.1041  1.0829
 4080SOL     OW13913   5.667   7.363   5.064 -0.1248 -0.3747 -0.5140
 4080SOL    HW113914   5.684   7.318   4.982  0.7858 -1.9193  0.4707
 4080SOL    HW213915   5.582   7.331   5.092 -0.0478 -0.5156 -0.4390
 4081SOL     OW13916   7.144   6.615   7.748 -0.5787 -0.0515 -0.2483
 4081SOL    HW113917   7.150   6.697   7.798  1.5762  1.5570 -2.8364
 4081SOL    HW213918   7.206   6.556   7.791  0.8049  1.0837 -0.6215
 4082SOL     OW13919   7.821   9.102   9.355  0.2758  0.4052 -0.1623
 4082SOL    HW113920   7.767   9.069   9.283  0.8909  1.4406 -1.1378
 4082SOL    HW213921   7.769   9.173   9.392 -0.7573 -1.1214  1.5158
 4083SOL     OW13922   7.734   9.299   9.073 -0.5147  0.2645  0.3454
 4083SOL    HW113923   7.664   9.314   9.137 -0.3206  0.2528  0.5617
 4083SOL    HW213924   7.707   9.349   8.996 -1.3881 -0.7514 -0.0231
 4084SOL     OW13925   7.770   6.123   4.835 -0.0429  0.3474  0.0647
 4084SOL    HW113926   7.739   6.056   4.775  1.4734 -0.3266 -0.0128
 4084SOL    HW213927   7.690   6.160   4.873 -0.9862  0.0826 -1.5790
 4085SOL     OW13928   0.119   3.628   7.217 -0.0988 -0.6685  0.3380
 4085SOL    HW113929   0.120   3.681   7.137  0.4753 -0.4672  0.4726
 4085SOL    HW213930   0.181   3.672   7.275 -0.4369 -0.8739  0.8567
 4086SOL     OW13931   1.674   7.480   2.083 -0.1510 -0.5105  0.1302
 4086SOL    HW113932   1.685   7.549   2.148 -0.2853  0.6729 -1.0547
 4086SOL    HW213933   1.715   7.515   2.004 -0.7980 -1.5231 -0.6807
 4087SOL     OW13934   1.040   5.195   6.681  0.5404  0.2827  0.3312
 4087SOL    HW113935   1.001   5.238   6.757 -0.5567 -2.7991  1.6893
 4087SOL    HW213936   0.993   5.232   6.606 -3.7588 -1.6426  1.7367
 4088SOL     OW13937   8.434   8.392   3.661 -0.4843  0.5188  0.0708
 4088SOL    HW113938   8.511   8.378   3.606 -1.0517 -0.3653 -0.5249
 4088SOL    HW213939   8.462   8.456   3.726  1.0219 -0.4226  0.3906
 4089SOL     OW13940   7.458   2.536   0.705  0.1950  0.3281 -0.2473
 4089SOL    HW113941   7.503   2.599   0.648  0.3806  0.7207  0.3212
 4089SOL    HW213942   7.461   2.453   0.657  1.7335  0.2836 -0.1387
 4090SOL     OW13943   9.626   7.756   3.996  0.7934  0.1141 -0.1842
 4090SOL    HW113944   9.610   7.667   3.963  1.4448  0.1397 -0.5850
 4090SOL    HW213945   9.583   7.758   4.082 -3.5472  0.9005 -2.0708
 4091SOL     OW13946   3.049   1.899   0.379 -0.0997 -0.0557 -0.0700
 4091SOL    HW113947   3.015   1.904   0.468 -0.8340 -0.5638 -0.3080
 4091SOL    HW213948   3.088   1.812   0.373  0.1888  0.0787 -0.1650
 4092SOL     OW13949   7.114   9.466   7.762 -0.2327  0.0986  0.0748
 4092SOL    HW113950   7.097   9.558   7.740  1.0233 -0.3982 -3.6774
 4092SOL    HW213951   7.209   9.459   7.763 -0.3065 -1.0239  1.2857
 4093SOL     OW13952   3.607   4.636   6.761 -0.2330 -0.0164 -0.5404
 4093SOL    HW113953   3.608   4.545   6.792  0.8489  0.2525  0.2729
 4093SOL    HW213954   3.657   4.684   6.827 -0.2227  1.0599 -1.3142
 4094SOL     OW13955   6.011   3.231   0.313 -0.2096  0.6867  0.3006
 4094SOL    HW113956   5.960   3.160   0.274  1.2378 -1.6834  2.4040
 4094SOL    HW213957   6.064   3.265   0.240 -1.3423  0.0216 -0.8734
 4095SOL     OW13958   2.242   4.349   2.388 -0.0290  0.1085 -0.2229
 4095SOL    HW113959   2.312   4.308   2.337  0.0758  0.2574 -0.1986
 4095SOL    HW213960   2.246   4.442   2.364 -1.0035 -0.0729 -1.1605
 4096SOL     OW13961   7.154   0.005   0.359  0.8827  0.3704  0.2716
 4096SOL    HW113962   7.142   0.074   0.293  0.2974 -0.1264 -0.1587
 4096SOL    HW213963   7.247   0.007   0.379  0.8254  1.4676  0.4712
 4097SOL     OW13964   0.352   9.001   3.364  0.2098 -0.0865  0.0853
 4097SOL    HW113965   0.422   8.955   3.410 -0.0952 -0.4568  0.1815
 4097SOL    HW213966   0.397   9.068   3.313  0.5669  0.2498  0.8225
 4098SOL     OW13967   9.022   6.879   9.172  0.3278 -0.1999  0.2051
 4098SOL    HW113968   9.006   6.785   9.164 -0.5600 -0.2996  2.5520
 4098SOL    HW213969   9.092   6.886   9.237 -1.0387  0.7907  1.6325
 4099SOL     OW13970   4.563   3.453   2.441 -0.7353 -0.4283  0.6311
 4099SOL    HW113971   4.644   3.407   2.464 -0.5889 -1.4554 -1.6633
 4099SOL    HW213972   4.577   3.543   2.473  1.3671 -0.5376  0.2082
 4100SOL     OW13973   2.553   9.154   4.722  0.2486 -0.3421  0.1913
 4100SOL    HW113974   2.478   9.215   4.722  0.8965  0.4705  0.0109
 4100SOL    HW213975   2.583   9.153   4.813  0.0459 -0.6472  0.2583
 4101SOL     OW13976   0.291   9.012   9.061  0.1656 -0.1794 -0.0040
 4101SOL    HW113977   0.201   8.986   9.082  0.1337  0.9219  1.3146
 4101SOL    HW213978   0.282   9.077   8.992 -0.1477  0.7174  0.8557
 4102SOL     OW13979   7.032   0.488   3.914  0.1705 -0.2847 -0.8371
 4102SOL    HW113980   6.967   0.430   3.954 -1.6497  2.0172 -0.2240
 4102SOL    HW213981   7.114   0.465   3.958 -0.5788 -1.9461 -0.2063
 4103SOL     OW13982   7.639   9.606   7.949  0.2112 -0.1380 -0.3954
 4103SOL    HW113983   7.636   9.644   7.862  1.8074  0.3385 -0.2886
 4103SOL    HW213984   7.603   9.674   8.006  1.7143  0.6814 -0.3807
 4104SOL     OW13985   7.121   2.504   2.172  0.1307  0.0430  0.0664
 4104SOL    HW113986   7.059   2.536   2.237  1.0176 -0.8823  1.4195
 4104SOL    HW213987   7.072   2.441   2.120  0.1861 -1.5400  1.8488
 4105SOL     OW13988   1.289   7.942   2.836 -0.9671 -0.4774 -0.7784
 4105SOL    HW113989   1.336   7.975   2.759  1.4174 -1.4882  0.1328
 4105SOL    HW213990   1.312   7.849   2.840 -0.3366 -0.2907  1.5493
 4106SOL     OW13991   3.454   6.185   7.651  0.0714 -0.3621 -0.0361
 4106SOL    HW113992   3.485   6.112   7.598  0.8507  0.3950 -0.6363
 4106SOL    HW213993   3.513   6.257   7.631 -1.1421  0.6708 -0.0495
 4107SOL     OW13994   0.805   1.543   5.719 -0.1948 -0.3883 -0.3746
 4107SOL    HW113995   0.896   1.570   5.711  0.1130 -1.2257  0.1382
 4107SOL    HW213996   0.756   1.624   5.731  0.4162  0.1104 -1.1787
 4108SOL     OW13997   1.881   9.184   4.734  0.2180  0.4027 -0.8926
 4108SOL    HW113998   1.797   9.196   4.778  0.5628  1.7307 -0.5591
 4108SOL    HW213999   1.938   9.251   4.772  2.3399 -2.2756  1.0195
 4109SOL     OW14000   3.259   3.101   7.127  0.4449  0.1206 -0.2412
 4109SOL    HW114001   3.294   3.015   7.149 -0.6382 -0.2905 -0.0647
 4109SOL    HW214002   3.336   3.153   7.103  1.1023 -0.9194 -0.4492
 4110SOL     OW14003   6.770   3.545   5.454 -0.4183 -0.1683  0.2429
 4110SOL    HW114004   6.691   3.494   5.474 -1.1656  0.9260  0.1704
 4110SOL    HW214005   6.821   3.488   5.396 -1.7354 -0.4345 -0.7179
 4111SOL     OW14006   6.429   9.384   7.424 -0.1573  0.3612  0.3732
 4111SOL    HW114007   6.505   9.435   7.452  0.3435 -0.8525  1.3225
 4111SOL    HW214008   6.438   9.377   7.329  0.9843  0.1345  0.4860
 4112SOL     OW14009   8.929   6.768   4.910  0.3366 -1.1765 -0.2680
 4112SOL    HW114010   8.891   6.740   4.993 -0.4347 -0.0960 -0.2336
 4112SOL    HW214011   8.994   6.835   4.935  0.3346 -1.0836 -0.5110
 4113SOL     OW14012   7.723   5.223   7.686 -0.3447 -0.0142 -0.8353
 4113SOL    HW114013   7.784   5.162   7.727  0.7094 -0.0967 -2.4401
 4113SOL    HW214014   7.654   5.168   7.649 -1.0812  0.0346  0.3881
 4114SOL     OW14015   2.399   1.717   4.845 -0.2853  0.1219  0.7156
 4114SOL    HW114016   2.319   1.768   4.843  0.1822  0.9504 -2.7990
 4114SOL    HW214017   2.377   1.636   4.799  0.7919  0.2907 -0.1504
 4115SOL     OW14018   2.814   1.992   4.084 -0.4581 -0.2637  0.6584
 4115SOL    HW114019   2.744   1.974   4.147 -3.4823  2.9604 -1.4010
 4115SOL    HW214020   2.842   2.082   4.105 -0.1947  0.1607 -1.3411
 4116SOL     OW14021   5.561   9.087   4.428 -0.7773 -0.2096 -0.1930
 4116SOL    HW114022   5.573   9.128   4.343  2.0356 -0.9844 -0.2722
 4116SOL    HW214023   5.613   9.141   4.488 -1.6835 -0.4123  0.8174
 4117SOL     OW14024   6.254   8.181   4.777  0.0636  0.0466 -0.0580
 4117SOL    HW114025   6.298   8.249   4.725  0.3146 -1.4687 -1.9735
 4117SOL    HW214026   6.161   8.198   4.765  0.0451  1.5747  1.6893
 4118SOL     OW14027   1.053   2.702   6.737 -0.6230 -0.3038  0.1711
 4118SOL    HW114028   0.968   2.730   6.705 -1.2834 -2.8656 -0.5694
 4118SOL    HW214029   1.114   2.722   6.667 -0.8509  0.2993  0.1434
 4119SOL     OW14030   4.608   6.933   6.250 -0.0996  0.2076  0.4931
 4119SOL    HW114031   4.605   7.025   6.224  0.9518 -0.1833 -1.1283
 4119SOL    HW214032   4.670   6.893   6.190  1.1896 -1.1319  2.5918
 4120SOL     OW14033   7.132   4.683   0.548  0.6585  0.0404 -0.5267
 4120SOL    HW114034   7.127   4.593   0.581  0.6985  0.1618 -0.1878
 4120SOL    HW214035   7.113   4.675   0.454  1.8907 -0.4795 -0.7559
 4121SOL     OW14036   4.832   9.427   9.252  0.5411 -1.0468  0.2207
 4121SOL    HW114037   4.826   9.352   9.311 -1.1142 -0.8997  0.2813
 4121SOL    HW214038   4.920   9.462   9.267  0.2700 -1.1655  2.4125
 4122SOL     OW14039   7.611   6.769   4.059 -0.2455  0.2479 -0.4278
 4122SOL    HW114040   7.535   6.716   4.084 -2.0504  2.2563 -1.3168
 4122SOL    HW214041   7.585   6.810   3.976  3.0522 -1.3332 -2.4315
 4123SOL     OW14042   8.954   4.402   7.856 -0.1338 -0.3257  0.4912
 4123SOL    HW114043   8.990   4.330   7.909 -0.2912 -0.6144  0.2098
 4123SOL    HW214044   8.913   4.460   7.919  1.4306  0.3826  0.9104
 4124SOL     OW14045   2.476   6.751   8.488  0.3265  0.2901 -0.1975
 4124SOL    HW114046   2.470   6.840   8.523  2.6135  0.9199 -1.1900
 4124SOL    HW214047   2.406   6.746   8.422 -0.9560  0.6941  1.0802
 4125SOL     OW14048   0.144   8.833   1.438  0.5136 -0.2928  0.0793
 4125SOL    HW114049   0.227   8.786   1.445  0.8457  0.2782  0.0343
 4125SOL    HW214050   0.096   8.808   1.517  1.2159  0.3077  0.7088
 4126SOL     OW14051   6.800   0.321   1.835 -0.1579  0.2788 -0.3817
 4126SOL    HW114052   6.743   0.296   1.763  0.7858 -0.8540 -0.7790
 4126SOL    HW214053   6.858   0.246   1.847  1.4713  1.4969 -0.2308
 4127SOL     OW14054   1.444   0.220   8.163 -0.1068  0.1126  0.2187
 4127SOL    HW114055   1.379   0.284   8.134  0.4618 -0.0437 -1.5457
 4127SOL    HW214056   1.396   0.138   8.172 -0.3490  0.2215 -0.0873
 4128SOL     OW14057   4.916   4.660   1.444 -0.5961 -0.2928 -0.1343
 4128SOL    HW114058   4.933   4.748   1.477 -1.6865 -0.2633  0.3960
 4128SOL    HW214059   4.900   4.607   1.522 -0.5809 -0.8234 -0.4804
 4129SOL     OW14060   1.138   1.756   1.237  0.1648  0.0675 -0.2437
 4129SOL    HW114061   1.140   1.683   1.174  1.4159  1.7116 -2.2551
 4129SOL    HW214062   1.053   1.748   1.280 -0.4737 -1.5394 -1.6802
 4130SOL     OW14063   8.038   1.473   1.298 -0.1816  0.1934  0.5701
 4130SOL    HW114064   7.991   1.540   1.249 -2.4119 -2.4305 -1.1699
 4130SOL    HW214065   8.131   1.489   1.278 -0.8118  1.1565 -1.9429
 4131SOL     OW14066   4.211   8.634   5.308  0.4896 -0.2329 -0.5087
 4131SOL    HW114067   4.202   8.578   5.384  1.8912 -1.0365 -0.9054
 4131SOL    HW214068   4.305   8.650   5.300  0.1139  2.6820 -0.0693
 4132SOL     OW14069   4.174   3.708   0.083 -0.2286  0.1176 -0.5860
 4132SOL    HW114070   4.197   3.800   0.066 -0.4779  0.7160  1.9272
 4132SOL    HW214071   4.080   3.703   0.064 -0.5652  0.8309  0.7718
 4133SOL     OW14072   8.920   0.363   1.731 -0.1010 -0.1603 -0.0981
 4133SOL    HW114073   8.953   0.431   1.790  1.0440 -1.5136  0.9012
 4133SOL    HW214074   8.825   0.366   1.742 -0.0192  0.7896  0.4763
 4134SOL     OW14075   9.025   6.541   5.522 -0.3989 -0.3268 -0.2840
 4134SOL    HW114076   9.082   6.614   5.502 -0.7302 -0.0740 -0.3079
 4134SOL    HW214077   9.058   6.469   5.468 -0.1156 -0.1809 -0.3066
 4135SOL     OW14078   3.715   7.270   2.524  0.6042 -0.0568 -0.3778
 4135SOL    HW114079   3.650   7.207   2.554  1.4225  0.1153  1.9396
 4135SOL    HW214080   3.758   7.227   2.450 -0.0054 -1.5016  0.0755
 4136SOL     OW14081   3.655   5.073   9.148  0.3217  0.0165  0.0369
 4136SOL    HW114082   3.612   5.157   9.165 -1.7902 -1.0226  0.2128
 4136SOL    HW214083   3.662   5.031   9.234 -1.6510 -1.2743 -0.3422
 4137SOL     OW14084   4.195   4.932   6.532  1.2163  1.2953 -0.0766
 4137SOL    HW114085   4.139   4.988   6.586 -0.5019 -0.0704 -0.3180
 4137SOL    HW214086   4.171   4.954   6.442 -0.1510 -0.3274 -0.1800
 4138SOL     OW14087   2.892   0.965   3.535  0.3046 -0.7262 -0.2266
 4138SOL    HW114088   2.980   0.994   3.560  1.3138 -3.1053 -0.6524
 4138SOL    HW214089   2.895   0.870   3.547 -2.0571 -0.9230 -0.7827
 4139SOL     OW14090   3.290   4.829   2.685 -0.1036 -0.3160  0.4732
 4139SOL    HW114091   3.315   4.902   2.628  1.3871 -1.1010  0.0771
 4139SOL    HW214092   3.343   4.841   2.764 -1.0550 -0.0795  1.0980
 4140SOL     OW14093   1.367   5.608   2.787 -0.3725  0.4093  0.1435
 4140SOL    HW114094   1.432   5.669   2.753  1.6693 -0.8389  1.5986
 4140SOL    HW214095   1.284   5.654   2.778  0.8046  2.4437 -0.9302
 4141SOL     OW14096   5.657   6.896   0.562  0.1647 -0.1206 -0.5185
 4141SOL    HW114097   5.741   6.852   0.575 -0.4731 -1.0230  0.8584
 4141SOL    HW214098   5.602   6.832   0.518 -0.2251 -0.0626 -0.1300
 4142SOL     OW14099   4.924   1.332   2.520 -0.0297 -0.0710 -0.2560
 4142SOL    HW114100   4.902   1.288   2.438 -2.2865 -0.5294  0.5229
 4142SOL    HW214101   4.977   1.408   2.493  1.9422 -1.8667 -1.8216
 4143SOL     OW14102   0.338   9.412   2.513  0.1971 -0.1949 -0.3711
 4143SOL    HW114103   0.368   9.415   2.603 -0.4455 -0.6150 -0.1378
 4143SOL    HW214104   0.254   9.459   2.514 -0.4408 -1.2868 -0.4849
 4144SOL     OW14105   2.808   6.170   3.208 -0.0830 -0.1151  0.2144
 4144SOL    HW114106   2.895   6.135   3.192 -0.1196  0.4255 -1.3503
 4144SOL    HW214107   2.768   6.109   3.270  0.8570 -1.2159 -0.2358
 4145SOL     OW14108   1.138   3.377   2.739  0.0793  0.2028  0.5773
 4145SOL    HW114109   1.215   3.373   2.682 -0.5993  0.5502 -0.3912
 4145SOL    HW214110   1.082   3.444   2.699 -1.8467 -1.7398 -0.2148
 4146SOL     OW14111   2.609   4.167   8.953 -0.2811  0.0774 -0.5242
 4146SOL    HW114112   2.642   4.242   9.003  0.9765 -1.6972  1.4799
 4146SOL    HW214113   2.623   4.192   8.861  2.7992  1.1963  0.1241
 4147SOL     OW14114   5.745   9.388   3.606  0.6581 -0.1124  0.1090
 4147SOL    HW114115   5.781   9.342   3.530 -2.9191 -1.0951 -1.1846
 4147SOL    HW214116   5.743   9.322   3.675  0.6878 -0.2663 -0.0361
 4148SOL     OW14117   2.144   3.101   9.008  0.0607  0.1812 -0.2793
 4148SOL    HW114118   2.199   3.075   9.082 -0.1354 -0.5633 -0.3840
 4148SOL    HW214119   2.110   3.187   9.032 -0.3977 -0.2604  0.7245
 4149SOL     OW14120   2.410   5.519   2.216  0.3801  0.3315  0.6449
 4149SOL    HW114121   2.457   5.545   2.136  1.6325 -0.7469  0.9959
 4149SOL    HW214122   2.451   5.437   2.243 -1.1021 -0.1653  1.5249
 4150SOL     OW14123   8.813   4.602   6.349 -0.3738  0.4321 -0.5788
 4150SOL    HW114124   8.822   4.638   6.438  0.9089 -4.0412  1.3841
 4150SOL    HW214125   8.719   4.586   6.338 -0.3815 -0.6915  0.8439
 4151SOL     OW14126   9.624   5.239   3.858  0.1670  0.2437  0.2678
 4151SOL    HW114127   9.537   5.279   3.854  1.0853  2.3205 -0.1696
 4151SOL    HW214128   9.660   5.269   3.942  0.3695 -0.8221  0.5700
 4152SOL     OW14129   6.912   3.532   9.064  0.0419  0.3759 -0.0460
 4152SOL    HW114130   6.839   3.472   9.052  0.7215 -0.4676 -0.0484
 4152SOL    HW214131   6.907   3.591   8.989 -1.7894  1.5886  0.9542
 4153SOL     OW14132   1.686   2.929   8.289  0.0426  0.2293 -0.4821
 4153SOL    HW114133   1.742   2.855   8.312  0.1344  0.1906 -0.8244
 4153SOL    HW214134   1.642   2.902   8.208 -2.0574 -0.6053  0.8520
 4154SOL     OW14135   5.109   5.944   1.019 -0.2966 -0.4482 -0.5264
 4154SOL    HW114136   5.163   5.995   0.958 -1.2123 -0.1131 -1.0781
 4154SOL    HW214137   5.030   5.996   1.031  0.1127 -0.2270  1.4487
 4155SOL     OW14138   9.197   6.817   4.049 -0.5658  0.0501  0.0502
 4155SOL    HW114139   9.269   6.828   4.112 -0.9170 -0.0964  0.4855
 4155SOL    HW214140   9.171   6.906   4.027  0.1026  0.1078 -0.5231
 4156SOL     OW14141   9.100   4.262   3.442  0.0205 -0.2455 -0.4339
 4156SOL    HW114142   9.036   4.332   3.429 -0.5082 -0.8751 -1.3985
 4156SOL    HW214143   9.153   4.291   3.516 -2.0759 -0.1925  1.1347
 4157SOL     OW14144   2.069   0.412   7.687 -0.4192  0.5110  0.0770
 4157SOL    HW114145   2.125   0.347   7.729  0.9948  0.7718 -1.3123
 4157SOL    HW214146   1.994   0.421   7.746  1.1085  0.3444  2.1478
 4158SOL     OW14147   1.076   3.339   6.234 -0.0343  0.2725 -0.1546
 4158SOL    HW114148   1.012   3.275   6.265 -0.1314  0.4120 -0.0673
 4158SOL    HW214149   1.081   3.323   6.140  0.0210  0.0656 -0.1181
 4159SOL     OW14150   6.074   7.961   0.255  0.3858  0.0404  0.2505
 4159SOL    HW114151   5.984   7.966   0.287  0.6024  2.3463  0.6496
 4159SOL    HW214152   6.066   7.968   0.160  0.1854  1.6961  0.3646
 4160SOL     OW14153   6.409   6.193   0.880 -0.0384 -0.4629 -0.3600
 4160SOL    HW114154   6.436   6.254   0.811 -0.9079  0.4768  0.0881
 4160SOL    HW214155   6.408   6.107   0.838 -0.0510  0.0197 -1.3739
 4161SOL     OW14156   0.868   0.358   1.709  0.1457 -0.8872 -0.6087
 4161SOL    HW114157   0.964   0.362   1.700  0.4160 -2.7103  0.7276
 4161SOL    HW214158   0.849   0.264   1.715 -1.9264 -0.6474 -2.4133
 4162SOL     OW14159   9.573   5.954   2.589  0.1010  0.2703  0.5031
 4162SOL    HW114160   9.525   6.018   2.537  0.2326  0.2411  0.3462
 4162SOL    HW214161   9.579   5.994   2.676 -0.1589  0.2980  0.5084
 4163SOL     OW14162   7.262   7.326   6.814  0.4401 -0.4151 -0.3988
 4163SOL    HW114163   7.355   7.347   6.804  0.7031 -0.6158  1.4373
 4163SOL    HW214164   7.261   7.242   6.860 -0.6580 -0.5062 -0.5744
 4164SOL     OW14165   5.952   9.222   2.172  0.6834 -0.5800 -0.0186
 4164SOL    HW114166   5.978   9.315   2.176 -1.7729  0.2664 -1.4272
 4164SOL    HW214167   5.876   9.221   2.114 -1.2910 -3.0552  2.3331
 4165SOL     OW14168   1.123   9.284   7.961  0.2480 -0.1099  0.5284
 4165SOL    HW114169   1.166   9.241   8.034 -0.6341 -1.2256  0.4021
 4165SOL    HW214170   1.074   9.215   7.917 -1.9495  1.1548  0.8547
 4166SOL     OW14171   3.770   7.357   9.453  0.4079 -0.3276  0.1875
 4166SOL    HW114172   3.835   7.322   9.392  1.0115 -3.5186  2.4117
 4166SOL    HW214173   3.688   7.317   9.426  0.6246 -1.5207  1.2310
 4167SOL     OW14174   0.215   2.197   2.547 -0.0716  0.8307 -0.4229
 4167SOL    HW114175   0.279   2.268   2.554  0.1701  0.4656  2.1874
 4167SOL    HW214176   0.266   2.118   2.564 -0.7762  0.2925 -0.7937
 4168SOL     OW14177   7.447   7.387   0.799  0.2268  0.7899  0.0353
 4168SOL    HW114178   7.427   7.324   0.869  0.5185  1.3701  0.6483
 4168SOL    HW214179   7.503   7.338   0.739  1.3995  0.7826  1.0922
 4169SOL     OW14180   5.622   7.149   0.656  0.1897 -0.8894 -0.2544
 4169SOL    HW114181   5.632   7.057   0.632 -0.4653 -0.8217 -0.8319
 4169SOL    HW214182   5.600   7.193   0.574 -1.8775 -0.6112  0.3903
 4170SOL     OW14183   5.693   6.025   6.332  0.2968  0.5042  0.3961
 4170SOL    HW114184   5.693   6.040   6.238 -1.6664  1.0198  0.4367
 4170SOL    HW214185   5.742   6.099   6.368 -0.6518  1.4113 -0.1148
 4171SOL     OW14186   6.208   1.742   1.738 -0.5977  0.0741 -0.4030
 4171SOL    HW114187   6.162   1.661   1.760  0.0424 -0.0025  0.7674
 4171SOL    HW214188   6.250   1.723   1.654 -1.4310 -0.3784 -0.7345
 4172SOL     OW14189   6.674   1.162   9.629 -0.6463 -0.3942 -0.3483
 4172SOL    HW114190   6.590   1.201   9.605 -1.4946 -1.8594  0.1074
 4172SOL    HW214191   6.653   1.105   9.703  0.8919 -0.2281  0.2401
 4173SOL     OW14192   7.433   1.607   1.306  0.0231  0.1875 -0.2068
 4173SOL    HW114193   7.517   1.646   1.329 -0.1136  0.1950  0.2932
 4173SOL    HW214194   7.436   1.596   1.211  0.6441  0.0529 -0.1718
 4174SOL     OW14195   1.690   0.199   5.115 -0.2684 -0.0741  0.0942
 4174SOL    HW114196   1.737   0.208   5.032 -0.8154  0.4288 -0.1676
 4174SOL    HW214197   1.740   0.250   5.178 -0.0637 -0.1418 -0.0134
 4175SOL     OW14198   3.816   2.323   3.967 -0.3060 -0.1789 -0.2227
 4175SOL    HW114199   3.771   2.378   3.903 -1.5570 -1.5272 -0.5422
 4175SOL    HW214200   3.909   2.342   3.953 -0.5810  0.0674 -1.9567
 4176SOL     OW14201   1.178   8.586   2.956 -0.3153 -0.3310  0.5512
 4176SOL    HW114202   1.171   8.656   3.021 -0.1512  0.4944 -0.2863
 4176SOL    HW214203   1.266   8.598   2.919 -0.8415 -0.0218 -0.6383
 4177SOL     OW14204   5.985   3.338   3.817 -0.1217  0.3773  0.0860
 4177SOL    HW114205   6.032   3.402   3.870  0.5553  0.0938 -0.1645
 4177SOL    HW214206   5.969   3.383   3.733  2.0289 -0.3811 -0.7989
 4178SOL     OW14207   1.915   7.084   4.103  0.5200  0.0105  0.4063
 4178SOL    HW114208   1.857   7.138   4.157 -0.1601 -0.6190  0.3151
 4178SOL    HW214209   1.944   7.143   4.034 -2.1484 -0.3253 -1.1360
 4179SOL     OW14210   9.291   1.204   1.449 -0.4034  0.3820  0.5045
 4179SOL    HW114211   9.234   1.189   1.524 -1.0012 -0.0098 -0.0151
 4179SOL    HW214212   9.257   1.285   1.410 -0.0807  0.5979  0.6736
 4180SOL     OW14213   5.102   2.139   2.735 -0.5604  0.6143 -0.0644
 4180SOL    HW114214   5.090   2.055   2.691  0.5921  0.1448  0.4753
 4180SOL    HW214215   5.181   2.176   2.696  1.0730 -0.2564  2.1991
 4181SOL     OW14216   7.516   7.408   6.832 -0.0374 -0.0297 -0.1735
 4181SOL    HW114217   7.601   7.405   6.787  0.6305 -0.1513  1.0589
 4181SOL    HW214218   7.523   7.484   6.891 -0.4182 -0.6187  0.6454
 4182SOL     OW14219   2.996   0.060   1.297 -0.2419  0.0784  0.1846
 4182SOL    HW114220   3.089   0.045   1.278  0.0435  1.2446  0.5201
 4182SOL    HW214221   2.956  -0.026   1.293  0.9995 -0.5564  0.7984
 4183SOL     OW14222   1.270   5.731   3.973  0.9662 -0.0462 -0.0845
 4183SOL    HW114223   1.301   5.797   3.911  0.1133 -0.9099 -1.4733
 4183SOL    HW214224   1.280   5.773   4.059  2.6894  0.9647 -0.7353
 4184SOL     OW14225   6.418   6.641   4.325  0.3381  0.5992 -0.4550
 4184SOL    HW114226   6.367   6.596   4.258  0.1965 -1.0984  0.7277
 4184SOL    HW214227   6.387   6.604   4.408  4.2301 -1.4205  0.3119
 4185SOL     OW14228   6.732   6.368   3.759 -0.0753 -0.0057  0.7279
 4185SOL    HW114229   6.715   6.301   3.692 -1.7020  0.9092  0.1822
 4185SOL    HW214230   6.689   6.335   3.837 -1.0314  0.4515  0.4115
 4186SOL     OW14231   4.231   7.985   4.604  0.0098  0.7331  0.4322
 4186SOL    HW114232   4.269   8.070   4.627  1.7884  0.0896  0.0442
 4186SOL    HW214233   4.306   7.930   4.584 -1.0146 -1.3198  1.8956
 4187SOL     OW14234   8.690   6.526   8.797  0.5181  0.4067  0.0440
 4187SOL    HW114235   8.690   6.561   8.708 -1.5211 -0.8320 -0.5026
 4187SOL    HW214236   8.608   6.556   8.835  0.8251 -0.0639  1.1259
 4188SOL     OW14237   0.708   6.176   0.128 -0.0449  0.0453 -0.0852
 4188SOL    HW114238   0.668   6.113   0.068  2.4121 -1.2930 -0.4300
 4188SOL    HW214239   0.718   6.256   0.076 -1.7752  0.3021 -0.1009
 4189SOL     OW14240   2.446   4.867   7.221 -0.3050  0.4154  0.1457
 4189SOL    HW114241   2.398   4.937   7.177  2.8053  1.2632 -2.2769
 4189SOL    HW214242   2.534   4.901   7.232  0.8059 -2.3631  0.8154
 4190SOL     OW14243   1.951   7.052   0.357  0.4467  0.2286 -0.0507
 4190SOL    HW114244   1.882   7.038   0.293  1.1977  0.3592 -0.9015
 4190SOL    HW214245   1.942   6.979   0.419  1.6858 -1.7351 -2.0629
 4191SOL     OW14246   6.194   4.792   0.431 -0.6308  0.3155 -0.1066
 4191SOL    HW114247   6.288   4.806   0.440 -0.5758  0.6111 -1.0362
 4191SOL    HW214248   6.184   4.696   0.435 -0.3464  0.3069  0.4475
 4192SOL     OW14249   3.192   6.462   8.665 -0.1445 -0.1162 -0.8709
 4192SOL    HW114250   3.270   6.473   8.718 -0.3044 -1.1614 -0.3957
 4192SOL    HW214251   3.162   6.551   8.648 -0.7023  0.2868  1.7246
 4193SOL     OW14252   1.241   3.548   7.553 -0.0953  0.3307 -0.4684
 4193SOL    HW114253   1.189   3.597   7.489 -1.0871  0.4752  0.4223
 4193SOL    HW214254   1.188   3.471   7.572  0.7787 -0.3574 -0.7454
 4194SOL     OW14255   3.514   5.322   0.512 -0.3474  0.2644  0.0752
 4194SOL    HW114256   3.540   5.383   0.581 -1.5849  0.0583  0.7619
 4194SOL    HW214257   3.549   5.359   0.432 -0.1628  1.3074  0.6297
 4195SOL     OW14258   7.405   6.704   5.604 -0.2844 -0.1348 -0.4247
 4195SOL    HW114259   7.483   6.718   5.551  0.4268 -1.2351  0.2774
 4195SOL    HW214260   7.396   6.608   5.608 -1.3214 -0.0295  0.0015
 4196SOL     OW14261   4.994   4.975   7.050  0.1297 -0.2180  0.0865
 4196SOL    HW114262   4.991   5.071   7.046 -1.4130 -0.2806 -1.7206
 4196SOL    HW214263   4.903   4.948   7.058  0.6053 -1.5450  1.3353
 4197SOL     OW14264   5.334   4.367   1.720  0.8380 -0.1197  0.1402
 4197SOL    HW114265   5.384   4.291   1.749  0.5049 -0.4213 -0.0658
 4197SOL    HW214266   5.301   4.406   1.801  0.7879 -0.3481  0.2294
 4198SOL     OW14267   4.904   0.241   7.840 -0.2723 -0.4356 -0.5430
 4198SOL    HW114268   4.835   0.303   7.864  0.5796  0.3769 -0.1318
 4198SOL    HW214269   4.900   0.173   7.906 -2.2553 -1.7019 -1.8740
 4199SOL     OW14270   8.393   0.382   8.137  0.5705  0.0556 -0.1093
 4199SOL    HW114271   8.461   0.375   8.205 -0.0974 -1.2396  0.4771
 4199SOL    HW214272   8.398   0.298   8.090  0.2551  0.4843 -0.9249
 4200SOL     OW14273   2.207   6.774   2.178  0.3187 -0.2904 -0.1265
 4200SOL    HW114274   2.216   6.854   2.230  0.3396  0.1683 -0.8111
 4200SOL    HW214275   2.252   6.795   2.096 -0.5300 -0.6511 -0.6961
 4201SOL     OW14276   2.296   0.198   9.034 -0.3604 -0.5826  0.5309
 4201SOL    HW114277   2.337   0.125   9.079 -0.3245 -0.4935  0.6451
 4201SOL    HW214278   2.343   0.275   9.066  0.1970 -0.5798 -0.2605
 4202SOL     OW14279   9.543   0.860   0.064  0.5917 -0.1863 -0.0101
 4202SOL    HW114280   9.448   0.865   0.054  0.5888 -2.0152 -1.4254
 4202SOL    HW214281   9.576   0.937   0.017 -0.1691  0.3639  0.3378
 4203SOL     OW14282   4.840   8.350   4.302 -0.3613 -0.9157  0.1183
 4203SOL    HW114283   4.892   8.274   4.278  0.9639 -0.4195  1.3023
 4203SOL    HW214284   4.771   8.315   4.359 -0.3918 -1.3486 -0.1757
 4204SOL     OW14285   7.839   7.612   0.776  0.0755 -1.0854 -0.0523
 4204SOL    HW114286   7.790   7.600   0.858  0.9846 -1.2919  0.4722
 4204SOL    HW214287   7.834   7.526   0.733  1.4258 -1.6355  0.8282
 4205SOL     OW14288   9.514   3.045   3.276 -0.3146  0.1044  0.9016
 4205SOL    HW114289   9.554   3.111   3.219  1.1130  0.5651  2.3502
 4205SOL    HW214290   9.420   3.055   3.262 -0.0594  1.3137 -0.1445
 4206SOL     OW14291   8.195   0.994   3.365  0.2466  0.3686  0.4646
 4206SOL    HW114292   8.152   1.049   3.300 -0.2624 -0.3388  0.1907
 4206SOL    HW214293   8.199   1.048   3.444 -1.1734  0.4457  0.5097
 4207SOL     OW14294   6.880   0.106   1.252 -0.0873  0.8558  0.3598
 4207SOL    HW114295   6.939   0.091   1.326  0.5123 -0.1805 -0.3008
 4207SOL    HW214296   6.794   0.079   1.285  0.1623  0.4645  0.7110
 4208SOL     OW14297   6.033   2.852   6.126  0.0053 -0.4553  0.0761
 4208SOL    HW114298   6.063   2.940   6.106  0.0082 -0.3578  0.4979
 4208SOL    HW214299   5.945   2.864   6.162  0.4432 -0.5154  1.2076
 4209SOL     OW14300   6.391   8.933   4.604 -0.3657 -0.0292 -0.6157
 4209SOL    HW114301   6.413   8.995   4.534  1.9870 -0.0941 -0.0324
 4209SOL    HW214302   6.445   8.856   4.585  0.6944  0.1192  1.4525
 4210SOL     OW14303   4.513   8.407   5.976  0.7492  0.5356 -0.5309
 4210SOL    HW114304   4.450   8.406   6.048  2.5121  1.0907  1.1148
 4210SOL    HW214305   4.493   8.487   5.928 -1.6058 -0.7397 -1.8276
 4211SOL     OW14306   0.406   3.009   5.403  0.2741  0.2265  0.3683
 4211SOL    HW114307   0.403   2.938   5.338  0.6913  1.0726 -0.6188
 4211SOL    HW214308   0.368   3.084   5.357 -0.0082  0.6889  1.3386
 4212SOL     OW14309   3.041   3.871   2.464 -0.3855  0.1364 -0.0674
 4212SOL    HW114310   3.073   3.913   2.384  1.3818 -2.2688 -0.7261
 4212SOL    HW214311   3.062   3.934   2.533  3.7157 -0.1529 -0.7925
 4213SOL     OW14312   9.495   6.081   3.452 -0.1816  0.2453  0.7563
 4213SOL    HW114313   9.579   6.098   3.410 -1.2761  0.1242 -1.6185
 4213SOL    HW214314   9.500   5.989   3.477  0.3767  0.2212  0.5849
 4214SOL     OW14315   4.575   9.559   1.521  0.3677  0.2810 -0.1826
 4214SOL    HW114316   4.671   9.553   1.515  0.3124 -0.3804 -0.5268
 4214SOL    HW214317   4.557   9.559   1.615  0.7409  1.1900 -0.0966
 4215SOL     OW14318   3.372   8.487   3.648 -0.1314  0.6368  0.3395
 4215SOL    HW114319   3.433   8.446   3.709  0.4226  0.8547 -0.0609
 4215SOL    HW214320   3.402   8.460   3.561 -1.0909  0.0896  0.1659
 4216SOL     OW14321   5.146   8.224   0.775 -0.3963 -0.3045 -0.3034
 4216SOL    HW114322   5.111   8.282   0.842  3.2434  1.7728  0.0957
 4216SOL    HW214323   5.208   8.168   0.821 -0.6823 -1.5776 -1.3953
 4217SOL     OW14324   1.687   5.505   3.086 -0.0131  0.4725 -0.2490
 4217SOL    HW114325   1.773   5.500   3.127  0.1608 -1.8010 -0.7623
 4217SOL    HW214326   1.626   5.519   3.159  0.6684  0.7991  0.2659
 4218SOL     OW14327   3.557   6.188   3.190  0.0303 -1.0152  0.1090
 4218SOL    HW114328   3.586   6.111   3.239 -1.1879 -2.3568 -1.1593
 4218SOL    HW214329   3.536   6.252   3.257  1.2076 -1.7353  1.2052
 4219SOL     OW14330   2.015   7.072   2.276  0.0949  0.2274 -0.2824
 4219SOL    HW114331   1.945   7.127   2.312 -0.5611 -1.2967  0.8640
 4219SOL    HW214332   1.971   7.021   2.208  0.3680  0.0922 -0.3557
 4220SOL     OW14333   0.419   9.201   0.301  0.3648 -0.2802  0.2179
 4220SOL    HW114334   0.512   9.181   0.293  0.1802 -1.6973  1.1684
 4220SOL    HW214335   0.414   9.264   0.373  0.5248 -1.0970  0.9718
 4221SOL     OW14336   1.478   0.733   5.172 -0.1554  0.4489 -0.0853
 4221SOL    HW114337   1.483   0.761   5.080 -2.3255  0.5012 -0.2402
 4221SOL    HW214338   1.411   0.790   5.210  0.1970 -0.0698  1.3493
 4222SOL     OW14339   4.608   6.425   3.558 -0.4733  0.2691  0.1666
 4222SOL    HW114340   4.638   6.336   3.540 -0.8388  0.2107 -0.1631
 4222SOL    HW214341   4.689   6.477   3.563 -0.3431  0.4358 -2.4153
 4223SOL     OW14342   4.360   6.874   6.858  0.6926  0.3228  0.6334
 4223SOL    HW114343   4.366   6.925   6.777 -0.6803  1.4239  1.1884
 4223SOL    HW214344   4.450   6.866   6.887  1.0408  1.6381  0.0190
 4224SOL     OW14345   1.697   4.162   1.192 -0.6523 -0.2931  0.2187
 4224SOL    HW114346   1.737   4.166   1.105 -0.7230  2.1199  0.2057
 4224SOL    HW214347   1.604   4.176   1.176 -0.7117 -0.1961  0.6490
 4225SOL     OW14348   8.363   8.270   9.049  0.0347 -0.1367 -0.1377
 4225SOL    HW114349   8.392   8.322   9.125  1.5307 -0.0051 -0.7615
 4225SOL    HW214350   8.295   8.323   9.008 -1.6347 -0.7210  1.7291
 4226SOL     OW14351   1.142   5.268   2.257 -0.2655  0.1010  0.0824
 4226SOL    HW114352   1.171   5.255   2.347  0.6748  1.4666  0.0093
 4226SOL    HW214353   1.101   5.355   2.257 -4.7928 -1.7763  0.2461
 4227SOL     OW14354   8.349   5.688   0.699 -0.4337 -0.3949 -0.0689
 4227SOL    HW114355   8.313   5.635   0.770  0.4019 -1.4641 -0.4138
 4227SOL    HW214356   8.277   5.746   0.673 -1.0323 -0.6210  1.0268
 4228SOL     OW14357   3.248   5.110   5.081  0.1178 -0.0109 -0.8464
 4228SOL    HW114358   3.203   5.038   5.037 -0.4670  0.0399 -0.3482
 4228SOL    HW214359   3.320   5.133   5.022  0.7714 -1.4834 -0.6653
 4229SOL     OW14360   1.354   8.991   7.187 -0.1852 -0.5194  0.6282
 4229SOL    HW114361   1.445   8.988   7.216  0.1521  0.7691 -0.2372
 4229SOL    HW214362   1.329   9.083   7.195 -0.2336 -0.1475 -2.5317
 4230SOL     OW14363   7.219   7.126   5.011  0.6517 -0.9260 -0.1582
 4230SOL    HW114364   7.286   7.195   5.007  1.1219 -1.3660 -4.4443
 4230SOL    HW214365   7.136   7.174   5.014  0.9645 -0.0229 -3.1702
 4231SOL     OW14366   1.199   3.931   7.679  0.3040 -0.5421  0.3292
 4231SOL    HW114367   1.121   3.904   7.729 -0.1869  0.9249  0.3961
 4231SOL    HW214368   1.237   4.002   7.730  1.0240 -0.4568 -0.3069
 4232SOL     OW14369   3.569   6.646   4.689 -0.8848  0.1750 -0.2599
 4232SOL    HW114370   3.630   6.665   4.760 -0.4242 -0.7660 -0.3949
 4232SOL    HW214371   3.623   6.646   4.610 -0.9715 -1.0313 -0.3379
 4233SOL     OW14372   4.283   8.515   3.651  0.4658  0.2967  0.6402
 4233SOL    HW114373   4.309   8.479   3.567 -2.5029  0.1363 -0.3209
 4233SOL    HW214374   4.188   8.522   3.646  0.2477  1.0621  3.6915
 4234SOL     OW14375   1.604   4.808   0.507 -0.4477 -0.5275  0.2539
 4234SOL    HW114376   1.650   4.874   0.559  0.2807 -0.9844  0.2034
 4234SOL    HW214377   1.517   4.845   0.493 -0.7083 -0.4472  1.9032
 4235SOL     OW14378   4.529   3.569   7.606  0.3037 -0.7260  0.0493
 4235SOL    HW114379   4.620   3.597   7.596 -0.0118  0.0893 -0.6707
 4235SOL    HW214380   4.503   3.544   7.518 -0.6874  0.7131 -0.0971
 4236SOL     OW14381   6.291   3.565   2.770 -0.5674  0.4870  0.1136
 4236SOL    HW114382   6.290   3.653   2.806  0.4718 -0.5536  2.9655
 4236SOL    HW214383   6.218   3.521   2.813 -1.3418  0.0332 -1.6044
 4237SOL     OW14384   3.530   6.528   5.401  0.1795 -0.6062  0.0078
 4237SOL    HW114385   3.508   6.464   5.469 -0.4518  0.7992  1.1850
 4237SOL    HW214386   3.540   6.611   5.448  0.5063  0.2722 -1.5232
 4238SOL     OW14387   2.228   2.030   6.722  0.4463  0.0238 -0.1773
 4238SOL    HW114388   2.237   2.124   6.708  1.0325  0.2771  1.6439
 4238SOL    HW214389   2.277   1.990   6.650 -0.6781  1.0692 -1.5599
 4239SOL     OW14390   1.788   4.731   2.294  0.2717 -0.0900  0.0400
 4239SOL    HW114391   1.739   4.761   2.370 -0.9467  0.2695 -0.8683
 4239SOL    HW214392   1.850   4.802   2.275 -1.3597  1.1200 -0.9992
 4240SOL     OW14393   8.451   2.616   0.879  0.0416 -0.0411 -0.1649
 4240SOL    HW114394   8.497   2.700   0.883  0.0659  0.0248 -1.4469
 4240SOL    HW214395   8.373   2.629   0.933  0.8200  0.2797  0.9342
 4241SOL     OW14396   5.453   4.180   2.834 -0.2112 -0.5526 -0.0484
 4241SOL    HW114397   5.443   4.153   2.743  0.0196 -1.0216  0.0650
 4241SOL    HW214398   5.492   4.267   2.828  1.6210 -1.3477 -0.3871
 4242SOL     OW14399   9.314   6.353   6.999  0.4413 -0.1889  0.1483
 4242SOL    HW114400   9.308   6.266   6.961  0.0208 -1.2500  2.4424
 4242SOL    HW214401   9.408   6.369   7.008  0.5227 -0.3054 -0.5055
 4243SOL     OW14402   8.553   0.084   5.466  0.3134 -0.2819 -0.6504
 4243SOL    HW114403   8.499   0.163   5.459  1.3714  0.5320  0.0224
 4243SOL    HW214404   8.491   0.012   5.471 -0.7369  0.6760  0.6823
 4244SOL     OW14405   8.768   6.674   5.681 -0.0877  0.2289 -0.0441
 4244SOL    HW114406   8.709   6.600   5.695 -0.3701  0.0089 -2.1317
 4244SOL    HW214407   8.854   6.633   5.667  0.5877  0.5327  2.6356
 4245SOL     OW14408   9.657   8.102   7.214  0.3853  0.1311  0.0496
 4245SOL    HW114409   9.752   8.090   7.212  0.4876  0.4056 -3.2773
 4245SOL    HW214410   9.627   8.066   7.130 -2.1101  2.1616 -0.0600
 4246SOL     OW14411   7.111   5.437   5.130 -0.0600 -0.4399 -0.4634
 4246SOL    HW114412   7.159   5.414   5.051  0.7478  0.0206 -0.1230
 4246SOL    HW214413   7.137   5.372   5.195  2.3653  1.3839  0.5499
 4247SOL     OW14414   6.891   5.257   4.979 -0.4021  0.1883  0.3156
 4247SOL    HW114415   6.980   5.287   4.961 -0.7364  0.8503 -0.3036
 4247SOL    HW214416   6.898   5.162   4.984  0.3846  0.2528  0.5415
 4248SOL     OW14417   8.620   9.257   9.280 -0.2301 -0.1418  0.3498
 4248SOL    HW114418   8.638   9.201   9.355 -0.8334  0.2951  0.8360
 4248SOL    HW214419   8.525   9.271   9.283 -0.1521  0.5120 -0.0311
 4249SOL     OW14420   5.654   6.442   5.380  0.2504 -0.5337 -0.4195
 4249SOL    HW114421   5.609   6.357   5.377 -0.6834 -0.2002  1.8742
 4249SOL    HW214422   5.693   6.452   5.293  0.4590 -3.3398 -0.7437
 4250SOL     OW14423   0.298   4.080   3.150 -0.0488  0.2535 -0.3335
 4250SOL    HW114424   0.202   4.072   3.147 -0.1461 -0.8938  2.4171
 4250SOL    HW214425   0.329   3.992   3.127  0.3031  0.3480 -0.2109
 4251SOL     OW14426   8.934   1.756   5.381 -0.5591 -0.1924  0.2210
 4251SOL    HW114427   9.011   1.813   5.386  0.2348 -1.1096 -1.0243
 4251SOL    HW214428   8.886   1.774   5.462  1.3171 -0.1061  1.3817
 4252SOL     OW14429   1.326   5.033   2.245  0.1153 -0.0570  0.1967
 4252SOL    HW114430   1.286   4.963   2.295 -1.4760  0.0278 -0.8860
 4252SOL    HW214431   1.256   5.064   2.187  0.6594  2.6035  0.8286
 4253SOL     OW14432   4.783   3.027   1.167  0.7216 -0.0131 -0.1445
 4253SOL    HW114433   4.854   3.067   1.217  1.7071  0.7801 -2.0782
 4253SOL    HW214434   4.789   2.934   1.188  1.6387  0.1901  0.5622
 4254SOL     OW14435   0.434   7.056   1.003 -0.3588  0.9025  0.0012
 4254SOL    HW114436   0.430   6.972   0.956  1.6595  0.2702  0.8263
 4254SOL    HW214437   0.501   7.106   0.955 -0.1578  1.2786  0.6693
 4255SOL     OW14438   0.552   2.856   5.093  0.4129  0.3878 -0.4993
 4255SOL    HW114439   0.638   2.843   5.133  0.0658  0.8996  0.4495
 4255SOL    HW214440   0.489   2.838   5.163 -0.1855  2.9733 -0.2530
 4256SOL     OW14441   1.355   6.467   5.939  0.4680 -0.0285  0.2745
 4256SOL    HW114442   1.310   6.531   5.883  0.4252  0.1481  0.5083
 4256SOL    HW214443   1.439   6.509   5.961  0.9597 -0.5542 -0.5507
 4257SOL     OW14444   6.439   1.256   9.519 -0.4382 -0.0575 -0.1778
 4257SOL    HW114445   6.394   1.249   9.603 -0.8948 -0.3872 -0.4424
 4257SOL    HW214446   6.369   1.252   9.454 -0.1758  1.1383 -0.5574
 4258SOL     OW14447   6.243   8.558   0.338 -0.0049 -0.3846 -0.0370
 4258SOL    HW114448   6.176   8.590   0.398 -0.5212 -1.1316 -0.1910
 4258SOL    HW214449   6.195   8.540   0.257  0.4822 -0.4184 -0.3174
 4259SOL     OW14450   4.653   2.743   1.898 -0.0029  0.0512  0.1625
 4259SOL    HW114451   4.588   2.703   1.839 -0.2109 -0.3958  0.6853
 4259SOL    HW214452   4.623   2.834   1.907 -0.6869 -0.2066  0.5699
 4260SOL     OW14453   6.809   4.728   4.207 -0.2054 -0.1068  0.4395
 4260SOL    HW114454   6.778   4.800   4.152  0.5645  0.5666  0.8537
 4260SOL    HW214455   6.749   4.727   4.281 -0.8098 -0.5464 -0.0416
 4261SOL     OW14456   1.972   0.282   8.537  0.2864 -0.4174  0.3045
 4261SOL    HW114457   1.962   0.377   8.541 -0.8629 -0.5512  1.6948
 4261SOL    HW214458   2.041   0.262   8.601 -0.1671 -0.5792  0.7534
 4262SOL     OW14459   0.359   8.224   8.368 -0.2824  0.4524 -0.3307
 4262SOL    HW114460   0.340   8.306   8.413 -0.3817 -0.2259  0.9467
 4262SOL    HW214461   0.453   8.211   8.379 -0.0605  0.9453 -1.5382
 4263SOL     OW14462   4.953   0.344   1.384 -0.1047  1.0126  0.4725
 4263SOL    HW114463   5.048   0.362   1.384 -0.2464  2.9505  4.8014
 4263SOL    HW214464   4.914   0.426   1.353 -0.3935  1.1568  1.2085
 4264SOL     OW14465   2.897   6.049   6.408  0.0923  0.2391  0.2616
 4264SOL    HW114466   2.898   6.145   6.402  1.7428  0.2124 -0.3639
 4264SOL    HW214467   2.834   6.022   6.341  0.3733  0.8645 -0.2676
 4265SOL     OW14468   3.847   1.577   4.057  0.1810  0.3340  0.1576
 4265SOL    HW114469   3.759   1.551   4.084  0.1453 -0.0698 -0.3292
 4265SOL    HW214470   3.839   1.669   4.034  0.0287  0.4645  0.7132
 4266SOL     OW14471   8.244   0.848   5.962 -0.1043 -0.2200  0.3820
 4266SOL    HW114472   8.188   0.905   5.910  1.4260  0.8516 -0.1749
 4266SOL    HW214473   8.321   0.832   5.907  0.6993 -0.6200  1.5693
 4267SOL     OW14474   2.843   7.042   4.202 -0.2128 -0.0845 -0.0203
 4267SOL    HW114475   2.893   6.965   4.175 -2.4078 -1.3330 -0.7714
 4267SOL    HW214476   2.838   7.035   4.297  0.4827 -0.2863  0.0077
 4268SOL     OW14477   7.577   1.194   5.836 -0.1337  0.1915  0.1371
 4268SOL    HW114478   7.579   1.234   5.749 -1.8933  0.1669  0.0407
 4268SOL    HW214479   7.624   1.255   5.892  2.4190 -0.5379 -1.0714
 4269SOL     OW14480   8.712   1.884   5.516 -0.3873 -0.1057  0.3706
 4269SOL    HW114481   8.676   1.945   5.580 -2.3363 -0.2124 -0.5213
 4269SOL    HW214482   8.636   1.833   5.487  0.6050 -0.7466 -1.2571
 4270SOL     OW14483   1.310   2.729   1.258 -0.3130 -0.0528 -0.1939
 4270SOL    HW114484   1.251   2.796   1.293 -1.2745 -1.2911  0.6749
 4270SOL    HW214485   1.251   2.663   1.221  0.5333 -1.1903  0.4308
 4271SOL     OW14486   3.591   8.389   4.013 -0.1329  0.3145 -0.2560
 4271SOL    HW114487   3.575   8.302   3.978 -0.4376  0.1244  0.3465
 4271SOL    HW214488   3.592   8.446   3.936  0.5218 -0.2773 -0.6962
 4272SOL     OW14489   2.096   4.096   8.486 -0.1949  0.7576  0.1925
 4272SOL    HW114490   2.048   4.070   8.407 -2.3550  0.0232  1.6584
 4272SOL    HW214491   2.139   4.016   8.515  1.2464  1.2057 -0.6133
 4273SOL     OW14492   6.849   6.727   5.366  0.7403 -0.6818  0.0777
 4273SOL    HW114493   6.804   6.788   5.307  0.7534  0.5103  1.2375
 4273SOL    HW214494   6.929   6.703   5.320  1.5728  1.5240  0.2460
 4274SOL     OW14495   2.599   0.289   0.486  0.0723  0.0450 -0.3928
 4274SOL    HW114496   2.633   0.334   0.562  0.3428 -0.3218 -0.2965
 4274SOL    HW214497   2.524   0.239   0.519 -1.1173  1.5282 -0.7641
 4275SOL     OW14498   7.792   2.190   7.955  0.3046  0.2056 -0.8483
 4275SOL    HW114499   7.817   2.268   8.003 -0.1842  1.2033 -2.1680
 4275SOL    HW214500   7.705   2.210   7.920  0.1177 -0.9820 -1.1152
 4276SOL     OW14501   8.143   6.967   7.895 -0.1056 -0.6925 -0.2900
 4276SOL    HW114502   8.221   6.917   7.915  0.4714 -0.0068 -0.7507
 4276SOL    HW214503   8.166   7.016   7.816 -0.2376  1.1500  0.7644
 4277SOL     OW14504   2.316   2.068   4.236 -0.2498  0.2958 -0.5403
 4277SOL    HW114505   2.265   2.026   4.304  2.3065 -0.2700  1.1773
 4277SOL    HW214506   2.296   2.161   4.245  0.8351  0.3777  1.8395
 4278SOL     OW14507   2.822   3.876   1.509  0.3054 -0.1186  0.5368
 4278SOL    HW114508   2.799   3.845   1.597 -0.8899 -0.2328  0.2081
 4278SOL    HW214509   2.738   3.899   1.470  0.8852  0.5033 -0.3682
 4279SOL     OW14510   6.176   2.751   8.853  0.0631  0.3856  0.2319
 4279SOL    HW114511   6.213   2.836   8.878  0.4131  0.4688 -0.5232
 4279SOL    HW214512   6.081   2.764   8.859  0.1254  0.3689  1.5497
 4280SOL     OW14513   6.225   3.541   9.345 -0.1442  0.2892 -0.1120
 4280SOL    HW114514   6.259   3.490   9.418 -1.5158  0.4118  0.6322
 4280SOL    HW214515   6.192   3.476   9.283 -1.3506  0.2484  0.5666
 4281SOL     OW14516   3.832   1.258   5.058  0.6063 -0.3505 -0.1814
 4281SOL    HW114517   3.743   1.224   5.046  0.5579 -0.0090 -0.8517
 4281SOL    HW214518   3.861   1.221   5.142 -0.8738  1.0722  1.0313
 4282SOL     OW14519   8.398   8.749   8.722 -0.0242  0.7951  0.0202
 4282SOL    HW114520   8.309   8.721   8.745 -0.3633  1.9558  0.1851
 4282SOL    HW214521   8.390   8.787   8.635  0.7570 -1.1054 -0.9454
 4283SOL     OW14522   4.405   7.172   7.436  0.5730  0.5891 -0.0982
 4283SOL    HW114523   4.340   7.224   7.390  0.9865  1.0870 -0.1256
 4283SOL    HW214524   4.450   7.234   7.493  0.8619  0.2030  0.1015
 4284SOL     OW14525   5.548   2.875   3.323 -0.4234  0.2156  0.5354
 4284SOL    HW114526   5.582   2.948   3.374  0.5441 -0.7704  1.3405
 4284SOL    HW214527   5.572   2.896   3.233  1.3825  0.0791  0.9536
 4285SOL     OW14528   0.803   5.660   3.173 -0.4016  0.3244 -0.8382
 4285SOL    HW114529   0.733   5.595   3.175 -0.4246  0.3551  0.0364
 4285SOL    HW214530   0.857   5.638   3.249  0.0796  0.7958 -1.0403
 4286SOL     OW14531   8.628   6.041   2.761  0.1200 -0.0018 -0.5059
 4286SOL    HW114532   8.649   5.970   2.700  2.2669  0.0867  0.0356
 4286SOL    HW214533   8.549   6.081   2.725 -2.3272 -3.7274  0.1330
 4287SOL     OW14534   6.286   5.589   2.489 -0.2458 -0.0725 -0.1007
 4287SOL    HW114535   6.370   5.600   2.445  1.0126  0.2363  2.2013
 4287SOL    HW214536   6.271   5.495   2.489 -0.3723 -0.0578 -1.3387
 4288SOL     OW14537   5.265   8.331   4.526 -0.3675 -0.9720  0.3614
 4288SOL    HW114538   5.219   8.364   4.603  1.5924  0.7084  0.9143
 4288SOL    HW214539   5.226   8.378   4.453 -2.1932 -2.5224  0.2775
 4289SOL     OW14540   2.228   0.465   1.140 -0.3406  0.3109  0.0587
 4289SOL    HW114541   2.137   0.455   1.111 -0.2146  1.0875 -0.6530
 4289SOL    HW214542   2.261   0.537   1.087  1.1311 -0.8972 -0.7381
 4290SOL     OW14543   2.856   1.552   9.269  0.4073 -1.0048 -0.1592
 4290SOL    HW114544   2.775   1.572   9.223  0.1425 -0.1790  0.6426
 4290SOL    HW214545   2.880   1.464   9.238 -0.0156 -0.6724 -1.4825
 4291SOL     OW14546   5.461   4.000   6.390  0.1851  0.6912 -0.3739
 4291SOL    HW114547   5.472   3.985   6.484  1.8871  2.3150 -0.2574
 4291SOL    HW214548   5.379   4.050   6.383  0.7095  1.6849  0.3888
 4292SOL     OW14549   8.190   0.704   2.189  0.8522 -0.4605  0.8479
 4292SOL    HW114550   8.112   0.674   2.234 -2.1436  1.2766 -2.6201
 4292SOL    HW214551   8.195   0.798   2.208  2.2505 -0.5686  1.1363
 4293SOL     OW14552   7.452   9.041   8.775 -0.2415  0.1745 -0.2616
 4293SOL    HW114553   7.418   8.970   8.720 -1.0932  1.1450 -1.0130
 4293SOL    HW214554   7.478   8.997   8.856  0.5133 -1.1917 -1.2075
 4294SOL     OW14555   4.183   9.032   9.013 -0.0459  0.3480 -0.0150
 4294SOL    HW114556   4.098   8.988   9.011 -0.3572  0.7418  2.0602
 4294SOL    HW214557   4.207   9.032   9.106  1.3144  1.9673 -0.3268
 4295SOL     OW14558   2.936   0.408   8.530  0.0195  0.2859 -0.3585
 4295SOL    HW114559   2.850   0.450   8.527 -0.5435 -0.7465  0.4488
 4295SOL    HW214560   2.995   0.469   8.486 -1.4748  0.1476 -2.7384
 4296SOL     OW14561   6.855   7.016   5.538 -0.3712  0.0134 -0.1750
 4296SOL    HW114562   6.895   6.929   5.539  0.1070  0.2289  0.6150
 4296SOL    HW214563   6.873   7.049   5.450  0.4578 -0.2408 -0.1191
 4297SOL     OW14564   9.442   6.363   2.218  0.4874 -0.1893 -0.2358
 4297SOL    HW114565   9.535   6.379   2.199 -0.1064  1.4675 -2.1072
 4297SOL    HW214566   9.419   6.288   2.163  0.1947  0.9318 -1.7260
 4298SOL     OW14567   1.562   3.822   1.470  0.1624  0.7961 -0.3384
 4298SOL    HW114568   1.653   3.800   1.490  0.4004  0.0672 -2.0932
 4298SOL    HW214569   1.524   3.844   1.555  1.4946 -0.6906  0.7008
 4299SOL     OW14570   2.472   2.148   8.198  0.2630  0.0232  0.1377
 4299SOL    HW114571   2.558   2.107   8.212 -0.3035 -0.8978  1.1734
 4299SOL    HW214572   2.485   2.209   8.127  1.4242 -1.2304 -0.7767
 4300SOL     OW14573   5.980   3.079   2.639  0.2423  0.0320 -0.0298
 4300SOL    HW114574   6.008   2.988   2.633  1.0452  0.1632  1.2994
 4300SOL    HW214575   5.887   3.077   2.616  0.4849 -0.9521 -1.0279
 4301SOL     OW14576   4.250   1.801   1.871 -0.6245 -0.5683  0.1644
 4301SOL    HW114577   4.282   1.831   1.956 -2.0824  3.3939 -0.4271
 4301SOL    HW214578   4.156   1.821   1.873 -0.9487 -1.6477 -1.9092
 4302SOL     OW14579   1.095   3.079   2.161 -1.3330  0.1807 -0.2337
 4302SOL    HW114580   1.178   3.121   2.183 -0.6011 -0.1254 -2.1671
 4302SOL    HW214581   1.103   2.989   2.194 -1.1075  0.2980  0.0286
 4303SOL     OW14582   5.366   7.786   1.976 -0.4928  0.3893  0.3601
 4303SOL    HW114583   5.316   7.725   1.922  0.7802 -1.8798  1.5654
 4303SOL    HW214584   5.333   7.873   1.953 -2.4745 -0.7514 -1.3764
 4304SOL     OW14585   4.381   1.815   9.445 -0.1188 -0.4358 -0.0991
 4304SOL    HW114586   4.292   1.828   9.478 -0.3613 -0.6541 -0.6505
 4304SOL    HW214587   4.378   1.847   9.354  1.0615  2.1450  0.6703
 4305SOL     OW14588   4.278   2.986   0.475 -0.2251  0.4333 -0.3068
 4305SOL    HW114589   4.217   3.005   0.546 -0.3698 -0.8955 -0.0411
 4305SOL    HW214590   4.317   2.902   0.499 -1.1309 -0.6508 -2.3459
 4306SOL     OW14591   3.715   2.632   2.841 -0.3447  0.0294 -0.0205
 4306SOL    HW114592   3.644   2.696   2.832  0.1685  0.8416  1.4142
 4306SOL    HW214593   3.675   2.559   2.889 -0.9446 -0.7949 -1.7033
 4307SOL     OW14594   7.602   7.168   4.931  0.0138  0.0107 -0.4804
 4307SOL    HW114595   7.561   7.237   4.879  1.1946  0.9395 -0.2331
 4307SOL    HW214596   7.687   7.153   4.888  1.8213  2.0584  2.0916
 4308SOL     OW14597   0.761   1.544   0.772 -0.1051  0.2686 -0.0780
 4308SOL    HW114598   0.711   1.624   0.787 -0.9261 -0.2502  0.0157
 4308SOL    HW214599   0.849   1.564   0.804 -0.4076  1.0009  0.3142
 4309SOL     OW14600   9.103   7.983   0.260 -0.3504 -0.1544 -0.3614
 4309SOL    HW114601   9.141   7.967   0.174  0.1388 -0.0235 -0.1697
 4309SOL    HW214602   9.098   8.078   0.267 -0.5105 -0.1673 -0.2950
 4310SOL     OW14603   4.454   9.391   3.714 -0.5322 -0.2267 -0.0713
 4310SOL    HW114604   4.539   9.399   3.758  0.6198  1.0183 -2.3052
 4310SOL    HW214605   4.406   9.470   3.739 -0.8800 -0.7425  0.8941
 4311SOL     OW14606   2.228   6.906   5.371  0.2115  0.6139 -0.2297
 4311SOL    HW114607   2.251   6.998   5.357  0.8146  0.4886 -0.1149
 4311SOL    HW214608   2.222   6.897   5.466  0.0497  0.5569 -0.2453
 4312SOL     OW14609   5.203   2.784   4.765  0.4825  0.6772  0.2227
 4312SOL    HW114610   5.142   2.798   4.692  0.7288  1.3920  0.1459
 4312SOL    HW214611   5.147   2.774   4.842  0.2145 -0.1980 -0.0739
 4313SOL     OW14612   9.004   8.257   5.218  0.3607 -0.1602 -0.0028
 4313SOL    HW114613   9.082   8.201   5.215  0.0703 -0.6028  0.4739
 4313SOL    HW214614   9.038   8.345   5.232  0.8279 -0.2095 -0.7861
 4314SOL     OW14615   6.166   2.610   6.227 -0.1822  0.2949  0.1113
 4314SOL    HW114616   6.074   2.639   6.231 -0.3570 -0.2399  0.1029
 4314SOL    HW214617   6.175   2.571   6.140 -0.0366  0.0619  0.2296
 4315SOL     OW14618   1.278   6.439   6.445 -0.4837  0.1856  0.2973
 4315SOL    HW114619   1.233   6.385   6.510  0.6052  0.3220  1.2003
 4315SOL    HW214620   1.273   6.389   6.364  0.2302 -1.1357  1.0451
 4316SOL     OW14621   5.491   4.319   8.721  0.3886  0.0986 -0.2605
 4316SOL    HW114622   5.437   4.398   8.719  3.1629  2.1561  0.1649
 4316SOL    HW214623   5.491   4.293   8.813  0.4956  0.3675 -0.1830
 4317SOL     OW14624   1.765   4.529   5.983 -0.1667 -0.2804 -0.7825
 4317SOL    HW114625   1.712   4.592   6.032 -1.3204 -1.6114 -0.2646
 4317SOL    HW214626   1.713   4.509   5.906 -0.5113 -1.7228 -0.1936
 4318SOL     OW14627   9.594   2.232   0.485  0.2557 -0.6858 -0.0376
 4318SOL    HW114628   9.583   2.212   0.578 -2.4305  0.2856 -0.0713
 4318SOL    HW214629   9.527   2.181   0.441  1.8214 -1.5384 -1.5832
 4319SOL     OW14630   8.655   3.540   6.616 -0.1312  0.2247 -0.3155
 4319SOL    HW114631   8.683   3.501   6.699  2.0252  0.2930 -0.9375
 4319SOL    HW214632   8.646   3.465   6.556 -0.9812  0.2447 -0.2298
 4320SOL     OW14633   7.714   9.188   8.257  0.3123  0.5123 -0.5296
 4320SOL    HW114634   7.791   9.135   8.276 -0.3998 -0.3815 -0.0830
 4320SOL    HW214635   7.641   9.137   8.291 -0.6038  0.8172 -1.9962
 4321SOL     OW14636   5.987   8.442   0.759  0.4127 -0.6862  0.2882
 4321SOL    HW114637   5.937   8.360   0.760 -1.1304  0.2204 -0.0571
 4321SOL    HW214638   5.994   8.466   0.852 -0.4836 -0.4435  0.3076
 4322SOL     OW14639   0.699   1.967   5.949 -0.2952 -0.5606  0.4466
 4322SOL    HW114640   0.789   1.999   5.961  0.1031 -1.7607  0.8236
 4322SOL    HW214641   0.665   2.018   5.875  0.5153  0.2655  0.6260
 4323SOL     OW14642   7.117   0.885   9.272  0.5666 -0.2258 -0.2480
 4323SOL    HW114643   7.105   0.851   9.360  0.3704 -0.4151 -0.3470
 4323SOL    HW214644   7.119   0.980   9.283  1.9363 -0.2840  0.1322
 4324SOL     OW14645   6.533   9.170   4.444  0.1501  0.8445 -0.2970
 4324SOL    HW114646   6.446   9.183   4.405  0.1097  1.3812 -0.0330
 4324SOL    HW214647   6.522   9.197   4.535 -0.1976 -1.9351  0.5817
 4325SOL     OW14648   8.750   9.049   6.389  0.0386  0.7196 -0.2861
 4325SOL    HW114649   8.760   9.031   6.295  1.6809  0.3501 -0.0654
 4325SOL    HW214650   8.823   9.107   6.410  0.1626  0.1495  0.9271
 4326SOL     OW14651   0.233   6.539   5.697 -0.1727  0.0294 -0.0228
 4326SOL    HW114652   0.170   6.500   5.757  0.2796  1.3753  1.4046
 4326SOL    HW214653   0.318   6.521   5.736  0.4642 -2.1661 -2.1627
 4327SOL     OW14654   1.033   4.411   1.168  0.4733 -0.0794 -0.4729
 4327SOL    HW114655   1.064   4.349   1.102 -3.3145 -0.7504 -1.8712
 4327SOL    HW214656   0.966   4.363   1.217  0.2219  1.7221  1.0999
 4328SOL     OW14657   1.181   6.226   2.207 -0.1644  0.3749  0.0414
 4328SOL    HW114658   1.091   6.236   2.175 -0.0755  0.3386 -0.2169
 4328SOL    HW214659   1.236   6.242   2.130  0.0096 -2.4236 -0.5184
 4329SOL     OW14660   6.364   3.218   4.739 -0.5143  0.7825 -0.1520
 4329SOL    HW114661   6.338   3.135   4.778 -2.2942  1.2741 -0.1998
 4329SOL    HW214662   6.440   3.196   4.685 -0.5691 -0.6858  0.3155
 4330SOL     OW14663   1.225   6.521   3.148  0.4865 -0.0079 -0.3034
 4330SOL    HW114664   1.135   6.498   3.123  0.7545 -1.1653 -0.2522
 4330SOL    HW214665   1.276   6.510   3.067  0.2973  2.6494 -0.9043
 4331SOL     OW14666   0.158   1.473   2.675  0.3318  0.1557  0.0623
 4331SOL    HW114667   0.162   1.569   2.669  0.9005  0.1813  0.6727
 4331SOL    HW214668   0.209   1.442   2.600  1.5248  0.3669  0.7495
 4332SOL     OW14669   6.740   5.442   7.171 -0.3908 -0.0071  0.0167
 4332SOL    HW114670   6.758   5.366   7.115  1.1629 -0.4923  1.0997
 4332SOL    HW214671   6.644   5.445   7.178 -0.5962 -0.3109 -2.0948
 4333SOL     OW14672   6.789   7.011   9.494  0.5314  0.2976  0.2334
 4333SOL    HW114673   6.745   6.976   9.572 -0.3425 -0.1386 -0.4486
 4333SOL    HW214674   6.851   6.943   9.469  0.1618  0.0457  0.0067
 4334SOL     OW14675   0.699   5.169   3.606  0.2819  0.6727 -0.0508
 4334SOL    HW114676   0.706   5.087   3.556  0.6557  0.3228  0.5621
 4334SOL    HW214677   0.648   5.146   3.683  0.2306  1.0639  0.0339
 4335SOL     OW14678   3.470   2.505   1.497  0.2371 -0.0223  0.4574
 4335SOL    HW114679   3.433   2.416   1.499  0.3928 -0.1626 -1.2667
 4335SOL    HW214680   3.487   2.526   1.589 -1.8835 -0.8838  1.1066
 4336SOL     OW14681   8.809   8.073   4.746 -0.2468  0.3482  0.4598
 4336SOL    HW114682   8.729   8.041   4.705 -0.8374 -0.8074  2.3574
 4336SOL    HW214683   8.779   8.130   4.817  0.6389  0.4552  0.7695
 4337SOL     OW14684   0.444   6.480   7.208 -0.4784  0.2716  0.0118
 4337SOL    HW114685   0.518   6.419   7.204 -0.1713  0.6417  0.0078
 4337SOL    HW214686   0.367   6.425   7.193 -0.1380  0.0093 -0.8551
 4338SOL     OW14687   3.737   1.287   9.199  0.2641  0.1294  0.5720
 4338SOL    HW114688   3.781   1.202   9.206 -0.5450 -0.5552 -1.7926
 4338SOL    HW214689   3.697   1.286   9.112  0.8248  3.2219  0.1604
 4339SOL     OW14690   3.865   8.791   8.544  0.5399 -0.0654 -0.2766
 4339SOL    HW114691   3.864   8.779   8.639  0.0896  2.0026  0.0188
 4339SOL    HW214692   3.795   8.735   8.512 -0.1638  0.1955  0.7608
 4340SOL     OW14693   5.736   0.178   5.537  0.7806 -0.1884 -0.0522
 4340SOL    HW114694   5.742   0.174   5.442 -0.2786  1.5031 -0.2396
 4340SOL    HW214695   5.818   0.219   5.565  0.2023  1.3159 -0.4629
 4341SOL     OW14696   3.295   7.036   8.048  0.4127 -0.0635  0.8734
 4341SOL    HW114697   3.235   7.109   8.068  0.1160 -0.1871  0.4554
 4341SOL    HW214698   3.239   6.959   8.047  0.4691 -0.1104 -0.0693
 4342SOL     OW14699   0.462   9.269   9.293 -0.1321  0.4872 -0.5046
 4342SOL    HW114700   0.384   9.277   9.349 -0.4492  1.2730 -1.0387
 4342SOL    HW214701   0.446   9.330   9.221  1.2837  1.1838 -0.2668
 4343SOL     OW14702   5.043   2.536   2.424 -0.4279 -0.5030  0.4720
 4343SOL    HW114703   5.068   2.514   2.334  0.4545  0.2011  0.5348
 4343SOL    HW214704   4.965   2.591   2.414 -0.4924 -0.6448  0.1592
 4344SOL     OW14705   3.228   6.709   8.136 -0.2473  0.8416 -0.3955
 4344SOL    HW114706   3.145   6.729   8.178 -0.7949 -3.8956  1.3078
 4344SOL    HW214707   3.294   6.752   8.191 -1.3948  2.0730  0.0500
 4345SOL     OW14708   7.854   5.253   1.345  0.6237  0.4272  0.0133
 4345SOL    HW114709   7.854   5.252   1.249 -0.0686  0.5957  0.0045
 4345SOL    HW214710   7.803   5.331   1.368 -2.0251 -1.3403  0.5008
 4346SOL     OW14711   7.565   5.645   6.429 -0.0647 -0.0631  0.3038
 4346SOL    HW114712   7.547   5.655   6.522 -0.3262  1.5428  0.1118
 4346SOL    HW214713   7.512   5.714   6.387 -1.1054 -1.6622 -1.1642
 4347SOL     OW14714   0.494   9.070   7.748  0.0349  0.0933 -0.4878
 4347SOL    HW114715   0.557   9.133   7.783  1.3060 -1.7717  0.8211
 4347SOL    HW214716   0.410   9.096   7.785  1.0622 -0.8275  2.8979
 4348SOL     OW14717   1.503   8.236   0.116 -0.2568 -0.5341  0.0616
 4348SOL    HW114718   1.434   8.218   0.052  0.7693  0.1539 -1.2770
 4348SOL    HW214719   1.464   8.300   0.175 -1.2486 -1.2448  0.2143
 4349SOL     OW14720   7.198   3.485   2.563  0.9641 -0.5918  0.5430
 4349SOL    HW114721   7.146   3.535   2.500  1.1474  0.9575  1.5747
 4349SOL    HW214722   7.183   3.393   2.538 -1.9617 -0.2200  0.5206
 4350SOL     OW14723   4.139   2.695   7.771 -0.0069 -0.5693 -0.3558
 4350SOL    HW114724   4.067   2.750   7.741 -0.0682 -0.7262 -0.4958
 4350SOL    HW214725   4.138   2.705   7.867  0.9939  0.9345 -0.4742
 4351SOL     OW14726   2.220   1.815   7.797 -0.1287  0.4229  0.2203
 4351SOL    HW114727   2.249   1.877   7.864 -1.8690  1.6147 -0.0491
 4351SOL    HW214728   2.286   1.822   7.727  2.0319 -1.2608  1.9304
 4352SOL     OW14729   8.686   6.759   0.912  0.2362 -0.6676 -0.1604
 4352SOL    HW114730   8.647   6.672   0.917  0.1255 -0.7296 -1.5933
 4352SOL    HW214731   8.657   6.793   0.827 -0.8243  1.3185  0.9397
 4353SOL     OW14732   0.175   6.455   4.176  0.4221 -0.7778  0.7769
 4353SOL    HW114733   0.102   6.438   4.117  0.4077 -0.8074  0.8034
 4353SOL    HW214734   0.214   6.369   4.192  1.9896 -0.5280 -1.2192
 4354SOL     OW14735   4.569   9.561   3.480  0.0637  0.2907  0.3604
 4354SOL    HW114736   4.515   9.484   3.496  1.3118 -0.7168 -0.0417
 4354SOL    HW214737   4.511   9.624   3.437 -1.3034  0.0825  1.8121
 4355SOL     OW14738   0.905   7.564   2.167  0.1353 -0.0497 -0.1522
 4355SOL    HW114739   0.831   7.554   2.228 -0.1724  2.4623 -0.0221
 4355SOL    HW214740   0.874   7.524   2.086 -0.4164 -1.1686  0.5727
 4356SOL     OW14741   8.048   4.811   8.181 -0.6287 -0.6052  0.6247
 4356SOL    HW114742   7.992   4.769   8.115 -0.7788  0.0119  0.3585
 4356SOL    HW214743   7.997   4.885   8.213  0.0682  0.0131  0.3215
 4357SOL     OW14744   1.315   5.252   4.091 -0.2582  0.1797 -0.2477
 4357SOL    HW114745   1.403   5.226   4.068 -0.6357  0.3048 -1.9721
 4357SOL    HW214746   1.283   5.183   4.149  0.2489 -0.9679 -1.2975
 4358SOL     OW14747   4.299   2.277   4.807 -0.5684  0.1198 -0.5031
 4358SOL    HW114748   4.388   2.267   4.774  0.1937 -0.1296  1.4976
 4358SOL    HW214749   4.262   2.347   4.753  2.1085  2.9189  0.9555
 4359SOL     OW14750   5.231   6.252   7.301  0.2441 -0.1003  0.2337
 4359SOL    HW114751   5.177   6.330   7.311 -1.9851 -1.7809  2.9365
 4359SOL    HW214752   5.320   6.282   7.320 -0.4738  1.8347  0.7934
 4360SOL     OW14753   8.283   9.169   9.440  0.4546  0.0021 -0.3499
 4360SOL    HW114754   8.216   9.136   9.380 -1.0567  1.1916  0.6280
 4360SOL    HW214755   8.262   9.129   9.524 -0.1684  1.7331  0.3770
 4361SOL     OW14756   1.383   4.207   8.962  0.2018 -0.0472 -0.0517
 4361SOL    HW114757   1.422   4.266   8.897 -1.2724  2.3840  1.1336
 4361SOL    HW214758   1.358   4.130   8.911 -0.4200  1.5234 -2.3137
 4362SOL     OW14759   0.864   0.969   3.940 -0.4018  0.1063 -0.3611
 4362SOL    HW114760   0.922   0.893   3.951 -0.5126  0.3271  2.8781
 4362SOL    HW214761   0.861   0.984   3.846  3.1783 -1.1691 -0.8325
 4363SOL     OW14762   5.818   6.970   2.269 -0.1720 -0.0555 -0.0562
 4363SOL    HW114763   5.732   6.983   2.228 -0.6124  0.0418  0.8710
 4363SOL    HW214764   5.872   6.931   2.200 -1.0903 -0.5597 -0.5060
 4364SOL     OW14765   8.260   3.383   4.557  0.2890 -0.0383  0.7518
 4364SOL    HW114766   8.316   3.420   4.488 -0.0885  1.3917  1.1703
 4364SOL    HW214767   8.240   3.295   4.527  0.4259  0.4339 -0.8075
 4365SOL     OW14768   5.617   6.579   3.235 -0.0933  0.1676 -0.3994
 4365SOL    HW114769   5.694   6.534   3.200 -0.2284 -1.4722  1.2650
 4365SOL    HW214770   5.636   6.672   3.222  1.2515 -0.2712 -1.8378
 4366SOL     OW14771   2.463   8.557   1.626 -0.4821  0.0533  0.1368
 4366SOL    HW114772   2.392   8.566   1.689 -0.4935  1.8081 -0.0816
 4366SOL    HW214773   2.479   8.462   1.621 -3.0482 -0.4220 -0.1245
 4367SOL     OW14774   3.992   7.298   7.370 -0.4700 -0.0933 -0.8040
 4367SOL    HW114775   3.944   7.218   7.348  0.0285  0.3219 -3.8109
 4367SOL    HW214776   3.925   7.367   7.365 -0.2998  0.0370 -1.3652
 4368SOL     OW14777   9.368   1.666   1.024 -0.1261  0.1303 -0.0603
 4368SOL    HW114778   9.283   1.655   1.067  0.5672 -1.5832  0.9489
 4368SOL    HW214779   9.424   1.705   1.091  0.5569 -1.1314  0.1135
 4369SOL     OW14780   2.367   9.613   0.410  0.5662 -0.2927 -0.3897
 4369SOL    HW114781   2.288   9.612   0.356  0.7334  0.5006 -0.6553
 4369SOL    HW214782   2.389   9.520   0.421 -0.4024 -0.5202 -0.3000
 4370SOL     OW14783   8.468   4.111   1.985  0.0875 -0.0838  0.3421
 4370SOL    HW114784   8.487   4.143   2.073  0.3133 -0.3030  0.3715
 4370SOL    HW214785   8.553   4.093   1.946 -0.0160 -0.0809  0.1128
 4371SOL     OW14786   2.460   0.936   0.644  0.0074  0.5140  0.1355
 4371SOL    HW114787   2.389   0.880   0.675  0.5081 -0.0819  0.2393
 4371SOL    HW214788   2.540   0.892   0.675  0.3801  2.0908  1.5514
 4372SOL     OW14789   9.569   5.583   2.973  0.4109  0.3466 -0.5490
 4372SOL    HW114790   9.535   5.517   2.912 -1.3529 -0.3091  1.0403
 4372SOL    HW214791   9.621   5.642   2.918 -0.2608 -0.7802 -2.4996
 4373SOL     OW14792   8.503   2.276   2.416  0.7707  0.0563 -0.6200
 4373SOL    HW114793   8.477   2.344   2.353 -1.4729 -0.6760 -0.5767
 4373SOL    HW214794   8.525   2.200   2.362 -0.9680 -0.5105 -0.6047
 4374SOL     OW14795   4.019   4.741   1.787 -0.2549 -0.0442 -0.6895
 4374SOL    HW114796   3.929   4.714   1.808 -1.0752  0.8132 -2.8650
 4374SOL    HW214797   4.016   4.836   1.785  1.4016  0.1451  1.8268
 4375SOL     OW14798   9.606   3.873   4.924  0.3504 -0.2006  0.5200
 4375SOL    HW114799   9.517   3.875   4.889 -0.1748 -2.1530  1.5895
 4375SOL    HW214800   9.635   3.782   4.910  2.1760  0.3873  0.2296
 4376SOL     OW14801   5.987   0.914   4.262  0.3561  0.0159 -0.0533
 4376SOL    HW114802   5.974   0.825   4.230  0.1919 -0.0322  0.1449
 4376SOL    HW214803   6.017   0.903   4.352 -2.8128  0.1937  1.1403
 4377SOL     OW14804   9.448   6.830   0.650  0.0538  0.5729  0.1201
 4377SOL    HW114805   9.420   6.812   0.561 -0.0098 -0.4105  0.3322
 4377SOL    HW214806   9.514   6.764   0.669 -0.1563  0.5790  0.9073
 4378SOL     OW14807   9.128   3.457   1.427 -0.4162 -0.1132  0.1357
 4378SOL    HW114808   9.110   3.394   1.357  2.8680  0.0900 -1.0802
 4378SOL    HW214809   9.207   3.423   1.471  0.8902  2.5377  0.0880
 4379SOL     OW14810   4.516   2.167   9.595  0.0937 -0.0705  0.0957
 4379SOL    HW114811   4.586   2.205   9.543 -0.2406  1.4941  0.7226
 4379SOL    HW214812   4.449   2.141   9.531  0.2799  0.5411 -0.3495
 4380SOL     OW14813   3.476   8.413   7.245  0.6941 -0.0650  0.0797
 4380SOL    HW114814   3.459   8.501   7.278  0.9286 -0.2840  0.8159
 4380SOL    HW214815   3.526   8.371   7.315  0.6383 -0.7649 -0.2928
 4381SOL     OW14816   3.317   8.664   9.286 -0.0360 -0.1747  0.2168
 4381SOL    HW114817   3.303   8.753   9.317  2.4183  0.3462 -0.0304
 4381SOL    HW214818   3.325   8.673   9.191  1.2484 -0.4705  0.2772
 4382SOL     OW14819   4.024   2.080   5.224 -0.4827  0.4184  0.0754
 4382SOL    HW114820   4.085   2.121   5.285  1.3476 -0.9737 -0.7192
 4382SOL    HW214821   4.016   2.142   5.152 -0.6098  0.9521  0.5505
 4383SOL     OW14822   5.250   3.811   8.524 -0.3571 -0.2048 -0.0962
 4383SOL    HW114823   5.342   3.837   8.530  0.0427 -1.4379 -0.3934
 4383SOL    HW214824   5.203   3.891   8.500  0.4055  0.7920  1.5582
 4384SOL     OW14825   5.542   3.350   9.434 -0.2317  0.0562 -0.0986
 4384SOL    HW114826   5.456   3.308   9.425 -0.5566  0.4100  1.1937
 4384SOL    HW214827   5.541   3.390   9.521  0.5548  1.6387 -0.7679
 4385SOL     OW14828   8.933   9.639   2.130  0.3748 -0.3557 -0.0193
 4385SOL    HW114829   8.960   9.670   2.043 -1.3566  0.0441 -0.4540
 4385SOL    HW214830   8.963   9.707   2.190  2.3934 -1.0676 -0.1459
 4386SOL     OW14831   1.149   3.389   6.524  0.0133  0.0596 -0.1709
 4386SOL    HW114832   1.091   3.315   6.506  0.0586 -0.3266  1.1578
 4386SOL    HW214833   1.232   3.348   6.551  0.5452  0.6008 -0.9565
 4387SOL     OW14834   2.117   3.872   3.576  0.4011  0.3179 -0.0884
 4387SOL    HW114835   2.105   3.902   3.486 -0.1514  0.1204 -0.0871
 4387SOL    HW214836   2.037   3.900   3.622  1.4101  1.9261  0.7609
 4388SOL     OW14837   1.142   5.146   3.580  0.4342  0.4282  0.2218
 4388SOL    HW114838   1.188   5.229   3.597  0.8833 -0.0762  1.6196
 4388SOL    HW214839   1.207   5.078   3.598 -0.2838 -0.2517  0.3078
 4389SOL     OW14840   6.009   4.768   8.269 -0.0447 -0.2765 -0.1653
 4389SOL    HW114841   6.010   4.826   8.193 -0.4291 -2.0499 -1.6052
 4389SOL    HW214842   5.917   4.749   8.285 -0.0273  0.7142  1.3076
 4390SOL     OW14843   0.263   2.356   2.262 -0.0576 -0.3378  0.1433
 4390SOL    HW114844   0.304   2.277   2.298 -0.6098 -0.1698  1.1914
 4390SOL    HW214845   0.232   2.330   2.176  2.0209 -0.5403 -0.6059
 4391SOL     OW14846   3.947   7.200   5.253 -0.1115 -0.0150  0.0999
 4391SOL    HW114847   4.017   7.264   5.260 -0.7779  0.6603  0.7188
 4391SOL    HW214848   3.897   7.227   5.176 -1.1683  1.0197  1.1121
 4392SOL     OW14849   0.240   2.889   0.758  0.2916 -0.2828 -0.3849
 4392SOL    HW114850   0.193   2.840   0.690  0.1474 -0.4376 -0.1718
 4392SOL    HW214851   0.177   2.953   0.789  0.3190 -0.2945 -0.3062
 4393SOL     OW14852   0.560   7.077   5.749 -0.4542 -0.8559 -0.2668
 4393SOL    HW114853   0.469   7.079   5.778 -0.0565 -0.9481  1.0331
 4393SOL    HW214854   0.554   7.059   5.655 -1.7266 -2.5762  0.0859
 4394SOL     OW14855   2.814   9.031   3.046 -0.2342 -0.3847 -0.0769
 4394SOL    HW114856   2.841   8.969   3.114 -2.4508 -1.2325  0.1333
 4394SOL    HW214857   2.781   8.974   2.975 -0.2691  0.5312 -0.8097
 4395SOL     OW14858   5.947   3.338   5.155  0.2646  0.4179  0.0766
 4395SOL    HW114859   5.977   3.337   5.245 -1.7445 -0.0606  0.7896
 4395SOL    HW214860   6.016   3.292   5.106  1.2483  0.4557  1.3820
 4396SOL     OW14861   8.920   4.959   5.335 -0.0067 -0.6416 -0.2470
 4396SOL    HW114862   8.901   5.039   5.383 -2.8449 -0.6918 -1.0861
 4396SOL    HW214863   9.014   4.945   5.347  0.1913  1.6739  1.5941
 4397SOL     OW14864   6.715   9.537   4.030 -0.7294 -0.2155 -0.1671
 4397SOL    HW114865   6.795   9.495   4.000 -0.5707 -0.1857  0.2117
 4397SOL    HW214866   6.650   9.514   3.964 -0.4418 -0.3500 -0.4054
 4398SOL     OW14867   1.111   5.885   0.542 -0.1369 -0.5977 -0.2134
 4398SOL    HW114868   1.022   5.897   0.510 -0.7344  0.5411  1.7479
 4398SOL    HW214869   1.139   5.972   0.570  1.7735 -0.8425 -1.1180
 4399SOL     OW14870   6.431   6.203   0.175 -0.0623 -0.0157 -0.1415
 4399SOL    HW114871   6.487   6.219   0.251 -0.6577  1.2149  0.0644
 4399SOL    HW214872   6.410   6.110   0.180  1.4323 -0.3677  0.1252
 4400SOL     OW14873   5.618   2.849   0.484  0.5516  0.2019  0.2463
 4400SOL    HW114874   5.648   2.939   0.476  0.4979  0.1021 -1.6391
 4400SOL    HW214875   5.595   2.838   0.576 -1.4668  2.7460  0.1517
 4401SOL     OW14876   5.872   5.700   3.855  0.2717 -0.0364  0.2987
 4401SOL    HW114877   5.868   5.668   3.945 -2.0856 -1.9881 -0.3917
 4401SOL    HW214878   5.801   5.764   3.849  0.8141  0.5479 -0.0372
 4402SOL     OW14879   8.636   6.073   8.655  0.2145  0.2854 -0.0279
 4402SOL    HW114880   8.703   6.118   8.706  1.5152 -0.7618 -0.7376
 4402SOL    HW214881   8.583   6.026   8.719  1.6056 -0.7302  0.4129
 4403SOL     OW14882   6.320   8.894   5.240  0.1861  0.0011 -0.3185
 4403SOL    HW114883   6.301   8.848   5.158  1.7655 -1.9793  0.3550
 4403SOL    HW214884   6.234   8.908   5.279 -0.4959 -0.3211 -1.6406
 4404SOL     OW14885   5.386   8.806   9.526  0.2577 -0.9812  0.1980
 4404SOL    HW114886   5.408   8.846   9.610 -0.2287  0.1889 -0.2223
 4404SOL    HW214887   5.311   8.750   9.545  0.5813 -1.2644  0.6737
 4405SOL     OW14888   0.841   8.346   8.155 -0.0727  0.1891 -0.2516
 4405SOL    HW114889   0.811   8.413   8.094  0.0620  0.0935 -0.4235
 4405SOL    HW214890   0.933   8.333   8.132 -0.0910 -0.0331 -0.1967
 4406SOL     OW14891   7.605   8.108   6.376 -0.1509 -0.7318  0.4245
 4406SOL    HW114892   7.575   8.031   6.425 -0.9863 -0.3092  0.5915
 4406SOL    HW214893   7.581   8.183   6.430  1.1246 -0.3487  0.5099
 4407SOL     OW14894   5.255   0.709   1.640 -0.1960  0.5780 -0.0848
 4407SOL    HW114895   5.348   0.725   1.622 -0.2938  0.0896 -1.0917
 4407SOL    HW214896   5.215   0.698   1.553 -1.0771  0.1537  0.3581
 4408SOL     OW14897   0.219   2.747   7.109 -0.2417 -0.3252  0.3744
 4408SOL    HW114898   0.309   2.714   7.102  0.1066  0.7696 -0.8110
 4408SOL    HW214899   0.227   2.825   7.164 -0.4769 -0.2874  0.3545
 4409SOL     OW14900   1.843   0.490   2.469  0.2686 -0.6016 -0.0142
 4409SOL    HW114901   1.802   0.419   2.518 -0.2476  0.0790  0.5690
 4409SOL    HW214902   1.823   0.472   2.378  1.0517 -1.7753  0.0226
 4410SOL     OW14903   8.001   9.413   4.119  0.4981 -0.0947  0.5187
 4410SOL    HW114904   7.938   9.453   4.179 -1.6217  0.6802 -2.0033
 4410SOL    HW214905   8.071   9.478   4.112 -0.5211  1.0127  0.1998
 4411SOL     OW14906   3.633   8.815   5.836 -0.2979  0.3600 -0.2724
 4411SOL    HW114907   3.646   8.827   5.742  0.0696  0.3537 -0.2232
 4411SOL    HW214908   3.607   8.723   5.845  1.4482 -0.1717 -0.2016
 4412SOL     OW14909   8.293   6.599   1.299  0.7704  0.3695 -1.1293
 4412SOL    HW114910   8.271   6.666   1.364  2.4751 -1.3250  1.3934
 4412SOL    HW214911   8.282   6.643   1.215 -1.7425  2.6599  0.2153
 4413SOL     OW14912   0.862   6.545   1.559 -0.0014 -0.3927 -0.0307
 4413SOL    HW114913   0.799   6.617   1.560  0.1657 -0.2513  0.2681
 4413SOL    HW214914   0.917   6.562   1.482  1.4628  1.0381  1.2519
 4414SOL     OW14915   9.271   8.228   6.858  0.6666 -0.1267 -0.5844
 4414SOL    HW114916   9.287   8.294   6.791 -0.3920 -0.3813 -1.1220
 4414SOL    HW214917   9.240   8.152   6.809 -0.0342 -0.3487  0.1753
 4415SOL     OW14918   7.455   5.581   4.612 -0.2651  0.2274  0.0925
 4415SOL    HW114919   7.451   5.675   4.628 -1.2187  0.0737  0.8817
 4415SOL    HW214920   7.402   5.567   4.534 -2.0731  0.1130  1.2719
 4416SOL     OW14921   1.303   9.112   4.048  0.4165 -0.2057  0.4032
 4416SOL    HW114922   1.284   9.028   4.006  1.8289 -1.5268  2.1855
 4416SOL    HW214923   1.255   9.177   3.997  0.1295 -1.9595 -1.6983
 4417SOL     OW14924   7.575   4.684   1.462  0.0402 -0.4096  0.1141
 4417SOL    HW114925   7.593   4.628   1.538 -0.3512  1.1440  1.4287
 4417SOL    HW214926   7.631   4.761   1.475 -2.3312  1.3542  0.6141
 4418SOL     OW14927   1.918   3.263   3.154 -0.0440  0.1122 -0.4826
 4418SOL    HW114928   2.004   3.283   3.117 -0.2906  1.3231 -0.4289
 4418SOL    HW214929   1.868   3.344   3.144 -1.2502 -0.6402 -0.6879
 4419SOL     OW14930   1.298   8.210   8.237 -0.0794 -0.1332  0.1612
 4419SOL    HW114931   1.246   8.212   8.317  1.3522  0.4774  1.1030
 4419SOL    HW214932   1.372   8.152   8.258  0.5508  0.3941 -0.5550
 4420SOL     OW14933   2.159   2.716   6.139  0.0537  0.7127  0.3397
 4420SOL    HW114934   2.161   2.622   6.155  1.4417  0.9389  1.8083
 4420SOL    HW214935   2.076   2.731   6.094 -1.1692 -0.9330  1.8933
 4421SOL     OW14936   9.220   5.369   0.373  0.0745 -0.4628  0.1946
 4421SOL    HW114937   9.213   5.274   0.362 -0.9867 -0.6179  1.8366
 4421SOL    HW214938   9.173   5.387   0.455  0.7108  1.4171  0.1896
 4422SOL     OW14939   3.126   2.029   7.232 -0.3764 -0.1284  0.4426
 4422SOL    HW114940   3.106   1.978   7.154  1.7449  0.3847 -0.5273
 4422SOL    HW214941   3.154   1.964   7.296  0.0507 -0.3894  0.0009
 4423SOL     OW14942   7.941   4.494   9.055  0.3141 -0.0913 -0.1650
 4423SOL    HW114943   7.984   4.454   9.131 -1.1586 -0.8205  0.3346
 4423SOL    HW214944   7.858   4.447   9.048 -0.3343  1.1511 -1.1746
 4424SOL     OW14945   3.693   5.097   0.577 -0.0572 -0.0457  0.0102
 4424SOL    HW114946   3.773   5.143   0.600 -0.0798 -0.4794  1.0407
 4424SOL    HW214947   3.625   5.164   0.579  0.2970  0.3533 -1.0267
 4425SOL     OW14948   3.986   6.451   0.886  0.5754  0.0113 -0.0998
 4425SOL    HW114949   3.983   6.355   0.884  1.2715 -0.0100 -0.2647
 4425SOL    HW214950   3.904   6.478   0.845  0.4349 -0.5137 -0.1698
 4426SOL     OW14951   8.939   5.733   3.030 -0.2145 -0.0396  0.1647
 4426SOL    HW114952   8.848   5.717   3.005 -1.0299  0.4930  2.5308
 4426SOL    HW214953   8.957   5.822   2.998 -0.7229  0.0865  0.2182
 4427SOL     OW14954   1.876   1.248   5.197 -0.1894  0.1884 -0.3531
 4427SOL    HW114955   1.940   1.177   5.191  0.1942  0.5966 -1.2150
 4427SOL    HW214956   1.842   1.256   5.108 -1.5228 -0.0890  0.1054
 4428SOL     OW14957   9.640   7.588   2.658 -0.2135  0.0608 -0.2331
 4428SOL    HW114958   9.653   7.505   2.703 -0.8478  0.3235  0.4686
 4428SOL    HW214959   9.720   7.637   2.674  0.3512 -0.5775 -1.0396
 4429SOL     OW14960   4.580   3.595   3.831  0.1412 -0.3650 -0.2353
 4429SOL    HW114961   4.658   3.585   3.886 -0.6054 -2.7401  0.5350
 4429SOL    HW214962   4.594   3.533   3.760 -0.3610  0.3405 -0.9550
 4430SOL     OW14963   0.524   9.421   0.827 -0.0188  0.6327 -0.2477
 4430SOL    HW114964   0.462   9.482   0.868 -1.8042  0.1455 -2.0961
 4430SOL    HW214965   0.488   9.334   0.844  0.1145  0.3391 -1.3669
 4431SOL     OW14966   4.065   5.840   4.831  0.3212  0.0646  0.0909
 4431SOL    HW114967   3.989   5.798   4.870  0.9231  0.4075  1.7221
 4431SOL    HW214968   4.133   5.834   4.898  0.6672  2.9461  0.0967
 4432SOL     OW14969   4.848   9.283   8.595 -0.1019  0.5279  0.1025
 4432SOL    HW114970   4.859   9.260   8.688 -1.5818  0.5890  0.3261
 4432SOL    HW214971   4.902   9.220   8.548  0.0078 -0.0534  0.9792
 4433SOL     OW14972   2.292   9.232   0.717  0.8485  0.5427 -0.1540
 4433SOL    HW114973   2.364   9.172   0.698  0.1793 -0.5672  0.6330
 4433SOL    HW214974   2.313   9.269   0.803 -0.4322 -1.3579  1.0781
 4434SOL     OW14975   3.895   8.956   8.144  0.5111  0.3593  0.2596
 4434SOL    HW114976   3.942   8.873   8.146  0.6064  0.4182  0.5450
 4434SOL    HW214977   3.825   8.943   8.080 -0.3543 -0.4321  1.3319
 4435SOL     OW14978   7.647   8.038   0.645 -0.0803 -0.0785 -0.4848
 4435SOL    HW114979   7.557   8.070   0.638  0.3811  1.0067 -1.7762
 4435SOL    HW214980   7.701   8.117   0.649  0.8483 -0.7184 -0.0322
 4436SOL     OW14981   9.100   2.028   9.473 -0.1674  0.0642  0.7566
 4436SOL    HW114982   9.042   2.063   9.541  0.0801 -0.2217  1.1161
 4436SOL    HW214983   9.066   1.941   9.454 -0.5440  0.3303  0.1414
 4437SOL     OW14984   1.389   4.432   8.190 -0.2909  0.3046 -0.4241
 4437SOL    HW114985   1.442   4.399   8.117  0.3193  0.8037 -0.2159
 4437SOL    HW214986   1.437   4.407   8.269 -0.0101  1.3397 -0.2535
 4438SOL     OW14987   5.899   7.790   6.314  0.0659 -0.3610  0.4106
 4438SOL    HW114988   5.984   7.748   6.329  0.0220 -0.0631  1.5337
 4438SOL    HW214989   5.905   7.873   6.360  0.6202  1.5423 -2.7707
 4439SOL     OW14990   1.613   6.384   5.371 -0.9743  0.0264 -0.0630
 4439SOL    HW114991   1.612   6.449   5.301  0.9437  0.9138  0.6590
 4439SOL    HW214992   1.673   6.316   5.340 -0.9964 -0.1345  0.2421
 4440SOL     OW14993   5.916   9.385   0.982 -0.3034  0.0135  0.1956
 4440SOL    HW114994   6.004   9.374   0.945 -0.6194 -0.2277 -0.5065
 4440SOL    HW214995   5.913   9.476   1.010 -0.3463  0.4662 -1.2056
 4441SOL     OW14996   4.598   2.442   2.444 -0.5668 -0.1723  0.3487
 4441SOL    HW114997   4.558   2.528   2.453  1.2199  0.5986  1.3488
 4441SOL    HW214998   4.666   2.439   2.511  0.2836 -1.8688 -0.5082
 4442SOL     OW14999   5.289   7.505   4.741  0.1338 -0.6836 -0.1776
 4442SOL    HW115000   5.354   7.445   4.776  0.6864 -0.8741 -1.4727
 4442SOL    HW215001   5.316   7.592   4.772  0.3126 -0.8939  0.2686
 4443SOL     OW15002   6.866   7.369   5.311  0.1458  0.5027 -0.0363
 4443SOL    HW115003   6.779   7.366   5.351 -1.5178 -0.2188 -3.3432
 4443SOL    HW215004   6.890   7.461   5.313 -0.0047  0.5450  2.1453
 4444SOL     OW15005   4.232   1.059   7.231  0.0063  0.6615  0.6676
 4444SOL    HW115006   4.284   1.063   7.151 -0.5533 -1.5724  0.1236
 4444SOL    HW215007   4.145   1.091   7.205 -0.1286  0.0953  0.4196
 4445SOL     OW15008   0.254   6.239   1.913  0.3922  0.1589  0.5260
 4445SOL    HW115009   0.320   6.192   1.862  0.9180  1.0081  0.3948
 4445SOL    HW215010   0.272   6.331   1.895 -0.6342  0.4156  0.7491
 4446SOL     OW15011   0.127   6.199   0.309  0.1222 -0.0208  0.1079
 4446SOL    HW115012   0.124   6.237   0.397  1.8058 -0.7885  0.5446
 4446SOL    HW215013   0.211   6.153   0.306  1.0208  1.5706 -2.5823
 4447SOL     OW15014   3.144   2.297   8.729 -0.3596 -0.4196 -0.1319
 4447SOL    HW115015   3.072   2.360   8.724  0.9551  1.2263  0.5152
 4447SOL    HW215016   3.222   2.352   8.736  0.7322 -2.1128  2.1672
 4448SOL     OW15017   2.898   9.526   7.489 -0.3448 -0.1329 -0.4027
 4448SOL    HW115018   2.913   9.448   7.436 -1.0004 -0.1710 -0.5373
 4448SOL    HW215019   2.851   9.586   7.432  0.8625  0.6995 -0.5642
 4449SOL     OW15020   6.593   6.796   4.578 -0.0106 -0.2405 -0.3642
 4449SOL    HW115021   6.580   6.889   4.595  1.3503  0.5401 -2.9711
 4449SOL    HW215022   6.518   6.753   4.618 -0.7096  1.9600  0.8539
 4450SOL     OW15023   4.133   7.051   5.504 -0.3599 -0.0846 -0.0824
 4450SOL    HW115024   4.136   6.969   5.554  1.0383  0.2069  0.3541
 4450SOL    HW215025   4.196   7.038   5.433  0.3242  0.8232  0.3455
 4451SOL     OW15026   5.623   6.448   8.673 -0.3973 -0.0766  0.2658
 4451SOL    HW115027   5.634   6.535   8.710 -1.4228 -0.0031  0.4345
 4451SOL    HW215028   5.552   6.458   8.609  1.4439 -0.1435 -1.8983
 4452SOL     OW15029   4.566   7.181   8.887 -0.3359  0.5120  0.1054
 4452SOL    HW115030   4.633   7.131   8.842 -0.0725  0.6089  0.3796
 4452SOL    HW215031   4.616   7.244   8.940 -0.6617  1.7494 -1.0050
 4453SOL     OW15032   5.011   9.317   4.460 -0.0737  0.3652 -0.0489
 4453SOL    HW115033   4.961   9.384   4.507 -0.1797  0.9152 -0.9375
 4453SOL    HW215034   5.030   9.356   4.375 -0.6720 -0.9558 -0.8231
 4454SOL     OW15035   6.798   5.437   1.565 -0.0703  0.3849  1.1604
 4454SOL    HW115036   6.710   5.475   1.563 -0.2202  0.0260  0.2720
 4454SOL    HW215037   6.786   5.351   1.604 -0.8322 -1.2607 -2.2794
 4455SOL     OW15038   0.460   2.844   0.362 -0.8902  0.0549 -0.3721
 4455SOL    HW115039   0.433   2.926   0.319 -1.5287  0.7052  1.1878
 4455SOL    HW215040   0.475   2.869   0.453 -1.1954 -1.5995  0.1635
 4456SOL     OW15041   4.639   8.245   3.710 -0.1686 -0.4169  0.2252
 4456SOL    HW115042   4.555   8.275   3.675  0.7231  0.9231 -0.8463
 4456SOL    HW215043   4.625   8.151   3.728 -1.3122 -0.6841 -1.7725
 4457SOL     OW15044   8.714   1.065   5.358  0.3600 -0.1049  0.1612
 4457SOL    HW115045   8.741   1.114   5.280  0.5691  0.4471  0.5724
 4457SOL    HW215046   8.622   1.044   5.343  0.0907  0.9410  0.2266
 4458SOL     OW15047   2.435   2.319   8.611 -0.1868 -0.1129 -0.0779
 4458SOL    HW115048   2.356   2.333   8.558 -0.2599  0.5225  0.2009
 4458SOL    HW215049   2.506   2.319   8.547 -0.2680  0.7276 -0.1796
 4459SOL     OW15050   8.927   6.942   4.424  0.1270 -0.0619  0.0079
 4459SOL    HW115051   8.918   6.950   4.519  1.1118  0.8681  0.0409
 4459SOL    HW215052   9.019   6.921   4.410  0.2383  0.8833 -0.7925
 4460SOL     OW15053   1.603   7.007   8.234  0.1174 -0.0976 -0.2686
 4460SOL    HW115054   1.671   7.074   8.242  0.6149 -0.4728 -1.2166
 4460SOL    HW215055   1.523   7.057   8.217  0.0209  0.3799  1.4360
 4461SOL     OW15056   1.830   2.145   7.400  0.2314 -0.1304 -0.5436
 4461SOL    HW115057   1.750   2.184   7.434  0.2173 -1.6367  1.2895
 4461SOL    HW215058   1.800   2.083   7.333 -0.2144 -1.0719  0.4991
 4462SOL     OW15059   4.023   4.304   9.163  0.2463 -0.1162 -0.3311
 4462SOL    HW115060   3.927   4.306   9.162  0.2508 -0.1402 -0.8495
 4462SOL    HW215061   4.049   4.317   9.072  0.7101 -1.4434 -0.4223
 4463SOL     OW15062   7.301   5.040   8.707  0.0635 -0.0430 -0.5824
 4463SOL    HW115063   7.335   4.969   8.652 -1.3243 -0.2641 -1.2037
 4463SOL    HW215064   7.354   5.116   8.683  1.4335 -0.7929 -0.0609
 4464SOL     OW15065   6.389   7.629   8.012  0.5670 -0.5270  0.4829
 4464SOL    HW115066   6.351   7.713   8.037 -1.6072 -1.2414 -0.1624
 4464SOL    HW215067   6.455   7.651   7.946 -1.3980  0.6148 -1.2195
 4465SOL     OW15068   2.246   5.059   3.548  0.4525 -0.1378  0.0279
 4465SOL    HW115069   2.277   5.020   3.466  1.8293  0.7430  0.0884
 4465SOL    HW215070   2.325   5.095   3.588 -0.2353 -0.3876  1.6691
 4466SOL     OW15071   5.461   1.501   8.221  0.0652  0.0675 -0.0426
 4466SOL    HW115072   5.386   1.543   8.261 -0.7807 -0.6260 -0.8501
 4466SOL    HW215073   5.507   1.458   8.294 -0.5089  0.2164  0.4088
 4467SOL     OW15074   3.452   2.959   9.626  0.0061  0.3137  0.0733
 4467SOL    HW115075   3.482   3.048   9.645  4.1248 -0.5518 -1.2563
 4467SOL    HW215076   3.499   2.904   9.688 -0.5181 -1.1331 -0.7695
 4468SOL     OW15077   7.153   8.839   0.573 -0.4158  0.8332 -0.4453
 4468SOL    HW115078   7.181   8.782   0.501 -0.2234 -0.0041  0.2714
 4468SOL    HW215079   7.084   8.790   0.617 -0.0714  1.0425  0.3353
 4469SOL     OW15080   0.957   6.354   6.480 -0.0401  0.1463  0.7242
 4469SOL    HW115081   0.974   6.326   6.390 -0.2504 -0.7644  0.9532
 4469SOL    HW215082   0.951   6.449   6.475  3.4361  0.4765  0.3240
 4470SOL     OW15083   7.324   5.503   2.340 -0.2580  0.3160 -0.4131
 4470SOL    HW115084   7.419   5.489   2.340 -0.4926 -2.4896  2.3051
 4470SOL    HW215085   7.296   5.478   2.252  1.4646  0.7088 -1.1063
 4471SOL     OW15086   6.428   2.782   4.760  0.5025  0.3881 -0.4498
 4471SOL    HW115087   6.511   2.829   4.748  0.1627  0.9098 -0.8134
 4471SOL    HW215088   6.400   2.760   4.671 -0.3634  1.3217 -0.4223
 4472SOL     OW15089   7.398   0.793   5.814  0.4974 -0.0988 -0.1343
 4472SOL    HW115090   7.436   0.842   5.887  0.2861  0.2764 -0.2712
 4472SOL    HW215091   7.439   0.707   5.818  0.2917 -0.1696  0.5938
 4473SOL     OW15092   2.594   3.285   2.226 -0.2358 -0.3938 -0.7637
 4473SOL    HW115093   2.549   3.363   2.257 -0.5378 -1.0780  0.5544
 4473SOL    HW215094   2.569   3.279   2.134 -1.3656  0.2573 -0.5224
 4474SOL     OW15095   6.384   3.900   0.151  0.3221  0.4113  0.1538
 4474SOL    HW115096   6.393   3.853   0.068  0.8324 -1.7201  1.3270
 4474SOL    HW215097   6.325   3.973   0.132 -0.4724 -0.6786 -1.7971
 4475SOL     OW15098   8.331   6.003   4.412  0.1283  0.0935 -0.0860
 4475SOL    HW115099   8.326   5.915   4.373 -0.5567  0.0822  0.0150
 4475SOL    HW215100   8.263   6.052   4.367  0.9727  0.7824 -0.6411
 4476SOL     OW15101   3.969   2.479   6.215  0.3618  0.4410  0.4762
 4476SOL    HW115102   4.035   2.433   6.267 -0.1205 -1.1555 -0.2360
 4476SOL    HW215103   3.887   2.434   6.237  0.1477 -0.3108 -1.6185
 4477SOL     OW15104   7.273   3.623   7.043 -0.3556  0.2217  0.2369
 4477SOL    HW115105   7.320   3.654   7.120 -0.7911 -0.9850  1.0089
 4477SOL    HW215106   7.322   3.658   6.969 -0.4169  2.1301  1.0428
 4478SOL     OW15107   3.549   6.947   5.886 -0.8581 -0.6986  0.2290
 4478SOL    HW115108   3.571   7.011   5.954 -0.7900 -1.5443  1.0274
 4478SOL    HW215109   3.540   6.998   5.806  0.6740  0.1117  0.5431
 4479SOL     OW15110   2.435   0.385   7.325  0.0699 -0.0626 -0.0329
 4479SOL    HW115111   2.393   0.348   7.402 -0.3461 -1.5448 -0.9357
 4479SOL    HW215112   2.379   0.360   7.252  0.8527  0.6555 -0.9088
 4480SOL     OW15113   0.520   0.092   5.520 -0.1777 -0.6830  0.1654
 4480SOL    HW115114   0.495   0.083   5.612  0.4107  1.0621  0.5405
 4480SOL    HW215115   0.437   0.101   5.473 -0.4517 -0.6298  0.6587
 4481SOL     OW15116   3.616   6.129   5.747  0.3280 -0.5088  0.1937
 4481SOL    HW115117   3.562   6.207   5.758  1.8100  0.6510 -0.3140
 4481SOL    HW215118   3.680   6.134   5.818 -0.8655 -2.4626  1.4760
 4482SOL     OW15119   2.488   0.102   2.734  0.3853  0.4221 -0.4506
 4482SOL    HW115120   2.512   0.135   2.647  2.2337  0.7706  0.1574
 4482SOL    HW215121   2.473   0.180   2.786 -0.6776  0.2115 -0.4122
 4483SOL     OW15122   6.281   4.840   6.627 -0.3062 -0.5961  0.0420
 4483SOL    HW115123   6.328   4.901   6.571 -0.8181 -1.6709 -1.6239
 4483SOL    HW215124   6.285   4.880   6.714  3.6782 -0.5887  0.0586
 4484SOL     OW15125   9.628   2.908   7.697 -0.9053  0.5141 -0.4555
 4484SOL    HW115126   9.649   2.936   7.786 -1.3814  0.9263 -0.4718
 4484SOL    HW215127   9.541   2.869   7.703 -0.1451 -1.2964 -0.3744
 4485SOL     OW15128   3.948   0.925   0.604 -0.2480 -0.2459 -0.7443
 4485SOL    HW115129   3.930   1.002   0.550 -1.1032 -0.0726 -0.2203
 4485SOL    HW215130   4.021   0.952   0.660 -1.4425  0.7089  0.4346
 4486SOL     OW15131   8.017   2.949   1.543 -0.5472 -0.0073  0.2347
 4486SOL    HW115132   8.033   3.035   1.505 -1.8110  0.2103  0.1791
 4486SOL    HW215133   8.099   2.928   1.588  0.1009  0.8069 -0.5227
 4487SOL     OW15134   4.660   9.599   1.112 -0.0868  0.4139 -0.4598
 4487SOL    HW115135   4.628   9.509   1.118  0.1330  0.4168  0.9211
 4487SOL    HW215136   4.599   9.642   1.051  0.0363 -0.7473 -1.4333
 4488SOL     OW15137   0.328   4.642   6.771 -0.0865  0.3432 -0.5564
 4488SOL    HW115138   0.243   4.601   6.788  0.1822  0.2779  0.8009
 4488SOL    HW215139   0.307   4.729   6.737 -0.6818 -0.1168 -1.3749
 4489SOL     OW15140   5.919   4.099   6.308  0.2887 -0.3849  0.1031
 4489SOL    HW115141   5.911   4.064   6.397  0.8558  0.4715  0.4983
 4489SOL    HW215142   5.863   4.042   6.256 -2.2520  0.7099  1.4365
 4490SOL     OW15143   1.744   4.331   6.594  0.3946 -0.0126 -0.1348
 4490SOL    HW115144   1.786   4.278   6.662 -0.2945  0.5130  0.7374
 4490SOL    HW215145   1.651   4.305   6.598  0.2560  0.4140 -0.5052
 4491SOL     OW15146   2.421   5.018   8.287 -0.0759  0.1134  0.2512
 4491SOL    HW115147   2.504   4.981   8.316  0.0249 -0.6312 -0.9206
 4491SOL    HW215148   2.361   5.002   8.360  0.5450 -0.2760  0.6897
 4492SOL     OW15149   4.038   3.745   8.107  0.3928  0.3427 -0.1411
 4492SOL    HW115150   3.960   3.713   8.153  0.4224 -0.1367 -0.4217
 4492SOL    HW215151   4.108   3.686   8.134  0.0336 -1.1208 -2.2209
 4493SOL     OW15152   5.568   6.154   8.695  0.7322  0.0522 -0.0787
 4493SOL    HW115153   5.592   6.247   8.693 -2.1923  0.9316 -0.0499
 4493SOL    HW215154   5.579   6.129   8.787  0.9947  0.5376  0.0299
 4494SOL     OW15155   3.296   5.461   6.966  0.1805 -0.2972  0.0094
 4494SOL    HW115156   3.228   5.400   6.937  0.3109 -0.1345 -0.6361
 4494SOL    HW215157   3.252   5.516   7.031 -0.1683 -0.5238 -0.0310
 4495SOL     OW15158   9.158   3.459   1.803 -0.4790  0.5549  0.2281
 4495SOL    HW115159   9.189   3.466   1.893 -0.0520 -0.2535  0.1527
 4495SOL    HW215160   9.101   3.535   1.791  0.4934  1.3824  0.7647
 4496SOL     OW15161   1.921   1.559   9.041  0.0343 -0.1659  0.1150
 4496SOL    HW115162   1.977   1.526   8.971 -1.2955  0.2753 -1.1970
 4496SOL    HW215163   1.964   1.640   9.070  0.3192 -0.0767 -0.5466
 4497SOL     OW15164   2.196   6.231   0.665 -0.0622 -0.2402 -0.6398
 4497SOL    HW115165   2.236   6.210   0.749  0.1721 -1.2373 -0.9934
 4497SOL    HW215166   2.106   6.199   0.673 -0.9175  2.1617  0.2240
 4498SOL     OW15167   1.055   8.526   9.468  0.1569  0.0412 -0.9600
 4498SOL    HW115168   1.028   8.455   9.526 -0.3373  0.1563 -1.0455
 4498SOL    HW215169   1.143   8.502   9.440  0.2744 -0.1721 -0.4129
 4499SOL     OW15170   5.554   6.085   8.950  0.2091 -0.2953 -0.4711
 4499SOL    HW115171   5.601   6.164   8.975 -0.1264 -0.6619  1.5313
 4499SOL    HW215172   5.591   6.016   9.006 -1.6582 -0.8706  0.1506
 4500SOL     OW15173   8.501   1.864   8.983  0.1612  0.1621  0.2541
 4500SOL    HW115174   8.433   1.862   9.050 -0.4583 -0.1316 -0.3837
 4500SOL    HW215175   8.487   1.785   8.931  1.7725 -0.6004  0.8729
 4501SOL     OW15176   7.746   1.526   7.710  0.0680 -0.1259  0.1202
 4501SOL    HW115177   7.762   1.596   7.646 -0.7831  0.2575  0.3092
 4501SOL    HW215178   7.676   1.561   7.765  0.7882 -0.4551  1.2615
 4502SOL     OW15179   7.608   9.113   1.047 -0.4237  0.0542 -0.3041
 4502SOL    HW115180   7.584   9.168   1.122  0.3967 -1.2578  0.9528
 4502SOL    HW215181   7.702   9.126   1.036 -0.2030 -1.1319  0.0540
 4503SOL     OW15182   6.857   6.294   9.613  0.5516  0.0593  0.1195
 4503SOL    HW115183   6.854   6.313   9.519  1.2054  1.1503  0.3053
 4503SOL    HW215184   6.949   6.276   9.631  0.2475 -1.3554  0.3425
 4504SOL     OW15185   7.408   7.250   7.576 -0.0380  0.3599 -0.2622
 4504SOL    HW115186   7.399   7.201   7.658 -2.0591  0.5928 -0.2897
 4504SOL    HW215187   7.375   7.190   7.509 -1.2549  1.2365 -0.4731
 4505SOL     OW15188   3.074   4.982   5.709  0.2572 -0.3709 -0.3732
 4505SOL    HW115189   3.001   5.042   5.692 -1.4172 -2.5623 -1.5017
 4505SOL    HW215190   3.101   4.953   5.622 -0.6559 -3.0336  0.1214
 4506SOL     OW15191   7.756   5.466   8.819  0.6537 -0.3539 -0.4265
 4506SOL    HW115192   7.822   5.534   8.806  0.2388  0.1194 -0.1062
 4506SOL    HW215193   7.764   5.441   8.911 -0.9330  1.1499  0.1837
 4507SOL     OW15194   7.580   6.067   4.440 -0.1846  0.0821 -0.0631
 4507SOL    HW115195   7.511   6.085   4.376 -0.1323 -1.9427 -0.7519
 4507SOL    HW215196   7.661   6.091   4.395 -0.2816  0.3209 -0.1092
 4508SOL     OW15197   6.655   6.575   7.066 -0.7381 -0.7494  0.1204
 4508SOL    HW115198   6.689   6.500   7.114 -0.9857 -1.0646 -0.1890
 4508SOL    HW215199   6.617   6.631   7.133  1.2902  0.1345  0.6195
 4509SOL     OW15200   6.587   9.629   6.174 -0.0337 -0.1576  0.5405
 4509SOL    HW115201   6.674   9.632   6.135  0.6033  1.3774  1.9780
 4509SOL    HW215202   6.536   9.693   6.124 -0.2989 -0.8808 -0.1412
 4510SOL     OW15203   1.173   0.258   0.359 -0.0880  0.3660  0.1976
 4510SOL    HW115204   1.122   0.185   0.324 -0.0665 -0.0097  0.9345
 4510SOL    HW215205   1.173   0.244   0.453  0.2545  1.1035  0.3120
 4511SOL     OW15206   8.403   2.926   4.846  0.3866  0.0825 -0.3722
 4511SOL    HW115207   8.383   2.832   4.850 -0.5646  0.3095  0.9018
 4511SOL    HW215208   8.386   2.950   4.754 -0.7728 -0.7136 -0.3916
 4512SOL     OW15209   6.751   4.012   4.601  0.1377  0.1250 -0.1684
 4512SOL    HW115210   6.664   3.987   4.633 -0.3059 -0.6958 -1.9059
 4512SOL    HW215211   6.797   3.929   4.590  1.3465  0.5749  1.1498
 4513SOL     OW15212   7.985   6.465   5.748 -0.3175  0.0846 -0.0895
 4513SOL    HW115213   7.915   6.491   5.807 -0.1926 -1.2428  0.6801
 4513SOL    HW215214   8.049   6.420   5.804  1.3394  1.5516 -0.7009
 4514SOL     OW15215   4.404   8.523   9.212  0.1029 -0.1678 -0.1802
 4514SOL    HW115216   4.380   8.470   9.288 -0.4586  0.3456  0.0077
 4514SOL    HW215217   4.499   8.515   9.206  0.1596 -0.1615  0.6178
 4515SOL     OW15218   9.201   2.473   1.816 -0.0970 -0.2715 -0.0151
 4515SOL    HW115219   9.195   2.569   1.810  1.2203 -0.1909 -0.2800
 4515SOL    HW215220   9.112   2.443   1.799 -0.3006  0.8632 -1.1432
 4516SOL     OW15221   8.923   5.316   0.320  0.0030 -0.1170 -0.1693
 4516SOL    HW115222   8.880   5.311   0.406 -0.1728  0.7032 -0.2040
 4516SOL    HW215223   8.978   5.394   0.325 -1.1861  0.8485 -1.3056
 4517SOL     OW15224   5.750   6.086   1.383  0.0567  1.0300  0.2185
 4517SOL    HW115225   5.761   6.078   1.288 -1.5541  0.0561  0.0700
 4517SOL    HW215226   5.656   6.096   1.395  0.2828  1.5435  1.7059
 4518SOL     OW15227   0.913   1.337   2.580  0.3916  0.3095  0.5433
 4518SOL    HW115228   0.962   1.359   2.501  0.0025  1.5409  0.6192
 4518SOL    HW215229   0.978   1.296   2.638  1.4319  2.1233  0.7382
 4519SOL     OW15230   1.342   5.276   8.079  0.3379  0.3004  0.3069
 4519SOL    HW115231   1.362   5.253   8.169  0.6990  1.6539  0.5924
 4519SOL    HW215232   1.326   5.370   8.081  0.6065  0.4019 -1.0812
 4520SOL     OW15233   2.224   8.393   3.235  0.4183  0.2757  0.6375
 4520SOL    HW115234   2.227   8.391   3.140 -2.4808 -1.7971  0.4543
 4520SOL    HW215235   2.132   8.379   3.256  0.8051  1.6274  3.7795
 4521SOL     OW15236   3.785   3.103   2.853  0.0426 -0.1213 -0.0124
 4521SOL    HW115237   3.708   3.079   2.906  0.2370  0.3009  0.4773
 4521SOL    HW215238   3.751   3.167   2.790 -0.0774 -0.1943 -0.0227
 4522SOL     OW15239   1.781   1.283   8.169 -0.0519  0.0628  0.7325
 4522SOL    HW115240   1.704   1.229   8.158  0.2160 -0.7124  2.4578
 4522SOL    HW215241   1.756   1.368   8.133 -1.2996 -0.4930  0.2389
 4523SOL     OW15242   6.937   4.289   2.131  1.1131  0.5277 -0.8068
 4523SOL    HW115243   6.907   4.263   2.218 -0.0665  0.9878 -1.0561
 4523SOL    HW215244   7.002   4.224   2.108  1.2308  0.2256  0.2987
 4524SOL     OW15245   7.473   9.043   7.524  0.3412 -0.4570  0.8095
 4524SOL    HW115246   7.542   8.978   7.514  1.5790  1.1294 -1.9464
 4524SOL    HW215247   7.518   9.125   7.543 -0.7808  0.5328 -0.5886
 4525SOL     OW15248   0.292   1.049   1.098 -0.1716  0.0318  0.0104
 4525SOL    HW115249   0.276   0.992   1.023 -1.2098  1.1838 -0.6934
 4525SOL    HW215250   0.331   1.128   1.061 -0.5465  0.5534  0.6989
 4526SOL     OW15251   0.492   8.223   9.064  1.1062 -0.2841  0.5038
 4526SOL    HW115252   0.427   8.282   9.101  1.0860  0.3444 -0.4961
 4526SOL    HW215253   0.489   8.145   9.120  1.4247  0.8050  2.0847
 4527SOL     OW15254   9.228   7.545   1.838  0.1721 -0.1170 -0.1000
 4527SOL    HW115255   9.167   7.577   1.771 -0.0303 -0.2088  0.0381
 4527SOL    HW215256   9.201   7.455   1.854  0.6544 -0.3133 -0.3863
 4528SOL     OW15257   6.212   9.524   1.560  0.1153  0.9119 -0.1733
 4528SOL    HW115258   6.136   9.471   1.537 -0.4603  1.2269  0.9302
 4528SOL    HW215259   6.242   9.560   1.477 -0.0872 -0.3286 -0.8086
 4529SOL     OW15260   8.034   3.197   3.230 -0.1071  0.1066  0.4232
 4529SOL    HW115261   8.072   3.163   3.149 -0.7626  1.2407 -0.3760
 4529SOL    HW215262   7.946   3.226   3.205  0.5407  2.7476  0.9528
 4530SOL     OW15263   7.648   9.562   3.455 -0.2210 -0.1899  0.0004
 4530SOL    HW115264   7.689   9.608   3.529  0.7656 -1.6969  0.4285
 4530SOL    HW215265   7.558   9.545   3.485  0.1362 -0.6910  0.8369
 4531SOL     OW15266   0.811   8.161   3.206  0.2962 -0.5580 -0.1187
 4531SOL    HW115267   0.904   8.181   3.199  0.3672 -0.8093  0.1265
 4531SOL    HW215268   0.769   8.221   3.144  0.6950 -1.0180 -0.8441
 4532SOL     OW15269   6.002   6.465   4.508 -0.4874  0.2053  0.6961
 4532SOL    HW115270   5.966   6.432   4.591  0.0367 -1.8143  0.1803
 4532SOL    HW215271   5.927   6.472   4.450 -0.6303 -0.0103  0.8526
 4533SOL     OW15272   2.605   4.022   4.977 -0.0737 -0.0166 -0.2177
 4533SOL    HW115273   2.543   4.092   4.954  1.8088  2.2247  1.0832
 4533SOL    HW215274   2.553   3.961   5.029 -2.0618 -0.3139 -2.3376
 4534SOL     OW15275   3.590   2.535   3.216  0.1359  0.1327 -0.3523
 4534SOL    HW115276   3.519   2.473   3.231  0.2597 -0.3677 -1.7087
 4534SOL    HW215277   3.580   2.562   3.125  2.3442 -0.8448 -0.9665
 4535SOL     OW15278   7.599   3.637   2.988  0.2239 -0.2678  0.1526
 4535SOL    HW115279   7.611   3.731   3.002 -0.1597 -0.1176 -0.4764
 4535SOL    HW215280   7.591   3.601   3.076  1.7703  0.0768  0.4715
 4536SOL     OW15281   2.427   9.139   9.355 -0.5326  0.1234 -0.2951
 4536SOL    HW115282   2.452   9.075   9.421  2.5504 -0.4857 -1.8602
 4536SOL    HW215283   2.331   9.137   9.354 -0.6239 -1.5119  2.4643
 4537SOL     OW15284   8.740   9.034   6.112  0.3144 -0.1730  0.3382
 4537SOL    HW115285   8.775   8.946   6.101 -0.8588 -0.6030 -0.2041
 4537SOL    HW215286   8.777   9.084   6.039  1.3721 -0.0692  0.9294
 4538SOL     OW15287   0.822   0.081   8.625  0.3838 -0.3869 -0.2073
 4538SOL    HW115288   0.862   0.149   8.572 -0.3076  1.2706  1.3073
 4538SOL    HW215289   0.749   0.049   8.572  1.6458 -1.1042 -1.5805
 4539SOL     OW15290   4.967   8.548   5.778  1.0069  0.3116 -0.4382
 4539SOL    HW115291   4.883   8.507   5.800  0.6991 -0.8687 -3.3240
 4539SOL    HW215292   5.014   8.552   5.861 -0.0669 -3.4176  0.5508
 4540SOL     OW15293   7.463   6.148   3.163  0.7487 -0.2101 -0.2733
 4540SOL    HW115294   7.377   6.153   3.205  1.3699  2.7413  0.8566
 4540SOL    HW215295   7.456   6.202   3.085  1.7315  0.6530  0.2081
 4541SOL     OW15296   5.277   0.548   7.496  0.6155 -0.0696  0.1818
 4541SOL    HW115297   5.342   0.618   7.494  0.6072 -0.0700 -0.6664
 4541SOL    HW215298   5.294   0.500   7.577 -0.0890  1.5716  1.3350
 4542SOL     OW15299   6.746   8.929   7.266  0.5967 -0.8006 -0.0616
 4542SOL    HW115300   6.841   8.924   7.273  0.6289 -0.5982 -0.3439
 4542SOL    HW215301   6.724   8.883   7.185  0.6301  0.7400 -0.9950
 4543SOL     OW15302   1.739   7.447   9.408  0.4566  0.4725  0.4727
 4543SOL    HW115303   1.648   7.462   9.380  0.1498 -2.1572 -0.2197
 4543SOL    HW215304   1.786   7.524   9.377 -1.1878  0.9645 -0.9946
 4544SOL     OW15305   9.677   3.452   8.338 -0.1222 -0.2528 -0.0118
 4544SOL    HW115306   9.700   3.483   8.426 -1.6024 -2.6136  1.3283
 4544SOL    HW215307   9.747   3.391   8.315 -1.5889 -2.5609  1.2899
 4545SOL     OW15308   0.246   2.314   7.348 -0.0699  0.7015 -0.1920
 4545SOL    HW115309   0.159   2.347   7.371  0.2295  1.8890 -0.6824
 4545SOL    HW215310   0.231   2.225   7.317 -0.9285  0.3879  1.0711
 4546SOL     OW15311   3.854   3.608   5.222  0.3133  0.1610 -0.2355
 4546SOL    HW115312   3.926   3.594   5.160 -0.1656 -1.9978 -0.3565
 4546SOL    HW215313   3.775   3.603   5.169 -0.0593 -0.8146  0.3915
 4547SOL     OW15314   2.905   8.102   4.602 -0.4831  0.3279 -0.2766
 4547SOL    HW115315   2.871   8.121   4.515  0.1029  0.5463 -0.4611
 4547SOL    HW215316   2.973   8.168   4.616 -0.8499  0.5521  0.5093
 4548SOL     OW15317   3.105   3.841   8.214  0.5306  0.6599  0.3925
 4548SOL    HW115318   3.136   3.829   8.124  0.1556  2.7148 -0.0728
 4548SOL    HW215319   3.035   3.777   8.224  1.2533 -0.2926 -0.4089
 4549SOL     OW15320   4.726   5.332   7.034 -0.1059 -0.7542 -0.0041
 4549SOL    HW115321   4.717   5.239   7.014  0.8873 -0.9235  0.2626
 4549SOL    HW215322   4.816   5.341   7.065 -0.9071 -0.1419  2.3375
 4550SOL     OW15323   8.434   8.924   5.804  0.0428  0.1917  0.6110
 4550SOL    HW115324   8.453   9.017   5.817 -0.3466  0.4958 -0.8351
 4550SOL    HW215325   8.382   8.899   5.880 -2.5473  1.9780 -0.4429
 4551SOL     OW15326   0.506   1.696   3.477 -0.5451  0.2464  0.2555
 4551SOL    HW115327   0.490   1.783   3.514 -2.0129 -0.3989  1.2533
 4551SOL    HW215328   0.470   1.701   3.388  0.3796  0.9656 -0.0923
 4552SOL     OW15329   9.310   4.004   2.609  0.1273 -0.3496  0.1756
 4552SOL    HW115330   9.232   4.020   2.555  1.1298  0.6119 -1.0486
 4552SOL    HW215331   9.324   4.086   2.656  2.3216  0.8234 -2.2360
 4553SOL     OW15332   0.299   3.542   4.121  0.2506  0.6246  0.2436
 4553SOL    HW115333   0.341   3.469   4.075 -1.3242  1.1154 -2.2074
 4553SOL    HW215334   0.205   3.522   4.115 -0.1793  2.5999 -0.0794
 4554SOL     OW15335   4.132   6.870   6.539  0.4748 -0.6742 -0.0465
 4554SOL    HW115336   4.118   6.787   6.584  0.8035  0.7530  2.9261
 4554SOL    HW215337   4.150   6.846   6.449 -1.3405 -3.6907  0.2658
 4555SOL     OW15338   5.534   7.746   9.397  0.4038  0.3932  0.0916
 4555SOL    HW115339   5.446   7.712   9.409 -0.4187  1.8708 -1.3975
 4555SOL    HW215340   5.531   7.835   9.431  1.3290  0.4638  0.0316
 4556SOL     OW15341   7.273   0.159   0.768 -0.1451  0.3590  0.4039
 4556SOL    HW115342   7.308   0.209   0.694 -0.5372 -0.7556 -0.5632
 4556SOL    HW215343   7.318   0.075   0.764 -0.9506 -0.1044  0.7886
 4557SOL     OW15344   2.554   5.318   1.307  0.3383 -0.1918  0.0647
 4557SOL    HW115345   2.485   5.358   1.360  0.2502 -0.6189  0.2747
 4557SOL    HW215346   2.548   5.361   1.222  1.7279  1.9231  0.9496
 4558SOL     OW15347   9.288   4.182   8.307  0.1148 -0.2305 -0.6148
 4558SOL    HW115348   9.226   4.254   8.316  0.2374 -0.1902 -0.0244
 4558SOL    HW215349   9.322   4.190   8.218  0.3113  0.5908 -0.4778
 4559SOL     OW15350   4.055   6.842   0.583  0.1404 -0.2654  0.1098
 4559SOL    HW115351   4.136   6.807   0.545  0.3683 -0.4757  0.7586
 4559SOL    HW215352   4.080   6.866   0.673 -1.2691 -3.5198  1.5278
 4560SOL     OW15353   8.116   0.175   9.630 -0.0463  0.2387  0.2449
 4560SOL    HW115354   8.099   0.244   9.695 -1.5474  0.5254 -0.4037
 4560SOL    HW215355   8.131   0.222   9.548  0.7324 -0.1610  0.1501
 4561SOL     OW15356   2.063   6.214   7.111  0.0622 -0.2240 -0.0451
 4561SOL    HW115357   2.015   6.293   7.137  0.4296  0.0623 -0.2409
 4561SOL    HW215358   2.079   6.225   7.017 -1.6403 -1.4547 -0.5310
 4562SOL     OW15359   2.711   0.214   8.965  0.0022  0.3423  0.3330
 4562SOL    HW115360   2.643   0.147   8.974 -1.8938  2.3222  1.8186
 4562SOL    HW215361   2.720   0.226   8.871 -0.8063 -0.8327  0.0709
 4563SOL     OW15362   0.112   4.021   2.193  0.1450  0.1175  0.0468
 4563SOL    HW115363   0.098   4.114   2.210  0.1794  0.1871 -0.3082
 4563SOL    HW215364   0.159   3.989   2.270  0.6217  0.5100 -0.0763
 4564SOL     OW15365   4.775   3.875   5.390  0.6382  0.3126 -0.0807
 4564SOL    HW115366   4.754   3.931   5.464  1.4161  0.9254 -0.3167
 4564SOL    HW215367   4.791   3.935   5.317  1.4918 -0.1998 -0.3338
 4565SOL     OW15368   0.535   2.985   7.196  0.1966  0.3181 -0.3068
 4565SOL    HW115369   0.480   2.929   7.142 -1.2265  2.1293 -0.8603
 4565SOL    HW215370   0.557   3.059   7.139  0.1229  1.4117  1.0326
 4566SOL     OW15371   1.011   4.030   8.005  0.0760 -0.2463 -0.5250
 4566SOL    HW115372   1.106   4.046   7.999  0.1071 -0.6598 -1.2510
 4566SOL    HW215373   0.989   3.988   7.922 -0.4863 -1.4444  0.1997
 4567SOL     OW15374   2.134   3.597   1.883 -0.6176  0.3002  0.3164
 4567SOL    HW115375   2.063   3.564   1.828 -2.4369 -2.1749  3.7210
 4567SOL    HW215376   2.112   3.565   1.971  3.4441  1.6186  2.0345
 4568SOL     OW15377   8.545   0.017   4.668  0.5183 -0.1564  0.1795
 4568SOL    HW115378   8.597  -0.062   4.677  2.0265  0.8883  1.1427
 4568SOL    HW215379   8.483   0.014   4.742  0.5168 -0.4619  0.1663
 4569SOL     OW15380   3.583   8.908   8.455  0.9900 -0.3233  0.6338
 4569SOL    HW115381   3.566   8.922   8.548 -0.0728 -0.7353  0.5182
 4569SOL    HW215382   3.634   8.827   8.451 -0.4641 -1.2923  0.7852
 4570SOL     OW15383   2.879   3.117   2.532 -0.1893 -0.0216 -0.3637
 4570SOL    HW115384   2.814   3.048   2.517 -0.0243 -0.2190 -0.1848
 4570SOL    HW215385   2.959   3.069   2.556  0.1363  0.2005 -0.9792
 4571SOL     OW15386   1.782   0.909   2.272  0.6505  0.7249  0.8426
 4571SOL    HW115387   1.761   0.864   2.354 -2.6121  2.2270  1.0053
 4571SOL    HW215388   1.751   0.998   2.285  0.8779  1.2539 -1.7082
 4572SOL     OW15389   6.862   6.832   8.094 -0.2818  0.3712 -0.4294
 4572SOL    HW115390   6.773   6.859   8.117 -1.5619 -3.0810 -0.7465
 4572SOL    HW215391   6.897   6.796   8.175 -0.8701 -2.1829 -1.2244
 4573SOL     OW15392   0.053   6.596   6.894  0.3853 -0.5035 -0.2969
 4573SOL    HW115393   0.100   6.677   6.914  0.8801 -0.3945 -1.7717
 4573SOL    HW215394   0.035   6.601   6.800  0.1856 -1.9789 -0.3634
 4574SOL     OW15395   2.842   5.691   6.455 -0.0269 -0.5617 -0.4850
 4574SOL    HW115396   2.790   5.763   6.489  0.2742 -1.1852  1.4119
 4574SOL    HW215397   2.784   5.614   6.463 -0.0256 -0.7015 -1.6360
 4575SOL     OW15398   2.176   9.245   5.034 -0.4718  0.3759 -0.2138
 4575SOL    HW115399   2.162   9.297   4.955  0.1911  0.0878 -0.5315
 4575SOL    HW215400   2.117   9.283   5.099  0.3528  1.8314 -0.2917
 4576SOL     OW15401   1.959   9.284   8.777 -0.0772  0.0735  0.1861
 4576SOL    HW115402   1.939   9.361   8.724 -0.9062  1.4950  2.4415
 4576SOL    HW215403   1.882   9.228   8.768 -0.4149  0.5236  0.2778
 4577SOL     OW15404   6.179   8.974   6.238 -0.2810  0.4235 -0.3417
 4577SOL    HW115405   6.178   9.059   6.283 -0.2104  0.7054 -0.8676
 4577SOL    HW215406   6.248   8.924   6.283 -0.6253  0.4745  0.2649
 4578SOL     OW15407   8.217   6.522   4.979  0.0389 -0.0519  0.1994
 4578SOL    HW115408   8.134   6.524   5.027 -1.3744  0.7901 -2.1137
 4578SOL    HW215409   8.192   6.512   4.887  2.5232  0.0060 -0.5608
 4579SOL     OW15410   6.830   8.780   3.168  0.0507  0.4261  0.0238
 4579SOL    HW115411   6.899   8.728   3.210 -0.7047 -0.0533  0.6936
 4579SOL    HW215412   6.848   8.870   3.196 -0.2477  0.1546  1.1355
 4580SOL     OW15413   5.504   1.208   9.521 -0.4511  0.5145  0.0899
 4580SOL    HW115414   5.454   1.136   9.484 -1.1324  1.4561 -0.8892
 4580SOL    HW215415   5.463   1.225   9.606 -0.1803 -0.3367  0.3968
 4581SOL     OW15416   2.791   4.037   6.786  0.2328 -0.3536  0.1027
 4581SOL    HW115417   2.799   4.123   6.827 -2.6708  0.5428 -0.9176
 4581SOL    HW215418   2.866   4.030   6.728 -0.6145  2.6306 -1.5740
 4582SOL     OW15419   0.372   7.709   5.817 -0.6230  0.5513  0.0796
 4582SOL    HW115420   0.385   7.626   5.861 -0.7409 -0.0281 -0.9498
 4582SOL    HW215421   0.278   7.726   5.824 -0.8431 -0.1291 -0.9305
 4583SOL     OW15422   9.270   0.038   4.189 -0.3396 -0.2329 -0.3511
 4583SOL    HW115423   9.252   0.070   4.277 -0.8521 -0.4875 -0.3603
 4583SOL    HW215424   9.349   0.086   4.162 -0.5733  0.3513 -0.0219
 4584SOL     OW15425   0.434   8.476   7.964 -0.0205  0.1742 -0.1740
 4584SOL    HW115426   0.347   8.515   7.967 -0.2309 -0.2837 -0.2234
 4584SOL    HW215427   0.425   8.393   8.011  0.3522  0.0638 -0.2917
 4585SOL     OW15428   6.911   8.383   3.242  0.7059 -0.0611 -0.5799
 4585SOL    HW115429   6.980   8.322   3.268  0.8768  0.5105  0.3566
 4585SOL    HW215430   6.953   8.469   3.243  0.7016  0.0089 -2.7541
 4586SOL     OW15431   7.946   0.296   5.155  0.3098  0.2562 -0.3406
 4586SOL    HW115432   8.028   0.304   5.108  1.0758  1.3683  1.1199
 4586SOL    HW215433   7.971   0.267   5.243 -0.8921  0.2332  0.0129
 4587SOL     OW15434   7.188   5.738   9.667  0.0289 -0.3480  0.0075
 4587SOL    HW115435   7.227   5.671   9.611 -1.6321  0.0464 -1.7154
 4587SOL    HW215436   7.169   5.810   9.608 -1.3860  0.2785  1.1808
 4588SOL     OW15437   8.403   8.094   8.590  0.1053  0.5873 -0.0231
 4588SOL    HW115438   8.404   8.041   8.670 -0.9437  0.9636  0.2547
 4588SOL    HW215439   8.359   8.039   8.525  1.7177 -0.0560 -0.6044
 4589SOL     OW15440   7.337   2.757   4.276  0.8134  0.1446  0.1802
 4589SOL    HW115441   7.327   2.700   4.200 -2.3820 -0.2108  0.7253
 4589SOL    HW215442   7.371   2.839   4.240  0.6463 -0.4653 -1.4362
 4590SOL     OW15443   0.132   3.923   1.166 -0.8537  0.9287  0.4218
 4590SOL    HW115444   0.169   4.009   1.148 -0.9993  0.7479 -0.8635
 4590SOL    HW215445   0.111   3.887   1.080 -0.9245 -0.3404  0.9381
 4591SOL     OW15446   4.624   5.358   3.695  0.3152  0.4372  0.7382
 4591SOL    HW115447   4.664   5.275   3.669 -0.5235  0.2770 -0.0855
 4591SOL    HW215448   4.667   5.381   3.777 -0.0669 -1.2616  1.4449
 4592SOL     OW15449   8.930   3.039   4.531 -0.6297 -0.5624  0.0835
 4592SOL    HW115450   8.839   3.040   4.502 -0.4956 -1.5117 -0.4200
 4592SOL    HW215451   8.975   3.097   4.470 -0.9139 -0.0370  0.3768
 4593SOL     OW15452   5.126   3.026   6.508 -0.0925  0.8416 -1.0326
 4593SOL    HW115453   5.199   2.998   6.452 -0.3421 -0.4426 -0.7447
 4593SOL    HW215454   5.066   2.951   6.509 -1.8174  2.1443 -1.8808
 4594SOL     OW15455   2.310   8.195   3.715 -0.4039  0.4509 -0.1760
 4594SOL    HW115456   2.403   8.216   3.725  0.0071 -1.3121 -0.0604
 4594SOL    HW215457   2.297   8.185   3.621 -0.5160  0.7861 -0.1999
 4595SOL     OW15458   2.079   5.152   3.883 -0.3058 -0.6122  0.1212
 4595SOL    HW115459   2.117   5.099   3.813  0.0279 -0.5721  0.2658
 4595SOL    HW215460   2.155   5.193   3.925 -0.3257 -1.9629  1.5874
 4596SOL     OW15461   2.863   2.472   2.684  0.3039 -0.2065 -0.2254
 4596SOL    HW115462   2.911   2.392   2.704 -0.4736 -1.3562 -2.7093
 4596SOL    HW215463   2.887   2.532   2.756  1.5715 -2.3233  1.2312
 4597SOL     OW15464   8.375   7.834   0.025 -0.7800 -0.9872 -0.0673
 4597SOL    HW115465   8.286   7.867   0.010 -0.2127  0.8197  0.2563
 4597SOL    HW215466   8.406   7.882   0.102  1.6735  1.0730 -2.1459
 4598SOL     OW15467   5.829   5.861   6.723 -0.5755 -0.4466  0.5825
 4598SOL    HW115468   5.755   5.855   6.662  0.8377  0.7663 -1.3656
 4598SOL    HW215469   5.825   5.951   6.756  0.2687 -0.2424  0.1378
 4599SOL     OW15470   5.888   1.044   7.946 -0.3499 -0.2648 -0.1708
 4599SOL    HW115471   5.855   1.134   7.945  0.1337  0.1214  3.6399
 4599SOL    HW215472   5.811   0.991   7.970  0.2019 -0.2617  1.7431
 4600SOL     OW15473   9.251   5.076   0.408  0.0252  0.2812 -0.1175
 4600SOL    HW115474   9.256   5.049   0.499  0.1803 -0.4657 -0.3382
 4600SOL    HW215475   9.343   5.084   0.380 -0.0077 -0.6330 -0.5239
 4601SOL     OW15476   1.351   3.892   6.989 -0.0148 -0.3327 -0.0032
 4601SOL    HW115477   1.433   3.909   7.035 -0.2356  2.5962 -0.4997
 4601SOL    HW215478   1.377   3.879   6.898 -0.0491 -0.1487 -0.0390
 4602SOL     OW15479   0.595   1.908   3.216  0.3555  0.4727  0.3177
 4602SOL    HW115480   0.510   1.866   3.227  0.4919  0.5677  2.1467
 4602SOL    HW215481   0.658   1.843   3.247  0.8263  0.9203  0.3075
 4603SOL     OW15482   5.845   0.035   8.899 -0.4119 -0.3857 -0.6272
 4603SOL    HW115483   5.911   0.088   8.853  0.5579 -2.1950 -1.4327
 4603SOL    HW215484   5.853  -0.052   8.859 -0.1803 -1.8210  2.2949
 4604SOL     OW15485   8.542   6.405   6.470 -0.2278  0.2018  0.1231
 4604SOL    HW115486   8.491   6.367   6.398  0.8975  2.5528 -2.0928
 4604SOL    HW215487   8.519   6.498   6.469  3.0455  1.1476 -0.1777
 4605SOL     OW15488   0.600   7.178   9.477  0.1566  0.4857  0.1725
 4605SOL    HW115489   0.635   7.109   9.533  1.1776  0.9282  0.0856
 4605SOL    HW215490   0.514   7.144   9.449  0.5252 -0.6357  0.3424
 4606SOL     OW15491   3.283   0.534   6.534  0.5045 -0.1142  0.5898
 4606SOL    HW115492   3.366   0.567   6.569  0.6995 -0.5167  0.5094
 4606SOL    HW215493   3.305   0.501   6.447  0.0522  0.7242  0.1498
 4607SOL     OW15494   0.922   2.249   9.353 -0.2990 -0.6035 -0.0452
 4607SOL    HW115495   0.982   2.319   9.382 -0.9406  0.8241 -1.9979
 4607SOL    HW215496   0.850   2.253   9.415  0.5022 -0.7655  0.9323
 4608SOL     OW15497   1.341   4.807   8.863  0.1140 -0.0676 -0.2470
 4608SOL    HW115498   1.347   4.857   8.944  0.7374 -1.3573  0.5548
 4608SOL    HW215499   1.283   4.734   8.884  0.0052 -0.2301 -1.0697
 4609SOL     OW15500   4.579   7.898   5.397 -0.2251  0.9404  0.1030
 4609SOL    HW115501   4.608   7.903   5.488 -0.2932  0.8739  0.1290
 4609SOL    HW215502   4.545   7.809   5.388  1.1845  0.4447 -0.4225
 4610SOL     OW15503   5.306   4.696   3.653 -0.3261 -0.2087 -0.1965
 4610SOL    HW115504   5.240   4.663   3.715 -0.2313 -0.6028 -0.3004
 4610SOL    HW215505   5.291   4.790   3.650  0.8322  0.0900  1.7990
 4611SOL     OW15506   8.855   3.855   2.220  0.2316  0.1419  0.1953
 4611SOL    HW115507   8.902   3.937   2.205  1.6321 -0.6270  0.1336
 4611SOL    HW215508   8.901   3.791   2.165 -0.6993 -0.7242  0.4014
 4612SOL     OW15509   1.118   2.574   1.107 -0.1874 -0.0331  0.7336
 4612SOL    HW115510   1.083   2.638   1.045 -0.5771  1.0236  1.9995
 4612SOL    HW215511   1.091   2.489   1.071 -0.4221  0.5494 -0.5168
 4613SOL     OW15512   9.273   8.653   5.370 -0.2085 -0.4275 -0.5303
 4613SOL    HW115513   9.198   8.687   5.419  0.2328  0.7778 -0.6628
 4613SOL    HW215514   9.252   8.561   5.355 -0.2400 -0.9092  2.1376
 4614SOL     OW15515   8.990   1.401   2.397  0.2029 -0.1463 -0.3858
 4614SOL    HW115516   9.063   1.460   2.418 -0.9370  1.8362 -1.7193
 4614SOL    HW215517   8.996   1.332   2.463  3.2307 -0.0262 -0.4003
 4615SOL     OW15518   8.680   9.587   6.210  0.1377  0.1532 -0.6442
 4615SOL    HW115519   8.604   9.529   6.204 -0.1920  0.5620 -0.4188
 4615SOL    HW215520   8.650   9.670   6.175  0.8889 -0.0595 -1.8333
 4616SOL     OW15521   6.035   5.597   0.067  0.2552 -0.2114 -0.9108
 4616SOL    HW115522   6.024   5.675   0.121  1.2772 -0.0511 -0.9173
 4616SOL    HW215523   6.047   5.526   0.130  1.5605 -0.0072 -0.9044
 4617SOL     OW15524   7.799   7.152   3.338  0.3575 -0.4714  0.0015
 4617SOL    HW115525   7.860   7.101   3.390  0.3389  0.0484  0.5528
 4617SOL    HW215526   7.818   7.243   3.361 -0.7250 -0.3056  0.3154
 4618SOL     OW15527   7.547   8.686   8.282  0.3331  0.1247 -0.0863
 4618SOL    HW115528   7.498   8.611   8.249  0.2310 -0.4244  1.2550
 4618SOL    HW215529   7.503   8.709   8.365  0.5187  1.5071 -0.3442
 4619SOL     OW15530   1.950   6.075   6.336  0.0200 -0.1650  0.2680
 4619SOL    HW115531   2.014   6.115   6.278  1.1809 -2.3940 -0.1265
 4619SOL    HW215532   1.989   6.080   6.423  1.7813 -3.1289 -0.1954
 4620SOL     OW15533   7.566   8.526   0.754 -0.0618 -0.1731  0.1178
 4620SOL    HW115534   7.569   8.503   0.661  1.1782 -0.6479  0.2622
 4620SOL    HW215535   7.651   8.566   0.772  1.1869 -3.2503  1.8215
 4621SOL     OW15536   6.042   5.727   1.420 -0.2384 -0.6936  0.4519
 4621SOL    HW115537   6.131   5.691   1.429  0.1778  0.4486  1.1782
 4621SOL    HW215538   6.038   5.757   1.330  0.1496 -0.6869  0.4317
 4622SOL     OW15539   4.571   3.320   2.192 -0.0530  0.2357 -0.0548
 4622SOL    HW115540   4.489   3.271   2.191 -1.6553  2.6970 -0.8213
 4622SOL    HW215541   4.567   3.370   2.274  0.2791  0.9294 -0.4472
 4623SOL     OW15542   6.174   3.426   7.220  0.4897  0.1960 -0.1928
 4623SOL    HW115543   6.083   3.409   7.195  0.7194 -2.1767  0.3203
 4623SOL    HW215544   6.204   3.492   7.158 -1.4485  0.7197 -0.6407
 4624SOL     OW15545   1.429   7.791   0.336  0.0739 -0.2672 -0.2756
 4624SOL    HW115546   1.494   7.860   0.319  0.0871 -0.0097  0.7471
 4624SOL    HW215547   1.359   7.808   0.274  1.5150 -1.3087 -2.3152
 4625SOL     OW15548   3.052   0.569   6.706 -0.1441  0.3312 -0.7270
 4625SOL    HW115549   3.105   0.646   6.727  2.9002 -2.0920  1.3513
 4625SOL    HW215550   3.087   0.537   6.623 -0.9811  0.7509 -1.2636
 4626SOL     OW15551   3.376   8.560   6.258  0.2945 -0.3029  0.1616
 4626SOL    HW115552   3.301   8.567   6.198 -0.5659 -1.4642  1.0644
 4626SOL    HW215553   3.422   8.481   6.231  0.7285 -0.0503  0.1452
 4627SOL     OW15554   3.078   8.209   8.756  0.1460  0.5237  0.3716
 4627SOL    HW115555   3.088   8.295   8.796 -0.7904  1.9987 -2.2549
 4627SOL    HW215556   3.145   8.207   8.687  0.3505 -0.9989  0.5811
 4628SOL     OW15557   3.076   3.574   2.309  0.0476  0.0021 -0.4871
 4628SOL    HW115558   3.077   3.647   2.247  0.2025 -1.8755 -2.8876
 4628SOL    HW215559   3.163   3.533   2.299 -0.1660 -0.7387  0.5053
 4629SOL     OW15560   9.520   3.699   0.104  0.6440  0.1452 -0.0927
 4629SOL    HW115561   9.506   3.773   0.045  0.1037  0.2571  0.1632
 4629SOL    HW215562   9.592   3.726   0.160  0.2943  0.5810  0.1525
 4630SOL     OW15563   0.841   4.191   8.747 -0.0843 -0.2867  0.4110
 4630SOL    HW115564   0.858   4.283   8.770  2.9661 -0.0456 -1.9972
 4630SOL    HW215565   0.801   4.196   8.660  0.3037 -1.2097  0.1707
 4631SOL     OW15566   0.691   6.625   9.666 -0.8912  0.7684 -0.2168
 4631SOL    HW115567   0.743   6.622   9.747 -1.7294  0.3697  0.3231
 4631SOL    HW215568   0.600   6.625   9.696 -1.2314 -0.4319 -1.1911
 4632SOL     OW15569   1.691   8.815   8.831  0.2812 -0.0818  0.6970
 4632SOL    HW115570   1.623   8.753   8.805  0.0533  1.1757 -2.1166
 4632SOL    HW215571   1.769   8.761   8.845 -0.4825 -1.2166  0.7101
 4633SOL     OW15572   8.988   2.324   5.130  0.4781 -0.0299  0.7034
 4633SOL    HW115573   9.041   2.397   5.099 -0.0808 -0.2416 -0.8665
 4633SOL    HW215574   8.960   2.349   5.218  1.0413  1.2222  0.5377
 4634SOL     OW15575   6.950   2.017   2.676  0.1946  0.1310 -0.9674
 4634SOL    HW115576   6.972   1.985   2.589 -0.3936 -2.3985 -0.2481
 4634SOL    HW215577   7.009   1.971   2.735 -0.1742  0.9605  0.0819
 4635SOL     OW15578   0.114   6.343   0.533  0.1381  0.1411  0.6792
 4635SOL    HW115579   0.204   6.376   0.535 -0.0213  0.5453  1.9417
 4635SOL    HW215580   0.103   6.300   0.618 -0.3277 -1.3877 -0.1292
 4636SOL     OW15581   0.058   1.403   3.927 -0.0833 -0.3230  0.3728
 4636SOL    HW115582   0.105   1.478   3.890  0.1820  0.1064  1.5495
 4636SOL    HW215583   0.105   1.326   3.893  0.3786  0.0685  0.1209
 4637SOL     OW15584   0.289   5.719   2.440  0.4192  0.0245 -0.1051
 4637SOL    HW115585   0.208   5.755   2.477  1.2223  1.6022  0.2138
 4637SOL    HW215586   0.346   5.706   2.516  1.5437  1.8670 -0.5669
 4638SOL     OW15587   6.430   1.720   5.860 -0.4819  0.3183 -0.4310
 4638SOL    HW115588   6.343   1.761   5.858 -0.3541  0.7317  1.2089
 4638SOL    HW215589   6.433   1.668   5.780 -3.2138 -1.6701  0.5984
 4639SOL     OW15590   4.635   3.755   6.451  0.3598  0.5816  0.0817
 4639SOL    HW115591   4.598   3.711   6.374 -0.0872  1.1388 -0.0332
 4639SOL    HW215592   4.674   3.835   6.416 -1.3957  1.7288  0.6413
 4640SOL     OW15593   2.528   1.645   1.693 -0.1757  0.0973  0.1512
 4640SOL    HW115594   2.456   1.583   1.684 -0.8166  0.6014  1.4762
 4640SOL    HW215595   2.516   1.707   1.621 -0.8293 -0.0603  0.1185
 4641SOL     OW15596   6.968   0.233   5.081  0.2927  0.0528  0.1879
 4641SOL    HW115597   6.996   0.292   5.011  0.6905 -0.3301  0.0144
 4641SOL    HW215598   6.936   0.155   5.034  2.1958 -0.9438  0.4224
 4642SOL     OW15599   8.795   9.246   4.475 -0.1123  0.3903  0.4450
 4642SOL    HW115600   8.789   9.211   4.386 -0.9588  0.2442  0.5515
 4642SOL    HW215601   8.863   9.193   4.517 -0.8097 -0.5959  0.3568
 4643SOL     OW15602   0.082   6.386   3.223  0.0059  0.1471 -0.0936
 4643SOL    HW115603   0.108   6.311   3.277 -0.5267  0.5629  0.7642
 4643SOL    HW215604   0.075   6.459   3.285  1.4166  1.1483 -1.0334
 4644SOL     OW15605   7.420   6.692   7.539  0.1177 -0.1407 -0.5115
 4644SOL    HW115606   7.347   6.672   7.480 -0.6201 -0.5895  0.5324
 4644SOL    HW215607   7.431   6.613   7.592  1.0466  0.1031 -0.3336
 4645SOL     OW15608   8.111   6.038   5.895  0.3389  0.2974  0.6308
 4645SOL    HW115609   8.157   5.954   5.891  0.7181  0.5436 -1.3483
 4645SOL    HW215610   8.034   6.021   5.949  0.3270 -1.3815  0.1385
 4646SOL     OW15611   8.384   9.597   4.175 -0.1824 -0.3925  0.0388
 4646SOL    HW115612   8.450   9.666   4.168  0.1278 -0.6760  0.1468
 4646SOL    HW215613   8.371   9.586   4.269 -0.1534 -0.5553  0.0245
 4647SOL     OW15614   2.960   8.811   2.524  0.1935  0.8648 -0.3706
 4647SOL    HW115615   3.022   8.744   2.552 -0.4505  0.3756 -0.1065
 4647SOL    HW215616   2.895   8.763   2.472 -0.9870  1.0513  0.8830
 4648SOL     OW15617   6.908   7.283   4.984  0.6736 -0.2869  0.3587
 4648SOL    HW115618   6.922   7.301   5.077 -0.0596 -0.6847  0.5534
 4648SOL    HW215619   6.863   7.360   4.951 -1.4933 -1.2346  0.9511
 4649SOL     OW15620   6.142   3.700   3.780  0.0074 -0.5831  0.6404
 4649SOL    HW115621   6.183   3.679   3.696  1.5077  0.8083  0.9792
 4649SOL    HW215622   6.048   3.693   3.762  0.2815 -0.3446 -1.1523
 4650SOL     OW15623   8.771   5.461   0.805  0.4040  0.2664  0.0777
 4650SOL    HW115624   8.704   5.529   0.802 -0.0675 -0.1520  0.8455
 4650SOL    HW215625   8.850   5.504   0.773  0.3043  1.4296  1.2868
 4651SOL     OW15626   2.228   5.596   5.454  0.3244  0.5614  0.0084
 4651SOL    HW115627   2.138   5.589   5.421  0.5685  0.6730 -0.6921
 4651SOL    HW215628   2.226   5.549   5.538 -0.2194 -0.0376 -0.3259
 4652SOL     OW15629   1.011   7.714   1.563 -0.0362 -0.2040  0.2069
 4652SOL    HW115630   0.999   7.806   1.584 -0.3793 -0.6843  2.3744
 4652SOL    HW215631   1.101   7.694   1.589 -0.2820 -0.6947  0.7100
 4653SOL     OW15632   5.048   9.523   6.281  0.5474  0.5827 -0.0826
 4653SOL    HW115633   5.125   9.496   6.233 -0.1242 -0.9095 -0.3742
 4653SOL    HW215634   4.991   9.563   6.215  0.5613  0.5768 -0.0979
 4654SOL     OW15635   2.136   6.003   4.001  0.3869 -0.7865 -0.6443
 4654SOL    HW115636   2.058   5.975   3.954  0.3624  0.5622 -1.4785
 4654SOL    HW215637   2.159   5.929   4.057 -1.5607 -1.1643 -0.2772
 4655SOL     OW15638   4.929   7.936   6.669  0.3171  0.8386  0.1799
 4655SOL    HW115639   5.009   7.978   6.637  1.8412 -1.0339  1.3510
 4655SOL    HW215640   4.928   7.850   6.628 -0.5151  0.4128  1.0450
 4656SOL     OW15641   4.347   1.580   7.404  0.4248 -0.1620  0.4371
 4656SOL    HW115642   4.436   1.545   7.416  1.2748  0.0065 -3.8185
 4656SOL    HW215643   4.294   1.503   7.384  0.8047  0.1381 -2.0197
 4657SOL     OW15644   1.718   0.762   1.278 -0.3858 -0.1164  0.3072
 4657SOL    HW115645   1.762   0.847   1.266 -0.3124  0.1236  2.0717
 4657SOL    HW215646   1.638   0.769   1.225 -1.2010  1.7047  1.6651
 4658SOL     OW15647   0.053   8.998   1.263  0.7624  0.1787  0.4558
 4658SOL    HW115648   0.000   9.050   1.323  0.6730  1.4600 -0.6842
 4658SOL    HW215649   0.090   8.928   1.317 -2.0319 -0.7547  1.3257
 4659SOL     OW15650   4.196   8.692   4.711  0.4797  0.2028  0.1473
 4659SOL    HW115651   4.229   8.606   4.739  2.2429  0.4525 -0.9910
 4659SOL    HW215652   4.121   8.708   4.768  1.1691 -1.3061  1.5890
 4660SOL     OW15653   5.762   3.022   3.838 -0.1061 -0.0120 -0.0136
 4660SOL    HW115654   5.833   3.064   3.886 -2.0675  1.2629  2.0084
 4660SOL    HW215655   5.711   3.095   3.802  0.3385 -0.9179 -2.7027
 4661SOL     OW15656   5.548   5.492   8.356  0.2841 -0.2849  0.2941
 4661SOL    HW115657   5.476   5.549   8.384  0.3477 -0.1702  0.2227
 4661SOL    HW215658   5.524   5.465   8.267  0.0378 -0.7207  0.4896
 4662SOL     OW15659   2.423   8.385   7.380 -0.0104  0.1912  0.3824
 4662SOL    HW115660   2.482   8.310   7.392 -1.6872 -0.9330  2.0548
 4662SOL    HW215661   2.363   8.357   7.310  0.2969  0.6230 -0.0668
 4663SOL     OW15662   7.526   1.578   8.152  0.3729  0.0726 -0.3560
 4663SOL    HW115663   7.432   1.586   8.169 -0.6136 -0.5072 -4.5130
 4663SOL    HW215664   7.544   1.484   8.158  0.4548  0.0781 -0.4917
 4664SOL     OW15665   4.331   4.398   7.786 -0.6191 -0.1029 -0.3104
 4664SOL    HW115666   4.393   4.435   7.849 -1.4431  0.7920 -0.0069
 4664SOL    HW215667   4.369   4.417   7.700 -0.5207  0.5392 -0.1273
 4665SOL     OW15668   7.622   2.735   6.607 -0.0733  0.3487 -0.4391
 4665SOL    HW115669   7.699   2.748   6.663 -1.9721  3.1512  1.7730
 4665SOL    HW215670   7.617   2.814   6.553 -1.6566  0.4710 -0.1619
 4666SOL     OW15671   3.237   5.506   5.846  0.0975 -0.0105 -0.2910
 4666SOL    HW115672   3.297   5.528   5.774  0.3126  0.7393  0.1024
 4666SOL    HW215673   3.254   5.573   5.912 -2.3758  1.3108 -0.8428
 4667SOL     OW15674   5.976   5.682   6.834 -0.2371 -0.0009 -0.5418
 4667SOL    HW115675   5.920   5.730   6.773 -0.8522 -0.0191 -0.0055
 4667SOL    HW215676   5.990   5.742   6.907 -1.6506 -0.8644  0.5004
 4668SOL     OW15677   1.905   2.947   9.673 -0.1659 -0.4599  0.7460
 4668SOL    HW115678   1.919   2.871   9.616 -0.5995  0.8081 -1.1570
 4668SOL    HW215679   1.848   3.005   9.622  1.6206  1.9838  1.3135
 4669SOL     OW15680   3.726   3.854   8.582 -0.0286  0.0611  0.0727
 4669SOL    HW115681   3.630   3.847   8.574  0.1097 -1.0068 -0.8949
 4669SOL    HW215682   3.758   3.848   8.493  0.9158  1.4505  0.2972
 4670SOL     OW15683   2.863   3.339   2.909  0.7062 -0.5285 -0.1629
 4670SOL    HW115684   2.819   3.359   2.826 -0.4456 -2.3504 -0.0561
 4670SOL    HW215685   2.881   3.424   2.947  0.9491  0.3575 -2.1084
 4671SOL     OW15686   9.027   4.742   5.972 -0.2812 -0.1122 -0.4693
 4671SOL    HW115687   9.017   4.794   6.051  0.9995  0.9713 -0.9934
 4671SOL    HW215688   8.990   4.657   5.995  0.4310  0.0436  1.4322
 4672SOL     OW15689   6.398   7.425   6.832  0.3337 -0.4987  0.1166
 4672SOL    HW115690   6.362   7.496   6.885  3.6417  0.9227  0.6759
 4672SOL    HW215691   6.358   7.346   6.870 -1.6531  0.8313  1.0108
 4673SOL     OW15692   1.734   0.760   6.943 -0.3040 -0.1306 -0.4267
 4673SOL    HW115693   1.695   0.674   6.926 -1.2555  0.2104 -0.0226
 4673SOL    HW215694   1.746   0.763   7.038 -0.0556  0.0995 -0.4622
 4674SOL     OW15695   9.300   7.004   0.166 -0.6511 -0.1711  0.0524
 4674SOL    HW115696   9.315   7.060   0.243  1.1485 -2.1800  1.2834
 4674SOL    HW215697   9.205   7.002   0.156 -0.8195  2.8865  0.0287
 4675SOL     OW15698   6.595   0.771   3.165  0.0453 -0.0735 -0.2641
 4675SOL    HW115699   6.579   0.706   3.233  3.4198 -2.1477 -1.2482
 4675SOL    HW215700   6.560   0.732   3.086  0.0153  0.3712 -0.4737
 4676SOL     OW15701   6.742   1.406   5.376 -0.0100 -0.4209 -0.2126
 4676SOL    HW115702   6.798   1.418   5.299 -1.9968 -0.9774 -1.8372
 4676SOL    HW215703   6.712   1.494   5.398 -1.1244 -0.4342 -1.4907
 4677SOL     OW15704   4.792   0.594   3.627  0.6045  0.2059  0.0090
 4677SOL    HW115705   4.811   0.506   3.594  0.9715  0.8247 -1.4874
 4677SOL    HW215706   4.714   0.621   3.578 -0.1386  0.3276  1.2188
 4678SOL     OW15707   7.698   7.250   7.788 -0.6150  0.1701 -0.0023
 4678SOL    HW115708   7.663   7.294   7.865 -1.4057  0.1889 -0.3654
 4678SOL    HW215709   7.762   7.312   7.751 -1.5949  0.9572 -0.4156
 4679SOL     OW15710   1.687   0.911   4.328 -0.1529  0.0811  0.5612
 4679SOL    HW115711   1.687   1.000   4.362 -0.3141 -0.1541  1.1993
 4679SOL    HW215712   1.770   0.874   4.356 -0.3254 -0.1442  0.7838
 4680SOL     OW15713   3.816   2.049   0.161  0.0382  0.1387  0.0602
 4680SOL    HW115714   3.836   1.963   0.197  0.7288  0.3046  0.0957
 4680SOL    HW215715   3.744   2.082   0.215  1.0896  0.4022  1.3534
 4681SOL     OW15716   7.577   6.476   0.248  0.3695 -0.0931 -0.6059
 4681SOL    HW115717   7.517   6.508   0.181  1.1212  1.6493 -0.5009
 4681SOL    HW215718   7.581   6.548   0.312 -0.9686 -2.0015  1.7764
 4682SOL     OW15719   3.389   2.800   1.294 -0.4466  0.0473 -0.5227
 4682SOL    HW115720   3.302   2.767   1.277 -0.3499  0.0291 -0.9840
 4682SOL    HW215721   3.435   2.794   1.210 -0.2599  0.8289 -0.4938
 4683SOL     OW15722   3.583   6.544   2.546 -0.3109  0.2718  0.1482
 4683SOL    HW115723   3.619   6.609   2.485  0.2443  0.3355  0.5412
 4683SOL    HW215724   3.659   6.512   2.594 -0.4126 -1.4731 -0.7939
 4684SOL     OW15725   8.658   6.623   2.604 -0.1741 -0.6415 -0.0031
 4684SOL    HW115726   8.606   6.700   2.584 -0.7397 -1.3138 -1.2652
 4684SOL    HW215727   8.596   6.561   2.643  0.2292 -0.5433  0.8091
 4685SOL     OW15728   8.078   7.686   2.691 -0.2242 -0.0116 -0.4318
 4685SOL    HW115729   8.018   7.707   2.619  0.7806  0.1522 -1.2477
 4685SOL    HW215730   8.028   7.627   2.748 -0.5733 -1.3725 -2.0507
 4686SOL     OW15731   4.947   0.882   5.417  0.3082  0.1866  0.9929
 4686SOL    HW115732   4.917   0.810   5.472  1.1474 -0.6163  0.4332
 4686SOL    HW215733   5.026   0.848   5.374  0.5199  1.3187  0.4524
 4687SOL     OW15734   5.920   2.777   8.617 -0.6771  0.0737  0.1274
 4687SOL    HW115735   6.013   2.765   8.636 -0.7930  0.4013  0.9432
 4687SOL    HW215736   5.916   2.781   8.521  0.0914 -0.3465  0.0622
 4688SOL     OW15737   1.190   6.901   7.876 -0.7125  0.8093  0.0098
 4688SOL    HW115738   1.251   6.913   7.949 -1.9344  1.1736  1.0110
 4688SOL    HW215739   1.145   6.985   7.869  0.1990  1.1955 -1.9945
 4689SOL     OW15740   3.660   7.021   6.159 -0.3674  0.2485 -0.1635
 4689SOL    HW115741   3.678   7.094   6.101 -1.6135  0.4777 -0.2941
 4689SOL    HW215742   3.588   7.051   6.214 -0.3943 -0.6034  0.2874
 4690SOL     OW15743   7.162   4.715   5.518 -0.2071  0.2823 -0.5398
 4690SOL    HW115744   7.196   4.682   5.601  0.1873  0.0841 -0.7759
 4690SOL    HW215745   7.208   4.664   5.451  0.6473  1.5094 -0.9322
 4691SOL     OW15746   3.771   1.557   3.545 -0.0178 -0.2082 -0.2480
 4691SOL    HW115747   3.813   1.508   3.615 -1.1211 -0.8902 -0.0479
 4691SOL    HW215748   3.830   1.632   3.530  1.1172 -0.9839  0.1906
 4692SOL     OW15749   0.535   7.304   2.234 -0.6583 -0.1968  0.1858
 4692SOL    HW115750   0.473   7.315   2.162  0.1826  0.3411 -0.4772
 4692SOL    HW215751   0.558   7.394   2.259  4.3408  0.0080 -3.5568
 4693SOL     OW15752   9.499   2.421   1.346  0.0230 -0.1516 -0.1508
 4693SOL    HW115753   9.530   2.391   1.261  0.3270  0.6736 -0.3378
 4693SOL    HW215754   9.549   2.501   1.363 -2.1123  1.3280 -0.5445
 4694SOL     OW15755   6.686   8.109   8.100 -0.4702 -0.0343  0.1057
 4694SOL    HW115756   6.744   8.174   8.062 -0.6580  0.8015  1.1815
 4694SOL    HW215757   6.599   8.148   8.094 -0.7323 -0.6592 -0.2174
 4695SOL     OW15758   3.712   3.751   0.086 -0.0402  0.3735 -0.1548
 4695SOL    HW115759   3.737   3.685   0.021 -1.3387  0.5035 -0.8293
 4695SOL    HW215760   3.783   3.815   0.084  1.5590 -1.2863  0.9727
 4696SOL     OW15761   1.881   0.473   7.859  0.0407 -0.1748 -0.3896
 4696SOL    HW115762   1.904   0.432   7.942  1.5943  0.0059 -0.6904
 4696SOL    HW215763   1.790   0.500   7.870  0.4499  0.5979  1.5796
 4697SOL     OW15764   3.104   1.542   7.228 -0.1183 -0.0502 -0.0247
 4697SOL    HW115765   3.070   1.549   7.139  0.7624  0.1081 -0.3676
 4697SOL    HW215766   3.031   1.567   7.285 -0.5563  0.2749 -0.7224
 4698SOL     OW15767   5.923   2.986   1.900 -0.2915 -0.1918 -0.0337
 4698SOL    HW115768   5.967   2.946   1.825 -0.7532  0.2845 -0.5663
 4698SOL    HW215769   5.898   2.912   1.955  0.7930 -0.4959  0.0761
 4699SOL     OW15770   0.401   6.850   8.163 -1.1920  0.8658  0.1507
 4699SOL    HW115771   0.352   6.819   8.239 -2.1177  0.4628 -0.5926
 4699SOL    HW215772   0.396   6.778   8.100 -0.0567  1.0145 -0.1418
 4700SOL     OW15773   5.155   0.541   7.061 -0.0492 -0.0829  0.3991
 4700SOL    HW115774   5.132   0.615   7.118 -0.7696 -0.6978  0.9197
 4700SOL    HW215775   5.226   0.575   7.006 -0.4454  1.0374  0.5457
 4701SOL     OW15776   0.176   5.097   1.495 -0.1975  0.3801  0.0763
 4701SOL    HW115777   0.135   5.145   1.568  0.7548  2.9326 -0.9475
 4701SOL    HW215778   0.246   5.047   1.537 -0.0512  1.3178  1.0040
 4702SOL     OW15779   4.648   4.289   2.794  0.4605  0.0393 -0.2730
 4702SOL    HW115780   4.652   4.379   2.827  0.4062  0.3036 -0.9764
 4702SOL    HW215781   4.554   4.272   2.784  0.4765 -0.0585 -0.2571
 4703SOL     OW15782   1.966   1.584   3.112 -0.3634  0.2765 -0.0128
 4703SOL    HW115783   2.046   1.631   3.134  0.1802 -0.8148  0.4601
 4703SOL    HW215784   1.981   1.496   3.146 -1.2932 -0.2681 -0.9523
 4704SOL     OW15785   5.164   3.501   0.657 -0.2818  0.0588 -0.6265
 4704SOL    HW115786   5.231   3.446   0.616 -1.2602 -2.4835  0.9515
 4704SOL    HW215787   5.103   3.439   0.697 -0.4936  2.2977  2.9243
 4705SOL     OW15788   3.506   3.822   0.671  0.0033  0.8771  0.1981
 4705SOL    HW115789   3.563   3.870   0.611 -1.6579  2.1126 -0.4846
 4705SOL    HW215790   3.418   3.848   0.645 -0.8411 -0.2028  1.8431
 4706SOL     OW15791   3.906   9.460   6.747 -0.5279 -0.1358 -0.2528
 4706SOL    HW115792   3.834   9.488   6.804  0.1896 -1.2504  1.2771
 4706SOL    HW215793   3.863   9.410   6.678 -1.2772 -0.4897  0.4405
 4707SOL     OW15794   0.612   7.651   2.165  0.3567  0.0927 -0.6194
 4707SOL    HW115795   0.603   7.597   2.244  1.2424  0.6409 -0.1248
 4707SOL    HW215796   0.611   7.741   2.198  0.2924  0.3442 -1.2878
 4708SOL     OW15797   6.582   6.325   3.223  0.2245  0.2099  0.1291
 4708SOL    HW115798   6.537   6.375   3.291  1.3829  0.4839  0.7178
 4708SOL    HW215799   6.674   6.326   3.249  0.9923  1.7964 -2.3043
 4709SOL     OW15800   8.024   5.230   6.817  0.2476 -0.0085 -0.4422
 4709SOL    HW115801   7.951   5.286   6.842  0.2955 -0.1112 -0.0609
 4709SOL    HW215802   8.012   5.150   6.868  1.3413  0.4745  0.6497
 4710SOL     OW15803   9.089   4.703   8.676  0.1176  0.0770 -0.4425
 4710SOL    HW115804   9.005   4.716   8.719  0.0565 -0.1506 -0.4888
 4710SOL    HW215805   9.072   4.724   8.584  0.1232  0.0722 -0.4444
 4711SOL     OW15806   1.351   2.250   9.244 -0.3995  0.0127 -0.1566
 4711SOL    HW115807   1.403   2.313   9.294  1.3951 -1.2312 -0.3660
 4711SOL    HW215808   1.323   2.185   9.307  1.6413 -1.4130 -0.6389
 4712SOL     OW15809   4.280   1.611   2.086 -0.2928  0.0907  0.4448
 4712SOL    HW115810   4.357   1.555   2.084  0.6090  1.1930  2.2135
 4712SOL    HW215811   4.288   1.665   2.006  0.3987 -0.2702  0.2605
 4713SOL     OW15812   6.091   4.466   5.046  0.2526 -0.3291  0.0690
 4713SOL    HW115813   6.169   4.480   5.100 -0.5199  1.5068  0.8112
 4713SOL    HW215814   6.118   4.492   4.958 -0.0676  2.6936  0.7381
 4714SOL     OW15815   2.225   4.788   1.727  0.1889  0.0481 -0.2554
 4714SOL    HW115816   2.171   4.729   1.780  2.6770 -1.3214  0.9001
 4714SOL    HW215817   2.203   4.766   1.636 -1.2080 -0.4127  0.1695
 4715SOL     OW15818   6.378   8.407   3.389  0.4627 -0.0358 -0.1184
 4715SOL    HW115819   6.361   8.500   3.407  0.0354 -0.0095 -0.6434
 4715SOL    HW215820   6.432   8.406   3.310 -1.3582 -0.2806 -1.4312
 4716SOL     OW15821   7.201   8.656   3.826  0.4909  0.2805  0.4853
 4716SOL    HW115822   7.226   8.745   3.851 -1.4005  1.0837 -0.2809
 4716SOL    HW215823   7.151   8.623   3.900  1.1135 -0.1290  0.7315
 4717SOL     OW15824   0.232   1.431   2.112  0.3763  0.0595 -0.1028
 4717SOL    HW115825   0.179   1.375   2.168 -1.2706  1.3458 -0.3329
 4717SOL    HW215826   0.213   1.400   2.023  0.0739  0.4758 -0.1825
 4718SOL     OW15827   8.079   9.408   1.263 -0.1722  0.0234 -0.4781
 4718SOL    HW115828   8.113   9.337   1.317 -2.1537 -0.8707 -0.3217
 4718SOL    HW215829   8.109   9.387   1.175  2.5198  1.1368  0.0722
 4719SOL     OW15830   7.499   0.309   5.861 -0.6004  0.2253  0.0615
 4719SOL    HW115831   7.516   0.218   5.884  1.3104  0.4270 -0.3783
 4719SOL    HW215832   7.458   0.305   5.774  1.5114 -0.1692 -0.9629
 4720SOL     OW15833   4.438   1.270   3.935 -0.1161 -0.4101  0.5410
 4720SOL    HW115834   4.370   1.264   3.868 -0.2558 -2.0505  0.7919
 4720SOL    HW215835   4.390   1.287   4.016  0.1239  2.6611  0.1556
 4721SOL     OW15836   2.883   8.099   9.091  0.5783  0.5519  0.5522
 4721SOL    HW115837   2.805   8.154   9.082 -0.2329 -0.6607 -0.1973
 4721SOL    HW215838   2.956   8.154   9.064 -0.0434  1.6336  1.0341
 4722SOL     OW15839   2.971   0.654   2.603 -0.1298 -0.1119  0.0539
 4722SOL    HW115840   3.007   0.668   2.690 -0.1217  2.4472 -0.2695
 4722SOL    HW215841   2.877   0.644   2.617 -0.0251 -0.6468  0.4092
 4723SOL     OW15842   5.521   2.418   7.543  0.2152 -0.5296 -0.1588
 4723SOL    HW115843   5.434   2.445   7.514  0.0523 -0.3511  0.4857
 4723SOL    HW215844   5.581   2.477   7.498 -0.0757  0.2174  0.4091
 4724SOL     OW15845   5.526   1.553   2.270  0.2230  0.8803 -0.4558
 4724SOL    HW115846   5.479   1.606   2.205  1.2613  1.0631 -1.0714
 4724SOL    HW215847   5.567   1.483   2.219 -1.8077 -1.0933  0.4224
 4725SOL     OW15848   3.812   2.696   6.626 -0.6097 -0.8161 -0.3599
 4725SOL    HW115849   3.728   2.743   6.625 -0.4386 -0.5187 -0.6589
 4725SOL    HW215850   3.811   2.644   6.546 -1.0524 -1.7805  0.2548
 4726SOL     OW15851   8.032   4.175   2.722 -0.5833 -0.1592  0.3747
 4726SOL    HW115852   7.963   4.124   2.679 -0.2198 -0.7608  0.4872
 4726SOL    HW215853   7.985   4.243   2.770 -1.0248  0.2113 -0.5565
 4727SOL     OW15854   9.319   9.093   8.453 -0.6001 -0.3614 -0.0183
 4727SOL    HW115855   9.308   9.186   8.471 -0.4196 -0.3951  0.2607
 4727SOL    HW215856   9.397   9.067   8.502  1.1894  0.0111 -2.4841
 4728SOL     OW15857   1.418   9.648   7.846  0.0188 -0.9278  0.2939
 4728SOL    HW115858   1.457   9.613   7.766  0.1775 -1.6268  0.6692
 4728SOL    HW215859   1.358   9.579   7.875 -1.4101  0.0686 -0.1945
 4729SOL     OW15860   0.349   2.821   1.598  0.1848  0.0285  0.2965
 4729SOL    HW115861   0.256   2.841   1.597  0.0426 -0.6132 -0.6296
 4729SOL    HW215862   0.353   2.726   1.597  0.8572  0.0512  0.3127
 4730SOL     OW15863   9.138   7.634   9.167  0.4284  0.2985 -0.4461
 4730SOL    HW115864   9.208   7.698   9.152 -0.5700  1.3977 -0.5998
 4730SOL    HW215865   9.109   7.653   9.256  0.7989 -0.6416 -0.1173
 4731SOL     OW15866   8.906   2.155   2.192  0.0796 -0.3540 -0.0945
 4731SOL    HW115867   8.852   2.077   2.202 -0.6982  0.0700 -0.8581
 4731SOL    HW215868   8.987   2.134   2.238  0.8921 -2.5825 -2.3057
 4732SOL     OW15869   7.576   0.686   7.652  1.0555 -0.5926  0.2534
 4732SOL    HW115870   7.654   0.673   7.707  2.3665 -1.1616 -1.6373
 4732SOL    HW215871   7.610   0.689   7.563 -1.1857 -1.6850 -0.7103
 4733SOL     OW15872   2.100   4.785   6.755 -0.4465  0.3993 -0.3139
 4733SOL    HW115873   2.074   4.713   6.812 -0.8080  1.4940  0.9442
 4733SOL    HW215874   2.047   4.773   6.676  1.1954 -2.0443 -1.1490
 4734SOL     OW15875   8.733   2.495   9.040 -0.4135  0.7832 -0.2533
 4734SOL    HW115876   8.727   2.555   9.114  1.3281  0.9279 -0.1903
 4734SOL    HW215877   8.748   2.409   9.079 -0.1819  0.7486 -0.4161
 4735SOL     OW15878   9.450   9.028   2.635  0.0327 -0.1948  0.0434
 4735SOL    HW115879   9.495   9.093   2.689 -1.5728  0.5590  0.5197
 4735SOL    HW215880   9.365   9.015   2.677 -0.8922 -0.3234 -1.7514
 4736SOL     OW15881   9.094   6.165   2.701 -0.4108 -0.1235  0.2982
 4736SOL    HW115882   9.085   6.084   2.650  0.0406 -1.1872  1.8065
 4736SOL    HW215883   9.178   6.155   2.746  0.0943  1.6410 -0.1837
 4737SOL     OW15884   4.903   7.379   0.342  0.4430  0.3070  0.6864
 4737SOL    HW115885   4.981   7.432   0.359  0.0987  1.0328  0.0500
 4737SOL    HW215886   4.845   7.436   0.293  0.1771 -0.7481 -0.2685
 4738SOL     OW15887   4.236   9.195   7.735 -0.6491  0.2849  0.2400
 4738SOL    HW115888   4.203   9.107   7.753 -0.2596 -0.0513 -0.6591
 4738SOL    HW215889   4.204   9.215   7.648 -1.9507  1.6254  0.9768
 4739SOL     OW15890   2.774   6.031   1.916  0.3856  0.2551  0.8517
 4739SOL    HW115891   2.695   6.005   1.964  0.5277  0.3911  1.1582
 4739SOL    HW215892   2.747   6.032   1.824 -0.5921  2.5354  1.1155
 4740SOL     OW15893   2.116   4.250   0.959  0.2820  0.4509 -1.0024
 4740SOL    HW115894   2.175   4.255   0.884  0.4880  1.4516 -0.7936
 4740SOL    HW215895   2.134   4.165   0.999 -0.1406 -0.2968 -2.3256
 4741SOL     OW15896   7.830   0.752   0.926 -0.4127  0.0405  0.3673
 4741SOL    HW115897   7.767   0.717   0.863  1.1429 -3.0032  0.3501
 4741SOL    HW215898   7.814   0.703   1.006  0.7405  0.5417  0.9304
 4742SOL     OW15899   2.726   1.735   2.844  0.9021 -0.1497 -0.1493
 4742SOL    HW115900   2.767   1.763   2.925  1.8128 -0.3432 -0.5367
 4742SOL    HW215901   2.726   1.639   2.849 -1.9321 -0.1949  1.0387
 4743SOL     OW15902   1.981   3.980   6.248  0.1150 -0.2565  0.5422
 4743SOL    HW115903   1.990   4.036   6.325 -3.7988 -0.0650  1.0698
 4743SOL    HW215904   1.996   3.892   6.281  1.7226  0.0609  0.7337
 4744SOL     OW15905   4.966   5.510   0.283 -0.1016 -0.2062  0.5206
 4744SOL    HW115906   4.972   5.487   0.376 -2.3639  1.0534  1.0799
 4744SOL    HW215907   5.031   5.579   0.271 -0.0225 -0.1474  1.2600
 4745SOL     OW15908   4.874   1.496   5.757  0.8945 -0.5892  0.2245
 4745SOL    HW115909   4.860   1.537   5.842 -0.0801  0.0252 -0.2073
 4745SOL    HW215910   4.968   1.482   5.751  1.0525  0.0754  1.0824
 4746SOL     OW15911   5.490   5.555   5.827  0.1981  0.1774  0.2137
 4746SOL    HW115912   5.427   5.547   5.899 -0.4871 -2.0080 -0.5429
 4746SOL    HW215913   5.468   5.483   5.768  2.1049  0.6169 -1.1218
 4747SOL     OW15914   3.060   6.541   2.135 -0.3304  0.1790  1.0479
 4747SOL    HW115915   3.135   6.562   2.079 -0.0160 -0.6353  1.1475
 4747SOL    HW215916   3.018   6.626   2.152  0.2733  0.5819  0.5788
 4748SOL     OW15917   0.361   8.541   5.943 -0.4865 -0.1957  0.2805
 4748SOL    HW115918   0.355   8.630   5.908 -2.1314 -0.0513  0.8651
 4748SOL    HW215919   0.454   8.531   5.965  0.3691  0.2356 -2.6458
 4749SOL     OW15920   7.198   1.895   9.012 -0.5148  0.6646 -0.0686
 4749SOL    HW115921   7.106   1.906   8.992 -0.6581 -0.1359  0.1140
 4749SOL    HW215922   7.239   1.877   8.927 -0.7050 -0.0638 -0.0141
 4750SOL     OW15923   4.358   0.673   5.610  0.0465  0.4742  0.0845
 4750SOL    HW115924   4.343   0.589   5.653 -0.5191  0.9907  0.9398
 4750SOL    HW215925   4.421   0.654   5.541  0.0054 -0.6282  0.3292
 4751SOL     OW15926   7.053   7.656   2.389 -0.2704  0.2710 -0.0143
 4751SOL    HW115927   6.967   7.697   2.400  0.8346  2.7633 -0.0150
 4751SOL    HW215928   7.104   7.687   2.464  0.9660 -0.2720 -0.6108
 4752SOL     OW15929   3.906   9.044   4.658 -0.4410 -0.6066  0.0841
 4752SOL    HW115930   3.949   9.109   4.713 -0.7833  1.1738 -1.6551
 4752SOL    HW215931   3.977   8.991   4.622  0.5773  2.5675 -3.1138
 4753SOL     OW15932   7.254   8.465   1.703 -0.1004 -0.4123 -0.7487
 4753SOL    HW115933   7.296   8.383   1.675 -0.4210 -1.0788  0.6317
 4753SOL    HW215934   7.167   8.438   1.734  0.1131  0.3031  0.5359
 4754SOL     OW15935   5.471   4.722   1.825 -0.3067  0.1252 -0.0257
 4754SOL    HW115936   5.499   4.651   1.883 -1.7576  0.1133  0.7031
 4754SOL    HW215937   5.452   4.795   1.885 -1.9867  0.0609 -0.4324
 4755SOL     OW15938   4.307   5.064   4.404  0.9107  0.3491  0.2459
 4755SOL    HW115939   4.222   5.067   4.448  1.3473 -2.0691  1.4319
 4755SOL    HW215940   4.320   5.152   4.370 -1.8412  0.9155  0.4524
 4756SOL     OW15941   1.517   8.805   7.988 -0.1139  0.0106 -0.0477
 4756SOL    HW115942   1.443   8.864   7.981 -0.6274 -0.7098 -0.9991
 4756SOL    HW215943   1.487   8.724   7.946  0.2042 -1.2806  2.0780
 4757SOL     OW15944   6.590   3.858   1.490  0.3088 -0.8291 -0.0020
 4757SOL    HW115945   6.547   3.773   1.483 -0.0798 -0.5857 -0.7107
 4757SOL    HW215946   6.533   3.909   1.547 -1.1783 -0.0333 -2.0883
 4758SOL     OW15947   0.996   9.617   7.734 -0.2490  0.6610 -0.2524
 4758SOL    HW115948   0.978   9.665   7.653 -1.1942  1.5176  0.4404
 4758SOL    HW215949   1.072   9.661   7.772  0.5472 -0.0937 -0.9302
 4759SOL     OW15950   4.853   7.290   5.368 -0.0305 -0.0899 -0.5045
 4759SOL    HW115951   4.945   7.269   5.353  0.1333 -0.7018  1.1221
 4759SOL    HW215952   4.852   7.335   5.453 -1.3704 -1.4069  0.2223
 4760SOL     OW15953   8.375   6.641   0.384  0.5830 -0.2855  0.3035
 4760SOL    HW115954   8.402   6.553   0.410  0.6957 -0.6158 -0.8902
 4760SOL    HW215955   8.390   6.644   0.290 -1.6674  0.1987 -0.0908
 4761SOL     OW15956   4.493   8.168   2.979  0.5007 -0.2488 -0.3473
 4761SOL    HW115957   4.546   8.242   3.009  0.5839 -0.4549  0.0188
 4761SOL    HW215958   4.488   8.180   2.884  0.8016  0.0366 -0.3314
 4762SOL     OW15959   1.261   1.947   9.254 -0.2350 -0.4246  0.3638
 4762SOL    HW115960   1.340   1.965   9.203 -0.4103  0.0074  0.2424
 4762SOL    HW215961   1.254   1.851   9.253 -0.6216 -0.4021 -1.0182
 4763SOL     OW15962   1.520   8.429   8.183 -0.1561  0.3806  0.5236
 4763SOL    HW115963   1.524   8.522   8.204 -0.3880 -0.0040  2.4513
 4763SOL    HW215964   1.426   8.409   8.181 -0.1156  0.2263 -0.1435
 4764SOL     OW15965   9.136   4.816   5.626 -0.6441 -0.3743 -0.2571
 4764SOL    HW115966   9.152   4.772   5.709 -0.9100  0.5343  0.2879
 4764SOL    HW215967   9.204   4.883   5.620 -1.0689  0.0480 -0.4233
 4765SOL     OW15968   0.109   9.495   6.839 -0.4679  0.1805 -0.8933
 4765SOL    HW115969   0.066   9.503   6.754 -0.3652 -0.9127 -1.0687
 4765SOL    HW215970   0.202   9.509   6.820 -0.4758  0.2094 -0.9110
 4766SOL     OW15971   5.253   7.071   2.493  0.3659  0.3844  0.3085
 4766SOL    HW115972   5.159   7.058   2.477  0.4061  0.1524  0.2572
 4766SOL    HW215973   5.283   7.123   2.419  0.7054 -1.3009 -0.8009
 4767SOL     OW15974   7.286   8.788   5.838 -0.3834 -0.1053  0.1637
 4767SOL    HW115975   7.360   8.795   5.778  0.3477 -2.7331  0.6104
 4767SOL    HW215976   7.209   8.784   5.780  0.2680 -2.0948 -0.6528
 4768SOL     OW15977   4.603   0.370   7.393 -1.2159 -0.0639 -0.1125
 4768SOL    HW115978   4.536   0.355   7.460 -1.3453 -0.9066 -0.4108
 4768SOL    HW215979   4.610   0.465   7.387 -0.1992  0.0767  2.0850
 4769SOL     OW15980   5.949   0.136   1.283  0.1163 -0.5196  0.6173
 4769SOL    HW115981   6.036   0.126   1.324 -0.4658  0.7559  2.2896
 4769SOL    HW215982   5.898   0.063   1.317 -0.0483 -0.0777  1.3520
 4770SOL     OW15983   3.627   1.538   7.278 -0.2509 -0.1926 -0.2658
 4770SOL    HW115984   3.604   1.613   7.224  0.7985  0.8657  0.6970
 4770SOL    HW215985   3.545   1.489   7.288 -1.4009  1.8002  0.5659
 4771SOL     OW15986   1.102   4.631   5.732  0.0314  0.1922 -0.5620
 4771SOL    HW115987   1.082   4.666   5.819 -0.6625  0.0478 -0.6569
 4771SOL    HW215988   1.087   4.537   5.739 -0.2724  0.2112 -0.8992
 4772SOL     OW15989   4.035   4.945   5.974 -0.2664 -0.4660  0.0524
 4772SOL    HW115990   3.951   4.988   5.991 -0.3528 -0.5261 -0.2138
 4772SOL    HW215991   4.012   4.853   5.959 -0.2863 -0.2957 -1.0854
 4773SOL     OW15992   3.936   5.789   6.116  0.1174  0.1103 -0.0869
 4773SOL    HW115993   3.932   5.854   6.186 -3.1274 -1.3615  1.3393
 4773SOL    HW215994   3.943   5.840   6.036  1.9197  1.9555  1.1549
 4774SOL     OW15995   1.389   7.734   2.101  0.4222  0.2918  0.1120
 4774SOL    HW115996   1.450   7.724   2.028 -0.4399  0.1724 -0.6013
 4774SOL    HW215997   1.353   7.647   2.115 -0.4663  0.5829 -0.2633
 4775SOL     OW15998   5.458   4.900   1.160  0.4730  0.2793 -0.1778
 4775SOL    HW115999   5.434   4.836   1.227  0.1252  1.0917  0.4941
 4775SOL    HW216000   5.504   4.968   1.208 -0.6893  1.3885 -0.5830
 4776SOL     OW16001   7.968   1.376   7.669 -0.4321 -0.6045 -0.1527
 4776SOL    HW116002   8.025   1.422   7.730 -0.8028 -1.7050  1.0822
 4776SOL    HW216003   7.883   1.420   7.677 -0.7285 -1.3076  0.8645
 4777SOL     OW16004   8.789   9.546   5.780 -0.0767  0.1847  0.1561
 4777SOL    HW116005   8.778   9.560   5.686 -3.2720  0.8038  0.5027
 4777SOL    HW216006   8.758   9.457   5.795  0.9216 -0.1038  0.5698
 4778SOL     OW16007   9.300   6.699   9.110  0.1981  0.1459  0.1777
 4778SOL    HW116008   9.389   6.707   9.146  0.4835 -0.5367 -0.3628
 4778SOL    HW216009   9.251   6.655   9.179  1.1226 -2.5867 -0.7910
 4779SOL     OW16010   6.946   6.840   7.693  0.3749  0.3417 -0.5725
 4779SOL    HW116011   7.004   6.764   7.697  0.7490  0.6425 -0.0664
 4779SOL    HW216012   6.954   6.881   7.779  2.0144  2.2787 -1.5361
 4780SOL     OW16013   1.925   5.160   8.425  0.8080 -0.3519  0.1669
 4780SOL    HW116014   1.925   5.188   8.333  1.3417  1.2016  0.6184
 4780SOL    HW216015   1.834   5.136   8.442  0.3294  0.9894 -0.3174
 4781SOL     OW16016   2.279   9.412   4.467  0.2246 -0.0424 -0.1944
 4781SOL    HW116017   2.311   9.500   4.448  1.0973 -0.3522 -0.2061
 4781SOL    HW216018   2.316   9.391   4.553 -0.1225 -0.3288 -0.1133
 4782SOL     OW16019   7.381   7.318   6.489 -0.2086  0.4695 -0.1159
 4782SOL    HW116020   7.438   7.243   6.472  0.4095  0.9661 -0.2441
 4782SOL    HW216021   7.433   7.394   6.465 -0.1015  1.0756  1.8892
 4783SOL     OW16022   3.321   2.894   6.805 -0.0819 -0.0250 -0.1685
 4783SOL    HW116023   3.347   2.879   6.714 -0.9383 -0.3152 -0.3805
 4783SOL    HW216024   3.322   2.989   6.816 -1.2313  0.1002 -0.8922
 4784SOL     OW16025   6.277   6.310   8.908 -0.3448 -0.1518 -0.8369
 4784SOL    HW116026   6.269   6.243   8.975 -1.9678 -3.2795 -3.8151
 4784SOL    HW216027   6.333   6.271   8.841 -0.5189  1.9073 -2.2880
 4785SOL     OW16028   8.631   3.430   9.160 -0.6437 -0.2754 -0.8410
 4785SOL    HW116029   8.619   3.523   9.144 -1.0151 -0.3806 -1.2002
 4785SOL    HW216030   8.667   3.425   9.248 -2.3739  0.1195 -0.0634
 4786SOL     OW16031   2.487   1.174   4.428  0.7721  0.2488 -0.5808
 4786SOL    HW116032   2.488   1.266   4.401 -1.5021  0.2063 -1.0155
 4786SOL    HW216033   2.465   1.127   4.348  0.9303 -0.5868 -0.1406
 4787SOL     OW16034   5.766   3.103   2.828  0.3441 -0.2876  0.0682
 4787SOL    HW116035   5.806   3.017   2.839 -0.8500 -0.9445 -0.6104
 4787SOL    HW216036   5.788   3.150   2.909  0.7377 -1.3289  0.5821
 4788SOL     OW16037   0.022   1.505   4.553 -0.0836  0.3535 -0.1587
 4788SOL    HW116038   0.023   1.472   4.643  0.1237  0.9317  0.0595
 4788SOL    HW216039   0.113   1.501   4.524 -0.0989  0.4726 -0.2260
 4789SOL     OW16040   8.563   4.360   7.187 -0.5859 -0.2021  0.1370
 4789SOL    HW116041   8.643   4.382   7.140 -1.3073  0.4095 -0.8653
 4789SOL    HW216042   8.556   4.427   7.255 -0.5899  0.1523 -0.2091
 4790SOL     OW16043   0.066   6.959   4.269 -0.5144 -0.2987 -1.1417
 4790SOL    HW116044   0.134   7.019   4.299 -1.2176 -0.1847  0.2672
 4790SOL    HW216045   0.048   6.988   4.179  0.3846  0.4780 -1.0969
 4791SOL     OW16046   0.259   3.804   3.450  0.1452  0.2834 -0.2998
 4791SOL    HW116047   0.269   3.826   3.542  0.2919  0.2168 -0.2995
 4791SOL    HW216048   0.328   3.853   3.405 -0.5619  1.1319 -0.5061
 4792SOL     OW16049   2.780   6.465   2.341  0.3092  0.0566  0.2922
 4792SOL    HW116050   2.807   6.539   2.395  0.1911  0.2895  0.0287
 4792SOL    HW216051   2.739   6.404   2.402 -1.2759  1.0196  0.2134
 4793SOL     OW16052   6.948   1.902   7.569  0.5078 -0.1001 -0.1314
 4793SOL    HW116053   6.896   1.881   7.491  0.0990 -1.2764  0.4312
 4793SOL    HW216054   6.908   1.850   7.639  1.0480  0.7143  0.8022
 4794SOL     OW16055   5.819   8.281   2.602 -0.2679 -0.0128 -0.1590
 4794SOL    HW116056   5.891   8.291   2.664 -0.4447 -0.8659  0.1965
 4794SOL    HW216057   5.740   8.280   2.656 -0.3805 -1.4776 -0.3024
 4795SOL     OW16058   3.207   3.838   7.943 -0.0342  0.3081  0.3824
 4795SOL    HW116059   3.277   3.901   7.929 -0.8235  0.8718 -1.3196
 4795SOL    HW216060   3.127   3.885   7.919 -0.6101 -1.4049 -1.2998
 4796SOL     OW16061   2.880   3.816   9.319  0.0823  0.2236 -0.2285
 4796SOL    HW116062   2.836   3.897   9.294 -1.1269  0.2928  1.9072
 4796SOL    HW216063   2.838   3.789   9.400  0.6738 -2.3937 -0.6836
 4797SOL     OW16064   7.688   4.137   7.796  0.5198 -0.2538  0.4081
 4797SOL    HW116065   7.648   4.094   7.871 -0.6661 -0.9697 -0.5999
 4797SOL    HW216066   7.624   4.129   7.725  1.6055  0.3678 -0.7075
 4798SOL     OW16067   4.327   8.132   7.248  0.1161 -0.0123 -0.3834
 4798SOL    HW116068   4.247   8.080   7.254  0.2759 -0.7359 -3.1456
 4798SOL    HW216069   4.323   8.173   7.162  1.9213  1.3360  0.1040
 4799SOL     OW16070   4.778   9.095   2.243 -0.4369  0.6379 -0.1820
 4799SOL    HW116071   4.698   9.128   2.203 -0.0133  2.0177  0.0220
 4799SOL    HW216072   4.800   9.162   2.309  2.0345  1.4459 -1.7114
 4800SOL     OW16073   2.248   1.252   4.578  0.1341  0.7297  0.4983
 4800SOL    HW116074   2.330   1.207   4.559  0.2133  1.0253  0.1347
 4800SOL    HW216075   2.189   1.183   4.608  0.1753  0.3451 -0.2979
 4801SOL     OW16076   7.197   3.806   8.369 -0.2960  0.0711  0.0827
 4801SOL    HW116077   7.190   3.744   8.296 -1.8573  0.3911 -0.0801
 4801SOL    HW216078   7.241   3.882   8.331  1.2219 -0.7244  0.1701
 4802SOL     OW16079   9.676   8.730   1.668  0.1428  0.5482  0.2791
 4802SOL    HW116080   9.700   8.640   1.647  0.0745  0.3035  1.1951
 4802SOL    HW216081   9.584   8.724   1.695  0.6483  0.5613  2.1686
 4803SOL     OW16082   6.456   7.943   0.224 -0.3934 -0.1485  0.4074
 4803SOL    HW116083   6.509   8.008   0.271 -0.4432 -0.2470  0.5984
 4803SOL    HW216084   6.502   7.860   0.238  0.9883  0.1680 -1.7576
 4804SOL     OW16085   5.835   4.470   6.242  0.1575  0.5355  0.6281
 4804SOL    HW116086   5.828   4.486   6.148  1.8968  2.3369  0.7203
 4804SOL    HW216087   5.924   4.437   6.254  0.0492  0.5852  1.6633
 4805SOL     OW16088   3.828   5.169   5.658  0.1761 -0.7587 -1.0180
 4805SOL    HW116089   3.894   5.101   5.644 -0.7322 -2.0081  0.4114
 4805SOL    HW216090   3.761   5.151   5.593 -0.0374 -1.2216 -0.6773
 4806SOL     OW16091   2.515   3.422   9.418 -0.0342 -0.0763  0.4382
 4806SOL    HW116092   2.464   3.447   9.496  0.5708 -0.7347  1.0638
 4806SOL    HW216093   2.457   3.364   9.370 -1.0733  1.6600 -0.5201
 4807SOL     OW16094   7.674   1.050   4.465 -0.0904 -0.2761 -0.1563
 4807SOL    HW116095   7.716   0.971   4.431  1.5142 -0.4060  1.9037
 4807SOL    HW216096   7.741   1.118   4.456 -0.6958  0.3602  0.0599
 4808SOL     OW16097   7.892   5.809   7.324  0.0330 -0.1195 -0.4100
 4808SOL    HW116098   7.970   5.849   7.285  0.7141 -1.3379 -0.3234
 4808SOL    HW216099   7.827   5.879   7.322  0.6205  0.4399 -1.9797
 4809SOL     OW16100   6.255   4.066   7.807 -0.2031  0.4630  0.3389
 4809SOL    HW116101   6.240   4.062   7.712 -0.4509 -0.2495  0.4016
 4809SOL    HW216102   6.205   4.143   7.836 -0.6180  0.3334 -0.0202
 4810SOL     OW16103   3.106   7.280   3.563 -0.4619 -0.6592 -0.0849
 4810SOL    HW116104   3.119   7.362   3.611  1.5526 -0.9569 -0.0272
 4810SOL    HW216105   3.173   7.221   3.598 -0.8793 -1.8313 -1.1920
 4811SOL     OW16106   0.056   5.622   6.451 -0.4145  0.7313  0.3529
 4811SOL    HW116107   0.092   5.592   6.367 -1.3588 -0.1012  0.2208
 4811SOL    HW216108   0.003   5.548   6.481 -0.7009  1.3179  1.3117
 4812SOL     OW16109   2.772   0.399   1.728  0.0227  0.3700 -0.3432
 4812SOL    HW116110   2.856   0.381   1.771 -0.8081  0.7797  1.5668
 4812SOL    HW216111   2.735   0.313   1.712  0.3943  0.2053 -0.3374
 4813SOL     OW16112   6.807   3.939   9.020  0.0632  0.1299  0.0593
 4813SOL    HW116113   6.878   3.993   9.055 -0.5367  1.0480 -0.1033
 4813SOL    HW216114   6.791   3.873   9.087 -0.8379  1.6430  1.3978
 4814SOL     OW16115   1.523   7.305   1.394  0.3521 -0.0123  0.0094
 4814SOL    HW116116   1.492   7.237   1.334  1.3975 -1.3018  0.8647
 4814SOL    HW216117   1.558   7.374   1.336 -1.2330  0.0817 -0.8791
 4815SOL     OW16118   9.601   2.993   8.409 -0.0413  0.3531  0.1902
 4815SOL    HW116119   9.583   2.917   8.355 -1.5873  0.7646  0.0613
 4815SOL    HW216120   9.629   2.956   8.493 -1.9428 -0.4452  0.5391
 4816SOL     OW16121   0.930   0.005   3.940  0.2234 -0.0708  0.6451
 4816SOL    HW116122   1.021   0.029   3.958  0.6967 -0.9225 -0.4927
 4816SOL    HW216123   0.879   0.064   3.994  1.3897  1.9459 -0.3219
 4817SOL     OW16124   2.695   1.569   2.145  0.1466 -0.6160 -0.0936
 4817SOL    HW116125   2.611   1.573   2.100 -1.6661 -0.0999  3.0362
 4817SOL    HW216126   2.728   1.659   2.144 -0.2034 -0.4850  0.1650
 4818SOL     OW16127   2.668   2.878   2.814 -0.5433 -0.6790 -0.0506
 4818SOL    HW116128   2.619   2.871   2.732  0.9994 -2.1477 -0.9094
 4818SOL    HW216129   2.697   2.788   2.832  1.4193  0.0389  0.6527
 4819SOL     OW16130   9.406   3.600   8.717  0.1549  0.2896  0.2064
 4819SOL    HW116131   9.482   3.593   8.775  0.7649  2.0675 -0.3239
 4819SOL    HW216132   9.425   3.538   8.646  1.3442  1.0198 -0.1442
 4820SOL     OW16133   7.334   0.314   6.093  0.4045 -0.1286 -0.0472
 4820SOL    HW116134   7.399   0.360   6.145  0.7987 -1.0085  0.2610
 4820SOL    HW216135   7.363   0.324   6.003  1.4032 -1.1435  0.1384
 4821SOL     OW16136   7.871   7.221   7.363  0.0622  0.0330 -0.3645
 4821SOL    HW116137   7.844   7.304   7.323  0.2377 -0.5189 -1.6769
 4821SOL    HW216138   7.802   7.159   7.340 -1.2295  0.2499  2.4811
 4822SOL     OW16139   2.417   6.903   5.914  0.3653 -0.6011 -0.2160
 4822SOL    HW116140   2.371   6.819   5.905 -1.7224  0.2538  1.4952
 4822SOL    HW216141   2.400   6.949   5.832  0.2382 -1.2638 -0.5691
 4823SOL     OW16142   6.168   1.855   8.429  0.0104 -0.0359  0.2112
 4823SOL    HW116143   6.237   1.792   8.408 -1.8576 -1.2591 -3.0425
 4823SOL    HW216144   6.175   1.921   8.361 -1.5678  0.2004  0.2590
 4824SOL     OW16145   1.043   9.128   2.422 -0.1082  0.0971  0.3084
 4824SOL    HW116146   0.953   9.101   2.404 -0.4411  1.0615  0.4854
 4824SOL    HW216147   1.071   9.071   2.494  0.2087 -1.7361 -1.1793
 4825SOL     OW16148   0.621   0.196   2.429 -0.4379 -0.0459  0.0857
 4825SOL    HW116149   0.690   0.159   2.374  0.3546  1.9742 -0.3620
 4825SOL    HW216150   0.663   0.207   2.515  0.0688  1.7873 -0.3526
 4826SOL     OW16151   2.573   6.026   7.151 -0.1453  0.0112  0.4577
 4826SOL    HW116152   2.545   6.049   7.239  0.9808  0.4304  0.7308
 4826SOL    HW216153   2.545   5.935   7.139  0.5910 -0.3951  1.6569
 4827SOL     OW16154   7.652   7.035   8.116 -0.0896 -0.9033 -0.3188
 4827SOL    HW116155   7.699   7.113   8.146 -1.2720 -0.0917 -0.5198
 4827SOL    HW216156   7.703   7.005   8.040  0.2286 -0.1655 -0.4148
 4828SOL     OW16157   9.430   3.077   2.044  0.0712 -0.3819 -0.3899
 4828SOL    HW116158   9.347   3.057   2.087  0.4525 -1.0461  0.0508
 4828SOL    HW216159   9.405   3.126   1.966 -0.7251 -0.4429 -0.1826
 4829SOL     OW16160   7.197   1.528   5.258 -0.6546  0.1291 -0.7246
 4829SOL    HW116161   7.198   1.522   5.354  1.6864  1.4171 -0.6106
 4829SOL    HW216162   7.266   1.468   5.229 -2.4450 -1.5695 -1.8069
 4830SOL     OW16163   4.759   5.710   8.959 -0.1649  0.4304  0.0906
 4830SOL    HW116164   4.811   5.632   8.941  1.5260  1.0565  1.8337
 4830SOL    HW216165   4.745   5.750   8.873  0.2371 -0.9648 -0.6656
 4831SOL     OW16166   2.864   7.674   3.938 -0.3056  0.0223  0.1089
 4831SOL    HW116167   2.791   7.639   3.990 -0.4240  0.3560  0.1715
 4831SOL    HW216168   2.906   7.738   3.996  0.3912 -0.5814  0.2856
 4832SOL     OW16169   3.382   0.187   4.204 -0.5160  0.3216  0.1092
 4832SOL    HW116170   3.372   0.187   4.109  0.1462 -2.3879 -0.0484
 4832SOL    HW216171   3.394   0.094   4.227  2.2872  1.1174  2.5090
 4833SOL     OW16172   8.173   6.143   2.139 -0.8264  0.2055  0.3184
 4833SOL    HW116173   8.185   6.062   2.189 -1.5799 -1.2284 -1.6766
 4833SOL    HW216174   8.082   6.167   2.155 -1.6053 -1.2229 -1.5821
 4834SOL     OW16175   8.586   9.618   6.977 -0.1295 -0.2261  1.1281
 4834SOL    HW116176   8.595   9.542   7.036  0.4882  0.7558  2.3407
 4834SOL    HW216177   8.673   9.656   6.973 -0.5272  0.6904  0.9253
 4835SOL     OW16178   9.310   2.894   2.856  0.1269  0.1413 -0.4491
 4835SOL    HW116179   9.388   2.908   2.909  0.8957  1.0029 -1.7418
 4835SOL    HW216180   9.268   2.818   2.894  1.4515 -0.1705  0.4501
 4836SOL     OW16181   4.445   3.625   8.029 -0.2893  0.6234 -0.5154
 4836SOL    HW116182   4.373   3.605   8.090 -0.3359  0.5433 -0.5973
 4836SOL    HW216183   4.436   3.560   7.959 -0.5877  1.0826 -0.9055
 4837SOL     OW16184   5.562   0.662   2.568 -0.2675 -0.2433  0.0793
 4837SOL    HW116185   5.586   0.636   2.479  0.5886 -0.5145  0.3790
 4837SOL    HW216186   5.543   0.755   2.562 -3.3370 -0.8037 -1.0167
 4838SOL     OW16187   1.820   6.335   0.474 -0.1104 -0.2061  0.2302
 4838SOL    HW116188   1.904   6.317   0.430  0.2363  0.2566  0.6981
 4838SOL    HW216189   1.756   6.333   0.403  0.7058  2.7271 -0.7498
 4839SOL     OW16190   4.216   0.574   6.271  0.7018 -0.5579  0.6887
 4839SOL    HW116191   4.247   0.638   6.335 -0.2119  1.5025 -0.8200
 4839SOL    HW216192   4.122   0.590   6.264  0.4426 -2.0978  0.2677
 4840SOL     OW16193   0.209   2.795   0.193 -0.2956 -0.3758  0.6547
 4840SOL    HW116194   0.293   2.769   0.232 -0.6595  0.1480  1.8384
 4840SOL    HW216195   0.152   2.813   0.268 -0.2387  3.2832  0.0225
 4841SOL     OW16196   5.910   5.560   0.994 -0.1233 -0.2204 -0.2756
 4841SOL    HW116197   5.853   5.515   0.931 -2.1083  2.0729 -0.2421
 4841SOL    HW216198   5.850   5.608   1.050  1.8252  1.4469  0.4754
 4842SOL     OW16199   5.445   7.456   5.459 -0.1575 -0.1250 -0.0865
 4842SOL    HW116200   5.441   7.549   5.484 -1.7249  0.0672 -0.9281
 4842SOL    HW216201   5.514   7.453   5.393 -1.6655  0.9597 -1.8431
 4843SOL     OW16202   2.960   5.315   0.646  0.3057  0.6446 -0.2741
 4843SOL    HW116203   3.042   5.268   0.630 -0.3338 -0.1342 -1.3641
 4843SOL    HW216204   2.967   5.394   0.593  0.6844  0.9817  0.2690
 4844SOL     OW16205   2.692   2.577   3.632 -0.1071 -0.0145 -0.1815
 4844SOL    HW116206   2.645   2.547   3.554  0.6294 -2.7814  0.3308
 4844SOL    HW216207   2.626   2.580   3.701 -0.1802 -0.6462 -0.2175
 4845SOL     OW16208   1.628   6.581   7.176 -0.8824  0.2074  0.4508
 4845SOL    HW116209   1.619   6.486   7.169 -0.3516  0.1421  0.6153
 4845SOL    HW216210   1.548   6.609   7.220 -0.8899 -0.2024  0.7094
 4846SOL     OW16211   1.380   9.272   4.574 -0.0834  0.5934  0.8635
 4846SOL    HW116212   1.467   9.312   4.568 -0.9341  2.3952 -0.0330
 4846SOL    HW216213   1.356   9.252   4.484  0.5688 -2.7442  1.2734
 4847SOL     OW16214   6.904   5.813   8.258 -0.1769 -0.4066  0.0297
 4847SOL    HW116215   6.876   5.857   8.178  0.0486 -1.2427 -0.5181
 4847SOL    HW216216   6.854   5.731   8.259 -0.9671  0.0599  1.2901
 4848SOL     OW16217   1.666   4.234   3.658 -0.0885  0.1978  0.0868
 4848SOL    HW116218   1.616   4.191   3.589  1.1938 -0.4748 -0.4653
 4848SOL    HW216219   1.732   4.169   3.683  2.7064  2.1776 -1.5975
 4849SOL     OW16220   1.408   8.200   5.226  0.1911 -0.4477 -0.9991
 4849SOL    HW116221   1.320   8.203   5.263  0.0540  0.9109 -1.3785
 4849SOL    HW216222   1.397   8.223   5.134  0.9306 -0.3436 -1.0712
 4850SOL     OW16223   8.430   6.157   3.340 -0.1980 -0.3945 -0.2113
 4850SOL    HW116224   8.396   6.222   3.400  0.2954 -2.2552  2.2413
 4850SOL    HW216225   8.518   6.187   3.319 -0.0721 -0.1342  0.6650
 4851SOL     OW16226   2.232   4.209   8.080 -0.0957 -0.0337 -0.1497
 4851SOL    HW116227   2.305   4.209   8.143  0.4293 -0.9147 -0.7389
 4851SOL    HW216228   2.185   4.291   8.098  0.9559  0.4854  0.3267
 4852SOL     OW16229   5.620   9.449   5.870 -0.1280  1.3133 -0.0265
 4852SOL    HW116230   5.644   9.429   5.960 -0.0210  0.9091 -0.1424
 4852SOL    HW216231   5.696   9.422   5.819 -0.2977  1.2818 -0.2631
 4853SOL     OW16232   6.879   5.680   3.368 -0.3298  0.3504  0.1541
 4853SOL    HW116233   6.834   5.740   3.426 -0.5869  0.3712 -0.0662
 4853SOL    HW216234   6.866   5.594   3.408  0.1947  0.4600  0.5673
 4854SOL     OW16235   2.225   2.818   2.598  0.1793  0.1851 -0.1764
 4854SOL    HW116236   2.162   2.767   2.649 -0.1662 -0.7231 -1.4571
 4854SOL    HW216237   2.192   2.908   2.603  1.3952  0.5965  3.0332
 4855SOL     OW16238   9.014   5.139   3.142  0.0914  0.2648  0.0020
 4855SOL    HW116239   9.088   5.196   3.125 -0.0364  1.4747  2.8656
 4855SOL    HW216240   8.940   5.178   3.095  0.8641  0.0194 -1.4565
 4856SOL     OW16241   0.866   0.666   2.238  0.3588 -0.6404  0.1910
 4856SOL    HW116242   0.778   0.641   2.267  1.2281 -3.4355  0.7490
 4856SOL    HW216243   0.860   0.672   2.143 -0.3864 -1.0312  0.2098
 4857SOL     OW16244   9.019   9.241   4.224  0.0116  0.2056  0.4355
 4857SOL    HW116245   8.925   9.235   4.206 -0.0003  0.1219  0.5240
 4857SOL    HW216246   9.059   9.183   4.160  0.0853  1.0355 -0.2964
 4858SOL     OW16247   3.144   7.220   8.181  0.0378 -0.1075  0.2102
 4858SOL    HW116248   3.221   7.204   8.235  1.6121  0.6320 -1.7032
 4858SOL    HW216249   3.165   7.299   8.131 -3.2048  1.9328  1.7521
 4859SOL     OW16250   4.192   3.417   0.689  0.0792  0.3819  0.6941
 4859SOL    HW116251   4.131   3.380   0.753  1.4000 -0.8010  1.3157
 4859SOL    HW216252   4.253   3.469   0.741  0.6518  0.1151  0.2990
 4860SOL     OW16253   9.139   4.509   6.606  0.1311  0.0883 -0.0961
 4860SOL    HW116254   9.143   4.438   6.671  3.0860  0.5960  0.4141
 4860SOL    HW216255   9.157   4.465   6.522  1.0961  0.0815  0.1036
 4861SOL     OW16256   5.355   1.961   4.314 -0.1797 -0.1505 -0.0131
 4861SOL    HW116257   5.414   2.013   4.260  0.4725  0.1833  0.9839
 4861SOL    HW216258   5.385   1.871   4.302 -0.0788 -0.0873 -0.2520
 4862SOL     OW16259   0.045   4.888   8.728 -0.7346  0.5044 -0.0897
 4862SOL    HW116260   0.016   4.857   8.642  0.8457  1.6406 -1.0862
 4862SOL    HW216261   0.138   4.907   8.716 -0.5625  1.0350  1.7941
 4863SOL     OW16262   2.777   4.515   7.670 -0.3200  0.1994  0.1079
 4863SOL    HW116263   2.765   4.581   7.739  0.4278  0.1163  0.3249
 4863SOL    HW216264   2.870   4.522   7.646 -0.3810 -0.3491 -0.3048
 4864SOL     OW16265   7.284   0.182   2.477 -0.0559  0.1075 -0.2760
 4864SOL    HW116266   7.208   0.126   2.492  0.0844  0.0394  0.2013
 4864SOL    HW216267   7.315   0.204   2.565 -0.8718  1.9862 -0.3947
 4865SOL     OW16268   7.555   5.599   6.131  0.0690 -0.3325 -0.1629
 4865SOL    HW116269   7.576   5.514   6.093  1.6504  0.1949 -0.5664
 4865SOL    HW216270   7.562   5.586   6.225 -1.4452 -1.0533 -0.1242
 4866SOL     OW16271   3.800   6.127   6.249 -0.1204  0.3208  0.2572
 4866SOL    HW116272   3.886   6.162   6.272 -0.4348  1.2665  0.0324
 4866SOL    HW216273   3.747   6.142   6.328 -1.1048  3.2495 -0.8257
 4867SOL     OW16274   3.128   7.834   1.093 -0.0092 -0.0974  0.0192
 4867SOL    HW116275   3.164   7.899   1.154  1.1315  0.5477 -1.2993
 4867SOL    HW216276   3.039   7.865   1.075 -0.4347 -0.3956  1.4508
 4868SOL     OW16277   5.421   5.079   7.842  0.1970 -0.3412  0.7118
 4868SOL    HW116278   5.367   5.150   7.807  1.8520  1.7852  2.1942
 4868SOL    HW216279   5.427   5.016   7.770 -0.9877  1.2050 -0.8387
 4869SOL     OW16280   6.909   4.601   7.537  0.1183  0.5637  0.0619
 4869SOL    HW116281   6.828   4.600   7.486  0.4154  0.9873 -0.4228
 4869SOL    HW216282   6.888   4.551   7.616  0.3634 -2.2969 -1.5619
 4870SOL     OW16283   2.610   0.320   8.070 -0.1873 -0.0591 -0.1690
 4870SOL    HW116284   2.654   0.292   8.150 -0.8500  0.4419  0.3858
 4870SOL    HW216285   2.632   0.413   8.062  0.1466 -0.1862 -0.7536
 4871SOL     OW16286   9.413   6.222   5.170 -0.0229 -0.3358 -0.2855
 4871SOL    HW116287   9.331   6.233   5.220  0.7715 -1.4911  1.3824
 4871SOL    HW216288   9.408   6.288   5.101 -1.6711  0.6682  0.7137
 4872SOL     OW16289   8.968   4.027   6.331 -0.5425 -0.3150 -0.2657
 4872SOL    HW116290   8.901   3.961   6.345  0.4763 -1.1947  0.6325
 4872SOL    HW216291   8.969   4.078   6.412 -0.4274 -0.0134 -0.4528
 4873SOL     OW16292   6.911   7.066   8.997 -0.1082  0.6290 -0.0366
 4873SOL    HW116293   6.910   7.054   8.902 -2.3251 -1.6359  0.1650
 4873SOL    HW216294   6.822   7.042   9.025  0.7982  0.1265  2.7240
 4874SOL     OW16295   9.636   0.329   7.541 -0.0503  0.0513 -0.1017
 4874SOL    HW116296   9.630   0.405   7.598 -0.8530  1.1922 -1.6161
 4874SOL    HW216297   9.545   0.303   7.525  0.1930 -0.8634 -0.0761
 4875SOL     OW16298   3.090   3.171   9.344  0.3505 -0.1752  0.3732
 4875SOL    HW116299   2.999   3.202   9.340  0.5605  0.4919  0.6370
 4875SOL    HW216300   3.107   3.135   9.257 -0.2488 -0.5435  0.4044
 4876SOL     OW16301   2.544   4.409   7.575  0.3571 -0.4512 -0.0319
 4876SOL    HW116302   2.628   4.433   7.615 -0.4443 -0.0558  1.4770
 4876SOL    HW216303   2.522   4.325   7.613 -2.0359  1.4009  3.1919
 4877SOL     OW16304   4.672   1.584   2.169  0.8149  0.2541 -0.0606
 4877SOL    HW116305   4.613   1.569   2.095  0.8631 -0.9861  0.1363
 4877SOL    HW216306   4.717   1.501   2.182  1.6234  0.7779  0.6679
 4878SOL     OW16307   1.711   6.116   3.685  0.1316  0.5702 -0.3296
 4878SOL    HW116308   1.694   6.048   3.620  0.2044 -1.0448  1.2641
 4878SOL    HW216309   1.632   6.170   3.684 -0.4888 -0.3126 -0.7279
 4879SOL     OW16310   3.867   5.579   0.901 -0.4222 -0.4580 -0.0728
 4879SOL    HW116311   3.882   5.658   0.954  2.4911 -1.3772  0.6391
 4879SOL    HW216312   3.948   5.566   0.853 -0.9588 -2.8155 -0.4659
 4880SOL     OW16313   0.928   8.358   6.338 -0.1464  0.5860  0.0068
 4880SOL    HW116314   1.013   8.316   6.348 -0.4849 -0.0025  0.5102
 4880SOL    HW216315   0.944   8.432   6.280  0.4743 -0.2267 -0.8824
 4881SOL     OW16316   1.444   5.969   0.919 -0.3662 -0.8508 -0.0169
 4881SOL    HW116317   1.466   6.013   0.837  0.3518 -1.3680 -0.1111
 4881SOL    HW216318   1.364   5.920   0.900 -1.5989  0.9463  0.2878
 4882SOL     OW16319   2.545   9.070   5.782  0.1124  0.3715 -0.0347
 4882SOL    HW116320   2.597   9.101   5.707 -0.7453  1.0009 -0.3871
 4882SOL    HW216321   2.561   9.135   5.850  0.2752  0.2220  0.0723
 4883SOL     OW16322   9.276   8.252   7.983 -0.3178 -0.8305 -0.0389
 4883SOL    HW116323   9.265   8.312   7.909  0.5657  0.6819  0.9857
 4883SOL    HW216324   9.187   8.234   8.013 -0.6466  2.0424  1.1402
 4884SOL     OW16325   0.486   0.751   3.124  0.2587  0.0562  0.7941
 4884SOL    HW116326   0.566   0.700   3.118 -0.7973 -1.5924 -0.0938
 4884SOL    HW216327   0.435   0.709   3.193 -0.5355  0.0170  0.2001
 4885SOL     OW16328   7.163   4.482   7.788 -0.1476 -0.3661 -0.0785
 4885SOL    HW116329   7.169   4.533   7.707  1.5227 -0.3614  0.0142
 4885SOL    HW216330   7.070   4.482   7.809 -0.3866  1.2593 -0.9534
 4886SOL     OW16331   8.866   2.934   6.263  0.1494 -0.0824  0.1420
 4886SOL    HW116332   8.814   2.854   6.257 -0.1106  0.1296 -0.4838
 4886SOL    HW216333   8.937   2.922   6.200  1.0830 -0.5176  1.2347
 4887SOL     OW16334   2.636   3.602   7.987 -0.0870 -0.8406  0.3353
 4887SOL    HW116335   2.611   3.691   7.960 -1.4712 -0.7642  1.7062
 4887SOL    HW216336   2.559   3.570   8.035  1.1198 -2.0494  1.5297
 4888SOL     OW16337   8.236   2.822   6.218 -0.3451  0.3888  0.3556
 4888SOL    HW116338   8.294   2.889   6.181 -0.4448 -0.2116 -0.9009
 4888SOL    HW216339   8.225   2.850   6.309  0.3588  1.5755  0.1094
 4889SOL     OW16340   1.102   6.836   6.994 -0.5309 -0.1521 -0.5496
 4889SOL    HW116341   1.148   6.875   7.068 -1.7623 -0.1519  0.2491
 4889SOL    HW216342   1.031   6.898   6.975  0.3831  0.3954 -2.4511
 4890SOL     OW16343   9.137   6.616   6.152  0.0035 -0.4407 -0.1096
 4890SOL    HW116344   9.185   6.698   6.142  0.1542 -0.4548  0.4791
 4890SOL    HW216345   9.098   6.621   6.239  0.5235 -1.2582  0.1853
 4891SOL     OW16346   5.448   3.807   9.472  0.0536  0.1854 -0.5649
 4891SOL    HW116347   5.471   3.895   9.443 -1.8473  0.7095 -0.6381
 4891SOL    HW216348   5.441   3.814   9.567  0.7623 -0.1178 -0.4869
 4892SOL     OW16349   9.471   7.065   7.774  0.2978 -0.4581 -0.1359
 4892SOL    HW116350   9.533   7.015   7.827 -0.4637  0.3177  1.5824
 4892SOL    HW216351   9.385   7.045   7.811 -0.5023 -1.3188 -2.3096
 4893SOL     OW16352   8.132   3.927   2.857  0.3345 -0.5209  0.1424
 4893SOL    HW116353   8.130   3.995   2.791 -1.9470 -1.4245 -0.8078
 4893SOL    HW216354   8.225   3.903   2.864  0.7662  0.3669 -1.9014
 4894SOL     OW16355   5.380   3.528   0.412 -0.4689  0.1444 -0.2049
 4894SOL    HW116356   5.412   3.440   0.394  1.4644  0.5649  0.8831
 4894SOL    HW216357   5.398   3.577   0.331  2.3558  0.5026  0.5413
 4895SOL     OW16358   8.289   8.580   6.129  0.9173  0.0293 -0.0577
 4895SOL    HW116359   8.228   8.517   6.168 -0.0290  0.2793 -1.0836
 4895SOL    HW216360   8.360   8.525   6.094  1.2735 -0.2693  1.0704
 4896SOL     OW16361   8.118   7.911   0.092 -0.2362  0.3091 -0.0628
 4896SOL    HW116362   8.095   8.004   0.087  0.2211  0.5021  1.1227
 4896SOL    HW216363   8.035   7.865   0.083 -0.6685  0.8899  0.8352
 4897SOL     OW16364   1.741   4.045   3.036  0.2876  0.3183  0.2547
 4897SOL    HW116365   1.703   4.001   2.961 -0.0142  1.5878 -0.3618
 4897SOL    HW216366   1.683   4.119   3.054  0.2026 -0.1025  1.9135
 4898SOL     OW16367   2.456   2.226   5.574  0.7248 -0.0820  0.3257
 4898SOL    HW116368   2.405   2.301   5.543  0.2393 -0.0518  1.1594
 4898SOL    HW216369   2.400   2.186   5.641 -0.2500 -2.7898 -1.9392
 4899SOL     OW16370   0.770   3.015   1.901  1.0318 -0.9182  0.5200
 4899SOL    HW116371   0.753   3.100   1.941  0.0793 -1.4886  1.3888
 4899SOL    HW216372   0.861   3.020   1.872  1.5599 -0.2133  2.1680
 4900SOL     OW16373   1.740   0.140   2.981  0.1636  0.7598 -0.0664
 4900SOL    HW116374   1.660   0.192   2.980 -1.6770 -1.8957 -0.1169
 4900SOL    HW216375   1.747   0.106   2.892  0.0255 -0.8847  0.5226
 4901SOL     OW16376   5.093   0.503   9.612  0.5155  0.1124  0.0008
 4901SOL    HW116377   5.164   0.564   9.592 -0.4193  0.8246 -1.2970
 4901SOL    HW216378   5.090   0.443   9.538 -1.4024  1.2405 -0.9209
 4902SOL     OW16379   3.916   3.663   2.999 -0.9445  0.1482  0.0101
 4902SOL    HW116380   3.899   3.569   2.988 -0.8675  0.3317 -2.1865
 4902SOL    HW216381   4.012   3.669   3.001 -0.9513  0.1766  0.2711
 4903SOL     OW16382   2.535   5.864   7.817 -0.2497  0.3306 -0.2859
 4903SOL    HW116383   2.565   5.854   7.907 -1.9082 -0.3902  0.2371
 4903SOL    HW216384   2.575   5.791   7.770  0.5926  0.6894 -0.1456
 4904SOL     OW16385   8.147   3.297   2.405 -0.0444 -0.3656  0.1672
 4904SOL    HW116386   8.129   3.246   2.326  0.3198  0.9184 -0.7883
 4904SOL    HW216387   8.243   3.301   2.410 -0.0670  0.3889  0.1009
 4905SOL     OW16388   3.123   3.751   6.159 -0.1183 -0.4158 -0.4667
 4905SOL    HW116389   3.106   3.767   6.252 -0.7313 -0.8564 -0.4957
 4905SOL    HW216390   3.217   3.767   6.149  0.3749 -2.2688  0.6554
 4906SOL     OW16391   4.738   1.002   1.207  0.4452 -0.0794 -0.0547
 4906SOL    HW116392   4.796   0.934   1.173  0.9435 -0.4976  1.5228
 4906SOL    HW216393   4.694   0.960   1.281  1.3492  1.5287  1.4472
 4907SOL     OW16394   0.915   8.763   5.459 -0.3463  0.2185  0.0599
 4907SOL    HW116395   0.863   8.754   5.539 -1.6911 -0.4711 -0.8451
 4907SOL    HW216396   0.994   8.710   5.475 -1.2612 -1.0995  0.4218
 4908SOL     OW16397   5.084   6.117   3.818  0.6504 -0.0566  0.2763
 4908SOL    HW116398   5.151   6.056   3.786  1.8088  1.4764 -0.3369
 4908SOL    HW216399   5.120   6.150   3.900  0.5770  0.6404  0.0345
 4909SOL     OW16400   9.242   7.707   0.149  0.9543  0.6100  0.1219
 4909SOL    HW116401   9.231   7.713   0.244  1.6545 -1.3322  0.3791
 4909SOL    HW216402   9.285   7.622   0.136 -1.3267 -0.3161 -2.0965
 4910SOL     OW16403   3.226   5.461   6.593  0.1344  0.1455  0.6543
 4910SOL    HW116404   3.222   5.537   6.651  2.2892 -1.0172  2.5098
 4910SOL    HW216405   3.314   5.464   6.555 -0.5790 -0.1608 -1.1362
 4911SOL     OW16406   6.371   6.228   1.149 -0.0551 -0.1423  0.3441
 4911SOL    HW116407   6.425   6.306   1.143 -1.3643  0.7358 -0.5765
 4911SOL    HW216408   6.359   6.199   1.059  1.1711 -1.9791  0.7282
 4912SOL     OW16409   7.381   8.307   4.991 -0.0857 -0.2054 -0.0310
 4912SOL    HW116410   7.427   8.328   4.909  0.0682  0.2045  0.1577
 4912SOL    HW216411   7.301   8.262   4.962  0.2471 -0.5862 -0.3780
 4913SOL     OW16412   5.417   6.485   4.405  0.2691 -0.1432 -0.1110
 4913SOL    HW116413   5.375   6.481   4.491 -1.0279 -0.5328 -0.7479
 4913SOL    HW216414   5.476   6.560   4.411 -1.3644  1.1600  0.4499
 4914SOL     OW16415   9.095   5.995   6.849 -0.1398 -0.3356 -0.0256
 4914SOL    HW116416   9.044   6.059   6.899  0.4224 -0.6299  0.9522
 4914SOL    HW216417   9.104   6.034   6.762  1.1307  1.4759  0.8415
 4915SOL     OW16418   0.698   4.485   4.539 -0.1330 -0.2759 -0.3607
 4915SOL    HW116419   0.611   4.489   4.500  0.5579 -0.0817 -1.9726
 4915SOL    HW216420   0.750   4.547   4.487  0.9895 -0.4611  0.5069
 4916SOL     OW16421   1.622   6.849   2.652  0.4530  0.3680  0.4334
 4916SOL    HW116422   1.578   6.932   2.669  0.1063  0.2719 -0.0061
 4916SOL    HW216423   1.559   6.782   2.677  0.9637  0.2212  1.4119
 4917SOL     OW16424   7.243   3.753   1.763 -0.5597 -0.0723  0.3033
 4917SOL    HW116425   7.181   3.683   1.781  0.9798 -1.8764 -0.9654
 4917SOL    HW216426   7.191   3.821   1.720 -1.4019 -2.4912 -2.9277
 4918SOL     OW16427   2.342   9.037   6.659  0.2496 -0.2407 -0.1721
 4918SOL    HW116428   2.284   8.966   6.685  0.3435 -0.2662 -0.0308
 4918SOL    HW216429   2.404   9.046   6.732 -1.2151  1.5900  0.9514
 4919SOL     OW16430   7.035   3.487   3.518 -0.0031  0.6001  0.0396
 4919SOL    HW116431   7.003   3.569   3.481 -0.6291 -0.3761 -1.6848
 4919SOL    HW216432   7.130   3.491   3.507  0.0027  1.2180  0.2659
 4920SOL     OW16433   7.311   0.095   5.217 -0.6439 -0.2040  1.2257
 4920SOL    HW116434   7.349   0.053   5.295  1.9716  0.1555  0.2613
 4920SOL    HW216435   7.283   0.181   5.248  1.1520  0.2690  1.6582
 4921SOL     OW16436   7.174   2.056   7.468 -0.3255  0.2324 -0.4974
 4921SOL    HW116437   7.097   2.000   7.478 -0.5417  0.6608  0.4446
 4921SOL    HW216438   7.214   2.029   7.386 -0.5188 -1.1812 -0.1435
 4922SOL     OW16439   6.504   7.982   5.812  0.1575  0.5296 -0.0874
 4922SOL    HW116440   6.485   8.056   5.871 -0.5748 -0.4628  0.9726
 4922SOL    HW216441   6.583   7.942   5.848 -0.8740 -0.7092  0.9094
 4923SOL     OW16442   0.119   2.879   5.728  0.0051 -0.4440 -0.0956
 4923SOL    HW116443   0.052   2.937   5.692 -0.3129 -1.4367 -1.1774
 4923SOL    HW216444   0.192   2.937   5.751 -1.3916  0.7338  1.6125
 4924SOL     OW16445   1.410   6.034   5.244  0.0781 -0.1920 -0.1819
 4924SOL    HW116446   1.489   6.055   5.295 -0.1084  0.4326 -0.1408
 4924SOL    HW216447   1.438   6.039   5.153 -0.1329  1.0252 -0.2030
 4925SOL     OW16448   3.924   4.127   6.585 -0.2416 -0.1091 -0.2827
 4925SOL    HW116449   3.948   4.176   6.507  2.0715 -2.0605 -0.8909
 4925SOL    HW216450   3.934   4.191   6.657  0.0590  1.0236 -1.2990
 4926SOL     OW16451   7.056   7.527   2.856  0.4065  0.5212 -0.0983
 4926SOL    HW116452   7.029   7.595   2.917  3.2700 -0.3214  2.3577
 4926SOL    HW216453   7.132   7.564   2.810  0.4777 -0.1323 -0.5339
 4927SOL     OW16454   7.243   8.711   7.820 -0.1641  0.7928 -0.1723
 4927SOL    HW116455   7.336   8.726   7.834  0.0478 -0.0227 -0.6603
 4927SOL    HW216456   7.214   8.667   7.900  0.3278 -0.8175 -0.8379
 4928SOL     OW16457   6.475   8.139   8.710 -0.1787 -0.1101  0.4453
 4928SOL    HW116458   6.568   8.117   8.703  0.2383  1.2908  1.0751
 4928SOL    HW216459   6.444   8.141   8.619  0.8354  0.9865  0.0919
 4929SOL     OW16460   2.461   2.570   0.117  0.4199 -0.1521 -0.2367
 4929SOL    HW116461   2.469   2.533   0.029  1.4485  0.8629 -0.6029
 4929SOL    HW216462   2.420   2.656   0.103 -1.1005 -0.7161  0.4936
 4930SOL     OW16463   7.025   1.276   8.014  0.0334  0.1093 -0.4688
 4930SOL    HW116464   7.120   1.283   8.011 -0.0615  1.5070 -0.9077
 4930SOL    HW216465   6.994   1.345   7.955 -1.2591  0.0848  0.1478
 4931SOL     OW16466   6.189   6.114   8.474 -0.2101  0.0304  0.1817
 4931SOL    HW116467   6.193   6.019   8.479  2.2063  0.0349 -0.3560
 4931SOL    HW216468   6.157   6.142   8.560  1.0794 -1.2091  1.1127
 4932SOL     OW16469   6.086   7.477   2.985 -0.4657 -0.1658 -0.3613
 4932SOL    HW116470   6.087   7.548   3.050 -2.4371 -1.1694  0.8585
 4932SOL    HW216471   6.020   7.503   2.921 -0.3595 -0.3794 -0.5618
 4933SOL     OW16472   6.161   5.606   0.601 -0.2240 -0.2807 -0.2523
 4933SOL    HW116473   6.226   5.572   0.539  0.2525  0.2282 -0.0445
 4933SOL    HW216474   6.144   5.695   0.572  1.6830  0.7701  1.5826
 4934SOL     OW16475   5.467   3.619   7.232  0.7024  0.0249 -0.3073
 4934SOL    HW116476   5.538   3.659   7.182 -0.2441  1.4857 -0.5393
 4934SOL    HW216477   5.399   3.602   7.167 -0.4640  1.7682  0.3678
 4935SOL     OW16478   2.449   3.693   7.473 -0.2173  0.1340  0.4384
 4935SOL    HW116479   2.517   3.653   7.419 -1.6783 -0.5250 -0.9877
 4935SOL    HW216480   2.465   3.787   7.465  0.3705 -0.0057 -0.1134
 4936SOL     OW16481   7.835   6.174   9.425 -0.3613 -0.1385 -0.3334
 4936SOL    HW116482   7.773   6.123   9.372 -0.1102 -0.5457 -0.2326
 4936SOL    HW216483   7.783   6.205   9.499 -0.2258 -1.2819  0.2620
 4937SOL     OW16484   2.726   7.650   0.068  0.1011 -0.0250  0.3045
 4937SOL    HW116485   2.770   7.654  -0.017  0.7623  2.2685  0.6703
 4937SOL    HW216486   2.647   7.599   0.052 -0.9999  2.2429 -2.3053
 4938SOL     OW16487   7.617   2.808   4.809 -0.4046  0.4377  0.7415
 4938SOL    HW116488   7.570   2.889   4.831  0.6467  1.4548 -0.5410
 4938SOL    HW216489   7.617   2.757   4.890 -1.8528  1.3318  1.3440
 4939SOL     OW16490   1.641   2.632   3.119 -0.4311 -0.0696 -0.2129
 4939SOL    HW116491   1.619   2.573   3.046 -0.3383 -0.2253 -0.1145
 4939SOL    HW216492   1.734   2.620   3.132  0.0541  1.6974 -1.6132
 4940SOL     OW16493   2.347   0.237   4.820 -0.1732 -0.4600  0.0991
 4940SOL    HW116494   2.400   0.224   4.898  2.1702 -1.1585 -1.4817
 4940SOL    HW216495   2.281   0.301   4.845  0.3863 -0.8102  2.6686
 4941SOL     OW16496   1.502   0.651   3.061 -0.4192  0.8134 -0.1976
 4941SOL    HW116497   1.593   0.640   3.035 -0.4993 -0.8991  0.1082
 4941SOL    HW216498   1.506   0.667   3.156 -0.4732 -1.8074  0.3399
 4942SOL     OW16499   8.016   3.845   0.849  0.2234  0.0068 -0.4904
 4942SOL    HW116500   8.044   3.921   0.799 -1.7420  0.3485 -1.1373
 4942SOL    HW216501   7.947   3.805   0.796 -2.1871  0.5629  2.0237
 4943SOL     OW16502   4.435   9.413   5.476 -0.0045  0.1607 -0.2451
 4943SOL    HW116503   4.524   9.397   5.507  0.6262 -3.9582 -3.3696
 4943SOL    HW216504   4.380   9.361   5.534  0.1107 -0.2870 -0.5298
 4944SOL     OW16505   0.278   5.138   0.993  0.4500  0.4761  0.0329
 4944SOL    HW116506   0.193   5.105   0.963  0.1424  1.5468 -0.3005
 4944SOL    HW216507   0.262   5.171   1.081  1.1538 -1.8102  1.1052
 4945SOL     OW16508   8.506   7.185   3.347  0.5925 -0.1110 -0.3059
 4945SOL    HW116509   8.490   7.227   3.263  0.8582  0.5844 -0.0162
 4945SOL    HW216510   8.577   7.124   3.330  0.2879 -0.3611 -0.7047
 4946SOL     OW16511   3.811   1.867   0.902  0.3150  0.4515  0.2386
 4946SOL    HW116512   3.782   1.931   0.968 -1.5403  0.3892 -0.4655
 4946SOL    HW216513   3.868   1.808   0.951  1.2090  1.9770  1.1576
 4947SOL     OW16514   4.643   6.482   4.151  0.1002 -0.1259 -0.0984
 4947SOL    HW116515   4.705   6.435   4.207 -0.6777 -0.9911  0.0589
 4947SOL    HW216516   4.685   6.483   4.065  0.5442 -0.2847  0.1118
 4948SOL     OW16517   8.981   9.590   9.358 -0.0411 -0.1922 -0.3913
 4948SOL    HW116518   8.924   9.665   9.377 -0.9630 -0.9411 -0.1235
 4948SOL    HW216519   8.985   9.542   9.440  0.5878 -0.4156 -0.5500
 4949SOL     OW16520   8.450   1.686   1.292  0.3206  0.2990  0.2557
 4949SOL    HW116521   8.431   1.604   1.246 -0.0106  0.4835  0.0650
 4949SOL    HW216522   8.507   1.734   1.232 -0.6410  0.8263 -0.2676
 4950SOL     OW16523   5.961   8.680   3.263  0.3980 -0.0465 -0.1404
 4950SOL    HW116524   6.010   8.619   3.319  0.6496  0.4844  0.2267
 4950SOL    HW216525   6.008   8.679   3.180  1.1986  0.6479  0.2853
 4951SOL     OW16526   4.930   8.156   6.403  0.3173  0.1031 -0.3102
 4951SOL    HW116527   4.939   8.129   6.494  0.5531 -1.2053 -0.7003
 4951SOL    HW216528   4.965   8.083   6.353 -2.0673 -0.2674 -1.5418
 4952SOL     OW16529   4.068   7.299   1.059 -0.2065  0.3512  0.0717
 4952SOL    HW116530   4.145   7.247   1.039 -0.1743  0.1167  0.7929
 4952SOL    HW216531   3.996   7.237   1.059 -0.5614  0.7031 -1.4846
 4953SOL     OW16532   2.288   7.680   8.684 -0.0329  0.3416 -0.3368
 4953SOL    HW116533   2.245   7.606   8.727  1.0194 -0.5953 -0.8348
 4953SOL    HW216534   2.223   7.714   8.623  0.2933 -1.9177 -2.0932
 4954SOL     OW16535   8.410   3.671   1.467  0.4121  0.4572 -0.0301
 4954SOL    HW116536   8.401   3.688   1.561  3.2917  0.6920  0.2763
 4954SOL    HW216537   8.451   3.585   1.462 -0.9840 -0.1821 -1.1691
 4955SOL     OW16538   2.255   0.492   8.537 -0.0518 -0.3851  0.5112
 4955SOL    HW116539   2.289   0.410   8.502 -0.7627 -1.2362  1.7483
 4955SOL    HW216540   2.263   0.483   8.632 -1.5829  0.3306  0.7358
 4956SOL     OW16541   3.170   8.734   5.382 -0.4691  0.1844 -0.3448
 4956SOL    HW116542   3.145   8.717   5.291  1.0309  0.3507 -0.8085
 4956SOL    HW216543   3.120   8.813   5.406  0.1086  0.9043 -1.4555
 4957SOL     OW16544   9.557   6.253   0.944 -0.1133 -0.3389 -0.0060
 4957SOL    HW116545   9.479   6.200   0.961 -0.5918 -0.0046 -1.0930
 4957SOL    HW216546   9.525   6.343   0.949  0.2107 -0.2011 -0.4569
 4958SOL     OW16547   0.605   0.114   4.799  0.4892 -0.3879 -0.1691
 4958SOL    HW116548   0.535   0.141   4.740  0.6148  1.9323  0.6039
 4958SOL    HW216549   0.578   0.029   4.833 -1.4742  0.0193 -0.6250
 4959SOL     OW16550   3.488   6.443   4.202 -0.0292 -0.4981  0.1192
 4959SOL    HW116551   3.437   6.510   4.248 -0.0204  1.2738 -2.2394
 4959SOL    HW216552   3.445   6.361   4.224 -2.3497  0.6657  0.2744
 4960SOL     OW16553   9.536   3.428   2.030  0.2818  0.8615  0.0450
 4960SOL    HW116554   9.526   3.341   1.993 -2.5074  2.0484 -2.4549
 4960SOL    HW216555   9.597   3.473   1.971 -0.6084  1.4233 -0.4756
 4961SOL     OW16556   4.819   9.197   3.834 -0.2262  0.3522 -0.5204
 4961SOL    HW116557   4.795   9.289   3.845 -1.4350  0.5657 -3.8814
 4961SOL    HW216558   4.779   9.153   3.909 -2.2635  2.1826 -0.4244
 4962SOL     OW16559   5.540   9.660   4.981  0.3636  0.6498  0.0249
 4962SOL    HW116560   5.616   9.604   4.967  0.8007  1.3514 -0.4703
 4962SOL    HW216561   5.501   9.628   5.063  1.9690  1.1434  1.0306
 4963SOL     OW16562   1.331   2.776   1.940 -0.5399  0.6839  0.2118
 4963SOL    HW116563   1.277   2.719   1.996  0.0665  1.6016  1.8038
 4963SOL    HW216564   1.303   2.755   1.851 -1.1476 -1.2527  0.8024
 4964SOL     OW16565   0.581   6.286   0.612  0.3048  0.8984 -0.0929
 4964SOL    HW116566   0.576   6.224   0.684  1.1523  1.1772  0.2095
 4964SOL    HW216567   0.674   6.292   0.590  0.2409  2.0484 -0.1249
 4965SOL     OW16568   3.541   9.562   5.032 -0.9927  0.8612  0.2304
 4965SOL    HW116569   3.617   9.581   4.977  1.2766 -0.3112  2.7189
 4965SOL    HW216570   3.503   9.648   5.050  1.9505  1.9734  1.7541
 4966SOL     OW16571   2.163   3.931   0.449  0.2153 -0.4784  0.0988
 4966SOL    HW116572   2.215   3.973   0.382  1.0939  0.7844  1.5183
 4966SOL    HW216573   2.225   3.909   0.518 -0.7533 -1.1708  0.7809
 4967SOL     OW16574   7.506   1.877   0.552  0.1801  0.1792 -0.0425
 4967SOL    HW116575   7.456   1.953   0.521  1.2367  1.3796  1.0717
 4967SOL    HW216576   7.452   1.837   0.619 -0.6799 -0.4953 -1.0993
 4968SOL     OW16577   1.050   6.409   8.877 -0.1181  0.4794 -0.7039
 4968SOL    HW116578   1.126   6.445   8.923 -1.0042 -0.5043  1.6925
 4968SOL    HW216579   1.086   6.339   8.822  0.6848 -0.4724  0.9450
 4969SOL     OW16580   3.043   6.972   4.809 -0.1037 -0.1485 -0.1788
 4969SOL    HW116581   3.059   6.971   4.715 -1.5124 -0.7722 -0.4304
 4969SOL    HW216582   2.975   7.039   4.821  0.0874 -0.0536  0.4024
 4970SOL     OW16583   1.584   7.513   9.085  0.3252 -0.4241 -0.3978
 4970SOL    HW116584   1.610   7.600   9.116 -1.0751 -0.4971  1.1145
 4970SOL    HW216585   1.491   7.506   9.107  0.3726 -2.2610 -0.5992
 4971SOL     OW16586   8.204   4.478   0.998 -0.0068  0.7493  0.7559
 4971SOL    HW116587   8.210   4.421   1.075 -0.6846  1.5638  1.4215
 4971SOL    HW216588   8.295   4.499   0.977  0.1970  0.2465  1.1123
 4972SOL     OW16589   6.612   1.413   8.686 -0.5524 -0.0148  0.6387
 4972SOL    HW116590   6.597   1.320   8.672  1.7620 -0.2296 -1.0357
 4972SOL    HW216591   6.559   1.456   8.619  0.1734 -0.3055 -0.1459
 4973SOL     OW16592   7.291   5.448   7.207 -0.1580  0.3898  0.0494
 4973SOL    HW116593   7.264   5.357   7.215 -0.3852  0.0704 -3.1250
 4973SOL    HW216594   7.208   5.496   7.199 -0.0146  0.4275 -1.4820
 4974SOL     OW16595   5.751   2.190   5.996  0.0934 -0.0695 -0.4664
 4974SOL    HW116596   5.839   2.154   6.006  0.1830  0.6956  2.5129
 4974SOL    HW216597   5.763   2.285   6.000 -0.8417  0.0618 -0.4324
 4975SOL     OW16598   4.712   7.509   7.681  0.2046 -0.4572 -0.2496
 4975SOL    HW116599   4.690   7.549   7.765  0.0594 -0.2905 -0.3674
 4975SOL    HW216600   4.755   7.426   7.705 -1.9849 -1.6011 -0.0022
 4976SOL     OW16601   5.557   4.539   0.812  0.0098  0.7348  0.1162
 4976SOL    HW116602   5.485   4.539   0.750  0.6430  0.2166 -0.6402
 4976SOL    HW216603   5.537   4.611   0.872 -0.4802  1.4384 -0.8518
 4977SOL     OW16604   1.848   6.173   6.632 -0.4748 -0.1093 -0.7076
 4977SOL    HW116605   1.801   6.253   6.656 -2.2891 -1.1153 -0.7451
 4977SOL    HW216606   1.779   6.110   6.610  0.7509 -2.5234  1.7921
 4978SOL     OW16607   7.509   9.281   3.727  0.8096 -0.3658  0.1670
 4978SOL    HW116608   7.565   9.204   3.724 -0.0497 -1.0277  0.6831
 4978SOL    HW216609   7.479   9.286   3.817  2.6246  1.9006  0.7241
 4979SOL     OW16610   5.015   6.970   1.975  0.4284 -0.6088  0.4527
 4979SOL    HW116611   5.054   6.955   1.889 -2.1016 -2.8282 -0.4450
 4979SOL    HW216612   5.050   6.900   2.030  0.5768 -0.3608  0.6714
 4980SOL     OW16613   9.666   4.244   1.683 -0.0626 -0.0913 -0.3155
 4980SOL    HW116614   9.577   4.217   1.703  0.3615 -0.6405  0.9283
 4980SOL    HW216615   9.671   4.334   1.715  0.7917 -1.1546  2.9225
 4981SOL     OW16616   0.562   1.525   2.517 -0.4126 -0.3485  0.6392
 4981SOL    HW116617   0.513   1.599   2.553 -1.3706  0.2043 -1.6006
 4981SOL    HW216618   0.636   1.565   2.472 -1.0313 -0.6979 -0.7373
 4982SOL     OW16619   6.392   2.128   4.537 -0.2107  0.3212 -0.1645
 4982SOL    HW116620   6.477   2.146   4.495 -1.0771  0.6149 -1.9082
 4982SOL    HW216621   6.389   2.189   4.611  1.0040  0.4537 -0.1981
 4983SOL     OW16622   0.141   2.540   4.132 -0.0217  0.1725 -0.3792
 4983SOL    HW116623   0.232   2.563   4.148 -0.0528 -0.5364  0.9653
 4983SOL    HW216624   0.091   2.602   4.186 -0.3833  0.8670 -1.4683
 4984SOL     OW16625   5.942   4.904   7.542  0.5168  0.2495  0.0516
 4984SOL    HW116626   5.891   4.941   7.614 -0.1098  0.3387 -0.4331
 4984SOL    HW216627   5.949   4.811   7.563 -1.6429 -0.1867 -0.9005
 4985SOL     OW16628   2.062   7.664   6.566 -0.2522 -0.1080  0.0181
 4985SOL    HW116629   2.071   7.670   6.661  0.3935  3.0499 -0.1276
 4985SOL    HW216630   1.970   7.687   6.549 -0.7468 -2.0438 -0.0947
 4986SOL     OW16631   3.332   2.286   4.841 -0.1199  0.2380 -0.1464
 4986SOL    HW116632   3.347   2.333   4.758  1.9478  0.8917  0.5247
 4986SOL    HW216633   3.250   2.240   4.828 -1.0524  2.1861 -1.7185
 4987SOL     OW16634   0.636   7.760   1.366 -0.1512 -0.2455  0.5656
 4987SOL    HW116635   0.657   7.813   1.443  0.5932 -1.1487  1.0044
 4987SOL    HW216636   0.588   7.684   1.401 -0.5083 -0.2667  0.0416
 4988SOL     OW16637   4.202   5.238   4.676  0.0195 -0.1137  0.2742
 4988SOL    HW116638   4.176   5.320   4.635  2.5952  0.0932 -1.1721
 4988SOL    HW216639   4.128   5.179   4.664 -1.0878  1.3807 -0.4661
 4989SOL     OW16640   8.170   5.661   8.427  0.1698 -0.4506  0.2672
 4989SOL    HW116641   8.119   5.669   8.507  0.4852 -0.6445  0.4892
 4989SOL    HW216642   8.172   5.750   8.391  1.1143 -0.0910  1.1573
 4990SOL     OW16643   4.627   0.644   3.405  0.2049 -0.0935  0.0036
 4990SOL    HW116644   4.641   0.738   3.420 -0.8592  0.0236  0.3122
 4990SOL    HW216645   4.638   0.633   3.311  0.0449  0.3934 -0.0727
 4991SOL     OW16646   8.117   4.122   9.631 -0.6667  0.8703  0.2269
 4991SOL    HW116647   8.189   4.066   9.660 -2.4588 -0.8833  1.5716
 4991SOL    HW216648   8.121   4.119   9.536  0.6808  0.3843  0.2735
 4992SOL     OW16649   8.743   5.115   1.114  0.4082  0.0349 -0.4250
 4992SOL    HW116650   8.830   5.074   1.105  0.1751 -1.2110  2.0158
 4992SOL    HW216651   8.682   5.041   1.108 -0.4555  0.8235 -1.5087
 4993SOL     OW16652   0.991   6.675   0.625  0.5019 -0.1467 -0.0481
 4993SOL    HW116653   1.046   6.623   0.566  0.6557  0.4070 -0.4026
 4993SOL    HW216654   0.992   6.763   0.587 -0.4098 -0.0647  0.0901
 4994SOL     OW16655   3.546   1.807   7.990 -0.1050 -0.1547  0.2580
 4994SOL    HW116656   3.533   1.861   7.912 -0.5882 -1.9875 -0.9963
 4994SOL    HW216657   3.641   1.804   8.001  0.0011 -0.3892 -0.6430
 4995SOL     OW16658   1.202   7.524   2.276  0.3437  0.1126 -0.2781
 4995SOL    HW116659   1.254   7.502   2.199 -0.5179  3.7325 -2.1178
 4995SOL    HW216660   1.120   7.558   2.241 -0.8208  0.2216  2.3231
 4996SOL     OW16661   5.423   4.891   7.631  0.2174 -0.5826 -0.1928
 4996SOL    HW116662   5.447   4.799   7.621  1.4812 -0.2047 -0.7999
 4996SOL    HW216663   5.500   4.940   7.601 -0.9669  0.6873 -1.3135
 4997SOL     OW16664   8.855   0.592   6.217  0.5811  0.6485 -0.2523
 4997SOL    HW116665   8.857   0.496   6.221  2.2400  0.6885  1.3491
 4997SOL    HW216666   8.762   0.614   6.223 -0.0486 -0.8533 -2.9289
 4998SOL     OW16667   8.448   4.154   7.724  0.2327 -0.3258 -0.4377
 4998SOL    HW116668   8.359   4.128   7.748  0.0554  0.5446 -0.0914
 4998SOL    HW216669   8.500   4.138   7.802  0.3222 -0.5456 -0.5409
 4999SOL     OW16670   3.260   6.938   8.457 -0.1573  0.1277 -0.3928
 4999SOL    HW116671   3.259   6.988   8.538  1.2313 -2.8648  1.6410
 4999SOL    HW216672   3.331   6.977   8.406  1.4880 -0.2377  1.4996
 5000SOL     OW16673   3.454   8.026   7.237 -0.4874 -0.4940  1.0027
 5000SOL    HW116674   3.454   8.100   7.298  0.2854 -1.2916  2.0104
 5000SOL    HW216675   3.371   8.033   7.190  0.1560  1.8017  0.0706
 5001SOL     OW16676   9.281   1.695   5.364 -0.2785 -0.1568  0.2003
 5001SOL    HW116677   9.301   1.770   5.307  0.4282 -0.0620  0.5670
 5001SOL    HW216678   9.356   1.689   5.423  0.1054 -1.7081 -0.3971
 5002SOL     OW16679   7.432   3.641   1.614 -0.2324  0.3740  0.7011
 5002SOL    HW116680   7.480   3.591   1.681  1.5080  1.1690  0.1284
 5002SOL    HW216681   7.378   3.702   1.664  0.6527  0.5981  1.4176
 5003SOL     OW16682   8.381   8.110   2.312  0.1953  0.8137  0.4349
 5003SOL    HW116683   8.436   8.093   2.236 -1.3722  0.6214 -0.6855
 5003SOL    HW216684   8.405   8.041   2.375  0.8343  0.4065 -0.2401
 5004SOL     OW16685   5.884   1.757   4.089  0.5835  0.1349 -0.5436
 5004SOL    HW116686   5.889   1.764   3.993  0.2852 -2.2734 -0.7989
 5004SOL    HW216687   5.804   1.707   4.105  0.7893  0.2420  0.9691
 5005SOL     OW16688   4.612   4.686   0.948  0.4145  0.6412 -0.0661
 5005SOL    HW116689   4.556   4.760   0.923  0.0434 -0.1028 -1.5167
 5005SOL    HW216690   4.652   4.714   1.030 -0.6670  1.9513  0.0603
 5006SOL     OW16691   9.061   4.625   7.259  0.3428 -0.3541 -0.1992
 5006SOL    HW116692   9.125   4.693   7.237  1.0128 -1.3900 -1.6589
 5006SOL    HW216693   9.115   4.550   7.285 -0.3236 -0.7680 -0.0046
 5007SOL     OW16694   6.522   8.510   8.260 -0.2470  0.3429  0.0548
 5007SOL    HW116695   6.601   8.535   8.308 -0.9923  1.1766  0.8853
 5007SOL    HW216696   6.525   8.562   8.179 -0.4597  1.1555  0.5619
 5008SOL     OW16697   1.640   0.934   9.508 -0.1603  0.4143 -0.6901
 5008SOL    HW116698   1.657   0.863   9.570  1.6719  0.7645 -0.7390
 5008SOL    HW216699   1.681   1.011   9.547 -0.4738  1.0305 -1.5360
 5009SOL     OW16700   7.715   3.989   4.427  0.3021 -0.0596 -0.3758
 5009SOL    HW116701   7.691   3.956   4.513  1.4425  0.1782  0.0515
 5009SOL    HW216702   7.703   4.084   4.434 -0.6631 -0.1349 -0.8417
 5010SOL     OW16703   3.854   6.940   2.432 -0.0381  0.2589 -0.3575
 5010SOL    HW116704   3.804   7.004   2.380  0.8878  1.6412  0.4090
 5010SOL    HW216705   3.945   6.961   2.414  0.2865 -0.2089  0.6851
 5011SOL     OW16706   3.861   9.390   9.477 -0.0736 -0.0396  0.5170
 5011SOL    HW116707   3.912   9.456   9.523 -1.9572  1.5849  0.4202
 5011SOL    HW216708   3.853   9.424   9.388 -1.1059 -0.3659  0.4732
 5012SOL     OW16709   4.731   2.576   5.434 -0.5062 -0.1707  0.3166
 5012SOL    HW116710   4.792   2.527   5.380 -0.4211 -0.8273  0.9814
 5012SOL    HW216711   4.766   2.665   5.437  1.9600 -1.0657  2.8084
 5013SOL     OW16712   8.403   3.074   3.914  0.5088  0.4132 -0.1174
 5013SOL    HW116713   8.369   3.143   3.971 -0.8914  0.6817 -1.2079
 5013SOL    HW216714   8.421   3.001   3.973  1.1050  1.3766  0.9328
 5014SOL     OW16715   8.055   3.312   5.104  0.2531 -0.3735  0.9882
 5014SOL    HW116716   8.126   3.318   5.039  2.1401 -1.1626  2.8664
 5014SOL    HW216717   8.032   3.403   5.122 -1.2372 -0.1333 -1.6532
 5015SOL     OW16718   8.566   5.875   8.432  0.1618  0.2885 -0.1125
 5015SOL    HW116719   8.574   5.899   8.524 -0.4520  0.5367 -0.1180
 5015SOL    HW216720   8.642   5.820   8.415 -0.1051 -0.3867  0.7449
 5016SOL     OW16721   7.293   0.420   8.265 -0.4375  0.0094  0.2210
 5016SOL    HW116722   7.357   0.376   8.320  0.5704 -0.5952 -1.3719
 5016SOL    HW216723   7.324   0.510   8.259 -0.6958  0.1405  0.8502
 5017SOL     OW16724   1.455   6.169   2.532  0.0651  0.4754 -0.3291
 5017SOL    HW116725   1.461   6.260   2.501 -2.1829  0.4434 -1.0422
 5017SOL    HW216726   1.480   6.116   2.456  2.9871  0.4097  0.5386
 5018SOL     OW16727   0.588   0.438   2.805  0.9079  0.5947  0.2895
 5018SOL    HW116728   0.656   0.447   2.872  1.2855 -1.0808  0.1849
 5018SOL    HW216729   0.564   0.527   2.783  3.9637  1.3123 -0.5499
 5019SOL     OW16730   6.535   0.850   6.753  0.8282  0.5427  0.2881
 5019SOL    HW116731   6.535   0.943   6.776 -0.0447  0.9381 -1.1978
 5019SOL    HW216732   6.541   0.849   6.657 -1.0282 -0.8650  0.1327
 5020SOL     OW16733   5.136   5.908   2.311 -0.1775 -0.6171 -0.1822
 5020SOL    HW116734   5.157   5.963   2.236  2.6849 -1.3372 -0.0472
 5020SOL    HW216735   5.117   5.822   2.274 -1.4281 -0.3412 -0.2077
 5021SOL     OW16736   0.508   4.847   4.750 -0.2287  0.2612 -0.2959
 5021SOL    HW116737   0.558   4.775   4.787  0.3430  0.8187  0.0274
 5021SOL    HW216738   0.568   4.888   4.687 -0.4356  0.6640 -0.2313
 5022SOL     OW16739   5.186   6.978   1.705 -0.4603  0.4383 -0.0407
 5022SOL    HW116740   5.235   6.961   1.625  1.6302 -2.2111  1.6195
 5022SOL    HW216741   5.208   7.069   1.728  0.1116  0.7392 -1.6459
 5023SOL     OW16742   0.988   8.117   0.860  0.1365 -0.4266 -0.2279
 5023SOL    HW116743   1.021   8.087   0.945  0.7921 -0.7319 -0.5839
 5023SOL    HW216744   0.913   8.060   0.843 -0.4205  0.0868  0.4567
 5024SOL     OW16745   6.948   6.277   2.249 -0.1895 -0.8217 -0.3823
 5024SOL    HW116746   7.031   6.236   2.222  0.9418  1.2510 -0.2205
 5024SOL    HW216747   6.973   6.337   2.319 -2.2867 -2.1592  1.6456
 5025SOL     OW16748   5.411   1.305   3.856  0.4487 -0.4990  0.0622
 5025SOL    HW116749   5.424   1.379   3.915 -1.9387  0.1995 -0.2071
 5025SOL    HW216750   5.421   1.342   3.768  3.3426 -1.4042 -0.0846
 5026SOL     OW16751   7.051   3.380   4.539  0.2007 -0.2145 -0.3985
 5026SOL    HW116752   7.101   3.331   4.604  0.5594 -2.5463 -2.3227
 5026SOL    HW216753   7.106   3.457   4.520  1.2475 -0.7806  0.2396
 5027SOL     OW16754   4.603   5.763   0.238 -0.0154 -0.0888  0.2675
 5027SOL    HW116755   4.693   5.742   0.215  0.2310 -0.5867  1.5542
 5027SOL    HW216756   4.591   5.723   0.325 -0.9422  1.3732  0.8545
 5028SOL     OW16757   5.050   8.648   5.544 -0.5478  0.1097 -0.3286
 5028SOL    HW116758   5.020   8.624   5.632  0.5218  0.5613  0.1771
 5028SOL    HW216759   5.093   8.569   5.511  0.5607  0.4641  0.2451
 5029SOL     OW16760   7.414   6.122   7.194 -0.1232  1.4528  0.2071
 5029SOL    HW116761   7.355   6.079   7.256 -0.4111 -0.2127 -1.1480
 5029SOL    HW216762   7.358   6.144   7.120  0.7498  0.7586 -0.6803
 5030SOL     OW16763   1.353   6.799   5.749 -0.1919  0.1906  0.0744
 5030SOL    HW116764   1.298   6.792   5.827 -2.1788  1.4924 -1.1042
 5030SOL    HW216765   1.408   6.875   5.766  0.3824 -0.3667  0.7558
 5031SOL     OW16766   7.208   0.381   4.158  0.0482  0.2252  0.7054
 5031SOL    HW116767   7.134   0.320   4.148  0.3542 -0.6210  3.0022
 5031SOL    HW216768   7.256   0.348   4.234  3.1219  0.4650 -0.9567
 5032SOL     OW16769   2.784   3.567   8.334 -0.2719 -0.1731  0.5390
 5032SOL    HW116770   2.869   3.604   8.358  0.9774 -2.6374  0.2722
 5032SOL    HW216771   2.760   3.512   8.409 -0.0276 -1.9991 -0.6642
 5033SOL     OW16772   7.015   3.837   9.427  0.2673  0.0793 -0.8862
 5033SOL    HW116773   6.943   3.814   9.486 -0.0721 -1.0531 -1.7137
 5033SOL    HW216774   7.094   3.827   9.481 -0.1915  1.8808  0.1975
 5034SOL     OW16775   8.131   4.367   1.624 -0.0988 -0.3555  0.1234
 5034SOL    HW116776   8.205   4.358   1.564  0.9529 -1.4565  1.5271
 5034SOL    HW216777   8.156   4.317   1.701 -2.0667 -0.2512  0.8915
 5035SOL     OW16778   6.043   7.038   0.725  0.4521 -0.1917 -0.1131
 5035SOL    HW116779   6.092   7.111   0.763 -0.2218  0.5547 -0.6450
 5035SOL    HW216780   6.077   7.030   0.636  0.0695 -0.0983 -0.2690
 5036SOL     OW16781   0.890   9.273   0.239  0.0671  0.3086 -0.3355
 5036SOL    HW116782   0.798   9.254   0.258 -0.0158  1.5643  0.7070
 5036SOL    HW216783   0.939   9.231   0.309  0.0855  1.5579  0.4310
 5037SOL     OW16784   3.268   2.908   4.615  0.3184  0.6030 -0.7778
 5037SOL    HW116785   3.301   2.830   4.570  1.0462  0.3770  0.1099
 5037SOL    HW216786   3.272   2.978   4.549  2.4929  0.5538 -0.7537
 5038SOL     OW16787   8.526   0.521   0.627 -0.2747 -0.7471  0.3181
 5038SOL    HW116788   8.507   0.429   0.610  0.3495 -1.2800  2.2971
 5038SOL    HW216789   8.550   0.524   0.720  0.6677  1.2584  0.0572
 5039SOL     OW16790   5.416   1.893   7.395  0.2783  0.3406 -0.1078
 5039SOL    HW116791   5.364   1.916   7.318  2.2927 -0.8222 -1.9378
 5039SOL    HW216792   5.447   1.976   7.430 -0.4841  0.8777 -0.6873
 5040SOL     OW16793   5.545   0.773   8.699  0.5943 -0.2711  0.2581
 5040SOL    HW116794   5.469   0.817   8.661  1.6214  0.5931 -0.8771
 5040SOL    HW216795   5.551   0.690   8.652  1.7577  0.7206 -1.4467
 5041SOL     OW16796   1.862   5.043   9.415 -0.3602  0.1943  0.0387
 5041SOL    HW116797   1.932   4.987   9.447  0.2596  1.5654  1.1651
 5041SOL    HW216798   1.782   5.000   9.443  0.1307  0.3458  1.7458
 5042SOL     OW16799   8.306   4.715   1.159  0.1526  0.7456  0.2164
 5042SOL    HW116800   8.219   4.690   1.189 -0.2074  0.7336 -0.8192
 5042SOL    HW216801   8.292   4.797   1.111  0.7672  0.9237  0.3314
 5043SOL     OW16802   9.247   8.473   1.844 -0.3997 -0.2548  0.5870
 5043SOL    HW116803   9.287   8.439   1.925  1.7483 -1.1865 -0.7485
 5043SOL    HW216804   9.214   8.395   1.800 -1.0284  0.1768  0.2821
 5044SOL     OW16805   8.402   0.714   5.121 -0.5001 -0.6290 -0.4778
 5044SOL    HW116806   8.455   0.730   5.043  0.3098 -0.8810 -0.0061
 5044SOL    HW216807   8.449   0.645   5.167 -1.7557 -1.5160 -0.4871
 5045SOL     OW16808   3.424   5.709   9.286 -0.1546  0.7020  0.6277
 5045SOL    HW116809   3.489   5.780   9.287 -0.0004  0.5715  1.6661
 5045SOL    HW216810   3.470   5.635   9.325  0.0149 -0.3059 -1.3718
 5046SOL     OW16811   8.773   3.622   1.189  0.0524 -0.4817 -0.0296
 5046SOL    HW116812   8.736   3.627   1.101  0.3241  1.9201 -0.0730
 5046SOL    HW216813   8.849   3.681   1.187  0.6142 -1.0760  1.5804
 5047SOL     OW16814   2.609   2.415   2.716 -0.0615  0.1758 -0.0865
 5047SOL    HW116815   2.694   2.423   2.674 -0.2865 -0.1268 -0.6063
 5047SOL    HW216816   2.617   2.466   2.796  1.3499 -1.6194  1.0068
 5048SOL     OW16817   4.199   1.513   1.502 -0.2828  0.1817 -0.3116
 5048SOL    HW116818   4.167   1.435   1.458  2.2399 -0.0296 -1.9967
 5048SOL    HW216819   4.287   1.489   1.533  0.1897  2.0567 -0.0501
 5049SOL     OW16820   4.093   7.624   9.613 -0.1912  0.1317 -0.1974
 5049SOL    HW116821   4.130   7.675   9.541 -1.2820  0.5488 -0.4693
 5049SOL    HW216822   4.102   7.681   9.689 -0.5482  0.3520 -0.3205
 5050SOL     OW16823   6.010   1.356   1.377 -0.4012 -0.8629  0.5212
 5050SOL    HW116824   6.009   1.451   1.391  1.0661 -0.9812  1.6191
 5050SOL    HW216825   5.919   1.330   1.384 -0.7525  0.3764  0.8873
 5051SOL     OW16826   0.521   5.621   7.611 -0.8035 -0.1331  0.4515
 5051SOL    HW116827   0.497   5.541   7.659  2.7793 -1.6911 -0.0244
 5051SOL    HW216828   0.608   5.643   7.644 -0.4760  1.8873 -1.5513
 5052SOL     OW16829   0.132   6.306   2.466 -0.7045 -0.1763  1.0590
 5052SOL    HW116830   0.223   6.322   2.443 -0.2013 -0.6663  2.5555
 5052SOL    HW216831   0.083   6.377   2.425  0.1699 -0.5945 -0.8054
 5053SOL     OW16832   1.587   2.075   5.486  0.4149 -0.8495  0.2962
 5053SOL    HW116833   1.511   2.044   5.436  1.4081 -3.5453  0.2833
 5053SOL    HW216834   1.594   2.012   5.558  2.4868 -0.5181  0.4228
 5054SOL     OW16835   2.654   0.821   6.749  0.1881 -0.1077 -0.7339
 5054SOL    HW116836   2.730   0.837   6.692  0.3371  0.3934 -0.4036
 5054SOL    HW216837   2.673   0.737   6.792  0.4497 -0.0938 -0.8226
 5055SOL     OW16838   1.754   1.714   7.488  0.0314  0.1935  0.4136
 5055SOL    HW116839   1.702   1.777   7.537  0.1893  1.0597 -0.5002
 5055SOL    HW216840   1.722   1.721   7.398  2.1588  1.2843 -0.3286
 5056SOL     OW16841   7.537   6.136   6.049 -0.1913 -0.2203 -0.0696
 5056SOL    HW116842   7.496   6.057   6.084 -0.9791  0.7250  1.2222
 5056SOL    HW216843   7.529   6.201   6.119  0.8118  0.8938 -0.9374
 5057SOL     OW16844   6.954   8.732   5.379 -0.0481  0.1626 -0.6933
 5057SOL    HW116845   6.922   8.652   5.337 -0.6187 -0.0237  0.0799
 5057SOL    HW216846   6.890   8.751   5.447 -0.1609  1.5382 -1.1470
 5058SOL     OW16847   6.504   0.897   2.070 -0.0443  0.5663 -0.0753
 5058SOL    HW116848   6.501   0.810   2.030  0.0885  0.8991 -0.8202
 5058SOL    HW216849   6.559   0.885   2.148 -0.5751 -0.1552  0.2061
 5059SOL     OW16850   6.961   6.771   9.494  0.3632 -0.0968  0.3689
 5059SOL    HW116851   6.903   6.712   9.542  0.5175 -0.2282  0.3923
 5059SOL    HW216852   7.046   6.762   9.536  0.5010 -0.2173  0.0663
 5060SOL     OW16853   0.259   5.141   8.844 -0.3703  0.2955 -0.0501
 5060SOL    HW116854   0.311   5.064   8.822 -0.6770 -0.2722  1.1547
 5060SOL    HW216855   0.292   5.209   8.785  0.8892 -0.3686 -0.1587
 5061SOL     OW16856   8.223   7.881   1.247  0.5451 -0.1873 -0.3251
 5061SOL    HW116857   8.317   7.899   1.256  0.1840  0.9423  1.9544
 5061SOL    HW216858   8.218   7.811   1.183  2.7682  1.4195 -2.4395
 5062SOL     OW16859   6.143   3.415   6.309 -0.2090 -0.2246 -0.2369
 5062SOL    HW116860   6.052   3.443   6.299  0.1265  0.8670 -0.3940
 5062SOL    HW216861   6.172   3.456   6.390  0.0845 -0.7569 -0.0669
 5063SOL     OW16862   6.978   0.353   7.731 -0.3080  0.4882 -0.0578
 5063SOL    HW116863   6.914   0.424   7.737 -1.0476 -0.2914  2.5279
 5063SOL    HW216864   7.034   0.364   7.807  0.6094 -0.7362 -0.5247
 5064SOL     OW16865   0.907   5.274   1.085 -0.1361  0.0115 -0.6710
 5064SOL    HW116866   0.931   5.211   1.153 -1.7322 -0.1003 -0.1738
 5064SOL    HW216867   0.873   5.220   1.013 -3.9680  0.2434  0.7240
 5065SOL     OW16868   0.690   6.353   1.634 -0.0093  0.6675 -0.2533
 5065SOL    HW116869   0.754   6.420   1.611  2.4362 -1.6957 -0.7359
 5065SOL    HW216870   0.680   6.360   1.729  0.5831  1.3621 -0.2380
 5066SOL     OW16871   6.987   4.682   5.289 -0.6212  0.4013  0.0856
 5066SOL    HW116872   6.987   4.586   5.289  1.5722  0.3728 -0.1612
 5066SOL    HW216873   6.981   4.705   5.382  1.7986 -0.0556  0.4091
 5067SOL     OW16874   6.335   7.358   2.942 -0.0340  0.7874 -0.4562
 5067SOL    HW116875   6.311   7.267   2.957 -0.0369  0.6030 -1.4702
 5067SOL    HW216876   6.256   7.408   2.961  0.4903  0.8126  1.9960
 5068SOL     OW16877   4.576   7.903   8.708 -0.3671  0.3513 -0.2252
 5068SOL    HW116878   4.636   7.843   8.663 -0.6075  0.1131 -0.2325
 5068SOL    HW216879   4.624   7.930   8.786 -1.2548 -1.9624  1.2331
 5069SOL     OW16880   5.952   1.859   5.540  0.3115 -0.3314  0.2025
 5069SOL    HW116881   5.857   1.852   5.534  0.4266 -2.2054 -0.0535
 5069SOL    HW216882   5.967   1.941   5.586 -1.4169  0.1517 -0.0165
 5070SOL     OW16883   6.172   8.559   8.979 -0.4275 -0.4485  0.0624
 5070SOL    HW116884   6.253   8.569   8.929  0.4075  0.2216  1.4916
 5070SOL    HW216885   6.161   8.642   9.025 -1.7496 -0.6659  0.1897
 5071SOL     OW16886   5.066   7.375   6.420 -0.0264 -0.0208  0.2347
 5071SOL    HW116887   5.159   7.394   6.409 -0.3121  0.5802 -1.3944
 5071SOL    HW216888   5.064   7.288   6.459  1.2396 -1.3969 -2.4648
 5072SOL     OW16889   0.601   3.303   0.192  0.3153  0.0798 -0.2955
 5072SOL    HW116890   0.519   3.256   0.176  0.9968 -0.9752 -0.8103
 5072SOL    HW216891   0.644   3.304   0.107  1.3866 -0.4734  0.2279
 5073SOL     OW16892   5.334   3.323   1.395  0.2249  0.1330  0.4028
 5073SOL    HW116893   5.239   3.322   1.405  0.1634 -0.1084 -0.2183
 5073SOL    HW216894   5.349   3.373   1.315  0.7341  2.2755  1.7553
 5074SOL     OW16895   2.278   6.930   8.325 -0.1697 -0.6418 -0.2594
 5074SOL    HW116896   2.367   6.946   8.292 -0.5144  2.3090 -0.0327
 5074SOL    HW216897   2.224   6.995   8.279 -1.2615  1.3079  3.4019
 5075SOL     OW16898   7.934   7.634   7.253  0.0906 -0.0857 -0.1169
 5075SOL    HW116899   7.950   7.679   7.170 -0.8110  0.9053  0.2069
 5075SOL    HW216900   7.882   7.557   7.229 -1.4544  0.9756 -0.3769
 5076SOL     OW16901   8.176   0.432   0.146 -0.1080 -0.2752 -0.3199
 5076SOL    HW116902   8.086   0.413   0.172 -0.2917  0.9011 -0.0627
 5076SOL    HW216903   8.180   0.527   0.139  1.0959 -0.3160 -0.4148
 5077SOL     OW16904   0.229   2.803   8.195 -0.6449 -0.1430  0.1398
 5077SOL    HW116905   0.208   2.888   8.234 -2.6271 -0.2440 -0.5636
 5077SOL    HW216906   0.213   2.740   8.265  1.9103  0.0847  1.0101
 5078SOL     OW16907   0.801   4.292   1.248 -0.1098  0.2964 -0.3743
 5078SOL    HW116908   0.712   4.324   1.234 -0.6437 -0.4266  1.1058
 5078SOL    HW216909   0.800   4.259   1.338  1.9579  1.2295  0.0411
 5079SOL     OW16910   9.261   2.712   1.526 -0.1087  1.0003 -0.7551
 5079SOL    HW116911   9.199   2.664   1.472 -0.2027  1.5341 -1.1417
 5079SOL    HW216912   9.221   2.715   1.613  0.9765 -1.6422 -0.0656
 5080SOL     OW16913   9.509   3.987   4.468 -0.2814  0.6091  0.4946
 5080SOL    HW116914   9.469   4.039   4.538 -0.2680  1.9849 -0.4668
 5080SOL    HW216915   9.456   4.006   4.391  0.1105 -0.3409 -0.0217
 5081SOL     OW16916   4.571   6.770   7.737 -0.3713  0.4570  0.1583
 5081SOL    HW116917   4.518   6.823   7.677 -0.3542  0.3344  0.0343
 5081SOL    HW216918   4.511   6.704   7.770 -0.9208  1.7420  1.8474
 5082SOL     OW16919   3.233   6.574   2.874  0.3007  0.6051  0.0891
 5082SOL    HW116920   3.262   6.532   2.955 -0.6532  0.3817  0.3306
 5082SOL    HW216921   3.278   6.526   2.804  0.9410  0.6442  0.4626
 5083SOL     OW16922   1.708   4.048   6.781 -0.1893  0.3633 -0.2353
 5083SOL    HW116923   1.619   4.056   6.747 -1.3676 -0.9165  2.2782
 5083SOL    HW216924   1.709   3.963   6.825  3.1129 -0.8825 -2.3589
 5084SOL     OW16925   8.527   2.127   8.974  0.0852  0.4913 -0.4201
 5084SOL    HW116926   8.456   2.120   9.038  0.3379  2.5798  0.1616
 5084SOL    HW216927   8.543   2.037   8.945 -1.1434 -0.3017  1.2454
 5085SOL     OW16928   1.109   3.196   2.441 -0.3201  0.0824 -0.3520
 5085SOL    HW116929   1.061   3.269   2.481  1.3644  0.7769  0.5170
 5085SOL    HW216930   1.156   3.235   2.368  1.3674  0.1419  0.7085
 5086SOL     OW16931   9.054   4.240   3.935  0.1553 -0.3438  0.0123
 5086SOL    HW116932   8.990   4.172   3.911 -0.5095  0.1689  0.3104
 5086SOL    HW216933   9.011   4.289   4.005  0.3240  0.8417 -0.6982
 5087SOL     OW16934   8.596   8.412   9.657  0.4312  0.6785  0.0805
 5087SOL    HW116935   8.610   8.439   9.566 -0.1720  1.1724  0.1249
 5087SOL    HW216936   8.555   8.488   9.699 -2.1573 -0.5544  0.0026
 5088SOL     OW16937   7.074   3.508   5.311 -0.1989  0.3515  0.3110
 5088SOL    HW116938   7.163   3.507   5.276 -0.4765 -1.6607 -0.4699
 5088SOL    HW216939   7.031   3.433   5.270 -2.3077  1.3478  0.5757
 5089SOL     OW16940   1.119   3.803   2.597  0.0363  0.1844 -0.0318
 5089SOL    HW116941   1.063   3.878   2.577 -1.6848 -1.2227 -0.7282
 5089SOL    HW216942   1.064   3.745   2.649  1.7880 -0.0263  1.7257
 5090SOL     OW16943   6.025   5.143   2.651  0.1804 -0.2120 -0.5284
 5090SOL    HW116944   6.009   5.162   2.743 -1.4222  1.3762 -1.0809
 5090SOL    HW216945   6.118   5.118   2.648  0.2369 -0.4540  1.5009
 5091SOL     OW16946   5.670   3.134   8.638  0.1675  0.2928 -0.4672
 5091SOL    HW116947   5.642   3.059   8.691 -0.0191 -0.8986 -2.1453
 5091SOL    HW216948   5.713   3.095   8.562 -0.1871  1.8741 -1.5433
 5092SOL     OW16949   0.694   3.232   7.140  0.5428 -0.2441  0.2063
 5092SOL    HW116950   0.769   3.178   7.165  0.0821 -2.1114 -2.0704
 5092SOL    HW216951   0.732   3.316   7.114  1.8064 -0.9183 -0.2268
 5093SOL     OW16952   0.512   0.741   5.281 -0.3910  0.1210  0.2166
 5093SOL    HW116953   0.603   0.714   5.293 -0.3479  0.3462  0.3965
 5093SOL    HW216954   0.468   0.709   5.360 -0.6473 -0.7624 -0.2652
 5094SOL     OW16955   8.778   3.118   7.572  0.3188  0.9441  0.1805
 5094SOL    HW116956   8.744   3.072   7.649 -1.6516  0.4563 -0.9102
 5094SOL    HW216957   8.822   3.049   7.521  1.0159  1.1279  0.5268
 5095SOL     OW16958   5.413   1.151   6.517  0.0055 -0.4406 -0.1500
 5095SOL    HW116959   5.477   1.154   6.589 -0.2696 -0.4838  0.0978
 5095SOL    HW216960   5.412   1.059   6.490 -0.6788 -0.6388  0.5099
 5096SOL     OW16961   2.620   7.329   0.536  0.2068 -0.3343  0.3065
 5096SOL    HW116962   2.594   7.321   0.445  0.8602 -1.0005  0.1809
 5096SOL    HW216963   2.649   7.242   0.562 -1.1985 -0.4782  1.5345
 5097SOL     OW16964   6.134   5.492   6.033  0.3288 -0.3033  0.2743
 5097SOL    HW116965   6.096   5.579   6.045 -1.0587 -1.0114  1.2815
 5097SOL    HW216966   6.228   5.509   6.023 -0.1457  1.5136 -2.3017
 5098SOL     OW16967   0.668   2.443   2.965 -0.4016  0.0593  0.1848
 5098SOL    HW116968   0.601   2.480   3.022 -1.3116  0.6717 -1.2258
 5098SOL    HW216969   0.631   2.359   2.936 -0.2060  0.0261  0.0309
 5099SOL     OW16970   2.648   1.294   3.238 -0.4940 -0.1962 -0.3578
 5099SOL    HW116971   2.689   1.239   3.304 -0.1408 -0.6360 -0.9450
 5099SOL    HW216972   2.645   1.381   3.279  0.4638 -0.2845 -0.0713
 5100SOL     OW16973   7.668   3.734   4.252  0.1034  0.4800 -0.0198
 5100SOL    HW116974   7.635   3.822   4.268  1.0631  1.1160 -1.2676
 5100SOL    HW216975   7.737   3.722   4.317 -0.3573  0.4515  0.4663
 5101SOL     OW16976   7.998   0.196   3.626 -0.4952 -0.0757  0.3943
 5101SOL    HW116977   7.974   0.253   3.699  0.0302  0.4492  0.1702
 5101SOL    HW216978   7.998   0.254   3.549  0.2121 -0.3348  0.1893
 5102SOL     OW16979   7.953   0.187   5.405  0.3126  0.0531  0.0077
 5102SOL    HW116980   7.935   0.105   5.451 -0.8237  0.7776  0.9093
 5102SOL    HW216981   8.025   0.227   5.455  0.2767  0.0186  0.0875
 5103SOL     OW16982   5.990   1.353   6.197  0.7035 -0.0322  0.1082
 5103SOL    HW116983   5.923   1.293   6.165  0.3681  0.0356  0.6719
 5103SOL    HW216984   6.010   1.409   6.122 -0.1777  0.2259  0.0520
 5104SOL     OW16985   7.873   0.210   9.508 -0.2448 -0.0164  0.4726
 5104SOL    HW116986   7.940   0.176   9.567 -0.3073 -0.7388  0.1445
 5104SOL    HW216987   7.809   0.139   9.502 -0.0776 -0.0877 -0.7148
 5105SOL     OW16988   2.903   6.103   9.474 -0.0971 -0.4863 -0.9241
 5105SOL    HW116989   2.935   6.186   9.438 -0.5722 -0.8233 -2.1489
 5105SOL    HW216990   2.809   6.117   9.486 -0.3420 -1.1315 -1.9849
 5106SOL     OW16991   8.289   0.022   5.926  0.0317  0.3425  0.4914
 5106SOL    HW116992   8.299   0.117   5.926  0.8735  0.2822 -0.7205
 5106SOL    HW216993   8.338  -0.008   6.002  2.0809  0.7168 -0.5955
 5107SOL     OW16994   1.302   3.500   6.245 -0.3635  0.5503  0.0772
 5107SOL    HW116995   1.250   3.424   6.273  0.1434  0.6531  1.3659
 5107SOL    HW216996   1.311   3.553   6.324 -0.9080  2.0856 -0.8613
 5108SOL     OW16997   4.417   4.909   1.908  0.0534 -0.6787  0.3474
 5108SOL    HW116998   4.362   4.868   1.974 -1.3691 -0.0059 -0.3637
 5108SOL    HW216999   4.376   4.994   1.892  1.2353 -0.1997 -0.3154
 5109SOL     OW17000   8.480   7.422   0.377  0.4091 -0.3742  0.0846
 5109SOL    HW117001   8.531   7.378   0.309  3.9178 -0.6906  2.6375
 5109SOL    HW217002   8.501   7.515   0.367  0.2794 -0.3272  0.2435
 5110SOL     OW17003   7.384   7.979   7.205 -0.5518  0.4540 -0.5293
 5110SOL    HW117004   7.400   7.888   7.178  0.9897  0.9110 -1.3092
 5110SOL    HW217005   7.370   8.026   7.123  2.2775  1.5264 -0.5293
 5111SOL     OW17006   0.410   4.568   8.911  0.1614  0.3887 -0.5050
 5111SOL    HW117007   0.460   4.645   8.941 -0.2828 -0.0429  1.4551
 5111SOL    HW217008   0.321   4.601   8.898  0.2535  0.4753 -0.9312
 5112SOL     OW17009   0.228   6.719   9.537 -0.2575  0.1838  0.1211
 5112SOL    HW117010   0.209   6.710   9.443  1.7888  0.7963 -0.4195
 5112SOL    HW217011   0.157   6.673   9.581 -0.2905 -1.7920 -1.8101
 5113SOL     OW17012   7.927   7.611   7.704  0.1522 -0.1099 -0.6063
 5113SOL    HW117013   7.898   7.524   7.678 -0.2682 -0.3404  0.5752
 5113SOL    HW217014   7.932   7.660   7.622  1.4545 -1.5350 -1.4238
 5114SOL     OW17015   6.215   5.412   5.734  0.2939  0.0703 -0.6670
 5114SOL    HW117016   6.136   5.389   5.782  1.6279 -1.8194  0.7703
 5114SOL    HW217017   6.282   5.422   5.801  1.5748  0.2910 -1.9275
 5115SOL     OW17018   0.986   2.500   4.614 -0.3043 -0.0332  0.8235
 5115SOL    HW117019   1.073   2.468   4.593  0.4039  2.2351 -0.0631
 5115SOL    HW217020   0.947   2.522   4.529 -1.1348  0.3929  1.3024
 5116SOL     OW17021   8.849   5.526   4.192 -0.0209 -0.1075  0.2959
 5116SOL    HW117022   8.908   5.599   4.211 -1.3350  1.3622 -1.0145
 5116SOL    HW217023   8.907   5.454   4.168  1.3248  0.3326  2.0325
 5117SOL     OW17024   7.295   7.067   0.826 -0.6661 -0.4702 -0.5664
 5117SOL    HW117025   7.332   7.089   0.741  0.8988  0.1463  0.2414
 5117SOL    HW217026   7.301   6.971   0.831  2.0456 -0.3581  0.0086
 5118SOL     OW17027   8.875   5.962   2.168  1.0125  0.0600  0.4372
 5118SOL    HW117028   8.846   5.918   2.088 -0.5406  0.0688  0.9513
 5118SOL    HW217029   8.907   5.891   2.224  2.0149  0.0428 -0.1465
 5119SOL     OW17030   4.352   5.536   4.823  0.3431 -0.4890  0.0773
 5119SOL    HW117031   4.433   5.587   4.829  0.2962 -0.4837  0.7798
 5119SOL    HW217032   4.299   5.583   4.758  0.1344  0.6026  0.9957
 5120SOL     OW17033   9.437   7.743   2.672 -0.3640  0.0930 -0.0967
 5120SOL    HW117034   9.518   7.692   2.681 -0.1320  0.6517  1.3307
 5120SOL    HW217035   9.375   7.683   2.630  0.7080 -0.4200 -1.0164
 5121SOL     OW17036   1.597   3.697   0.175 -0.4145 -0.4173  0.4410
 5121SOL    HW117037   1.599   3.789   0.152  0.7020 -0.1737  1.4200
 5121SOL    HW217038   1.507   3.683   0.206 -0.7037  0.2338 -0.0723
 5122SOL     OW17039   9.667   4.962   7.973 -0.0663  0.1555 -0.2129
 5122SOL    HW117040   9.736   5.028   7.977  0.6326 -0.6205  1.2038
 5122SOL    HW217041   9.678   4.920   7.887  0.3606  0.9386 -0.5417
 5123SOL     OW17042   5.022   8.604   1.484  0.2939 -0.3937 -0.1404
 5123SOL    HW117043   4.980   8.564   1.561 -0.2811 -0.4526 -0.4806
 5123SOL    HW217044   5.069   8.532   1.442  0.7474 -0.3272  0.2395
 5124SOL     OW17045   7.548   2.698   0.523  0.1215 -0.0965  0.1021
 5124SOL    HW117046   7.484   2.769   0.530 -3.3880 -3.0314  0.6832
 5124SOL    HW217047   7.535   2.663   0.435  2.3021  0.2992 -0.4378
 5125SOL     OW17048   6.240   6.074   5.589 -0.8906  0.1569  0.1910
 5125SOL    HW117049   6.231   6.020   5.667 -0.1486 -1.2551 -0.6711
 5125SOL    HW217050   6.334   6.077   5.571 -1.1551 -1.6959 -2.0494
 5126SOL     OW17051   1.426   2.506   4.418 -0.0625 -0.2365 -0.2718
 5126SOL    HW117052   1.355   2.478   4.360 -1.3078  0.4341  0.8934
 5126SOL    HW217053   1.502   2.516   4.359 -0.2135 -3.3831 -1.1428
 5127SOL     OW17054   5.085   0.316   9.393  0.2520  0.1667 -0.0292
 5127SOL    HW117055   5.146   0.253   9.355  1.7354 -0.2020  2.7051
 5127SOL    HW217056   4.999   0.285   9.366  1.1402 -0.3895 -2.4570
 5128SOL     OW17057   8.889   9.253   7.163 -0.1112 -0.0205 -0.2365
 5128SOL    HW117058   8.958   9.271   7.227 -1.0160 -0.6946  0.9691
 5128SOL    HW217059   8.934   9.251   7.079  1.7054 -2.4454  0.6963
 5129SOL     OW17060   8.945   0.108   8.621  0.1893  0.6001  0.8036
 5129SOL    HW117061   8.968   0.201   8.612 -1.5081  1.0413  0.6963
 5129SOL    HW217062   8.911   0.101   8.710 -1.3698  0.4954  0.2251
 5130SOL     OW17063   6.559   0.635   1.185 -0.3737 -0.1082 -0.4699
 5130SOL    HW117064   6.539   0.545   1.158  2.6273 -0.8036 -0.6714
 5130SOL    HW217065   6.618   0.625   1.259  1.5385  1.6166 -1.6721
 5131SOL     OW17066   9.197   6.372   2.952 -0.3347  0.5882  0.3440
 5131SOL    HW117067   9.272   6.432   2.960 -0.7222  1.1465 -0.1927
 5131SOL    HW217068   9.120   6.428   2.958 -0.7294  0.0048  0.9841
 5132SOL     OW17069   7.961   3.622   8.683 -0.5057 -0.0436  0.1418
 5132SOL    HW117070   7.896   3.614   8.752 -0.9741  0.6599 -0.2091
 5132SOL    HW217071   7.955   3.714   8.655  0.3200 -0.0843 -0.2025
 5133SOL     OW17072   7.127   0.804   1.001 -0.3293  0.1558  0.3336
 5133SOL    HW117073   7.168   0.818   0.916 -2.0186  0.2514 -0.4845
 5133SOL    HW217074   7.105   0.892   1.032 -0.0085  0.0976  0.7483
 5134SOL     OW17075   2.072   9.136   4.148 -0.1353  0.2050  0.3894
 5134SOL    HW117076   2.079   9.041   4.138 -0.5180  0.1349  0.7796
 5134SOL    HW217077   1.978   9.153   4.143  0.0184  0.7796 -1.5872
 5135SOL     OW17078   7.965   5.486   4.460  0.8877 -0.0084  0.2403
 5135SOL    HW117079   7.974   5.522   4.372 -0.5669  0.6352  0.3341
 5135SOL    HW217080   7.878   5.445   4.460  0.9901 -0.2460  1.2957
 5136SOL     OW17081   1.796   0.379   8.868  0.2571 -0.3239  0.6756
 5136SOL    HW117082   1.779   0.472   8.853 -0.5797 -0.2862  1.7288
 5136SOL    HW217083   1.890   0.374   8.887  0.2915  0.3244  0.6930
 5137SOL     OW17084   6.688   4.268   8.963 -0.1217  0.0069 -0.0235
 5137SOL    HW117085   6.748   4.306   8.899 -0.0259  1.3110  0.8132
 5137SOL    HW217086   6.696   4.323   9.041 -0.5132 -1.3209  1.0037
 5138SOL     OW17087   6.760   5.628   8.614 -0.5545 -0.1545  0.0699
 5138SOL    HW117088   6.775   5.629   8.520 -0.6568  1.5566  0.0551
 5138SOL    HW217089   6.735   5.537   8.633  1.1494 -0.9693 -1.2561
 5139SOL     OW17090   1.406   3.015   1.471  0.0677  0.3075  0.1464
 5139SOL    HW117091   1.336   2.973   1.421 -0.2545 -1.4831  1.9472
 5139SOL    HW217092   1.425   3.096   1.423 -1.2128 -0.5661 -1.9801
 5140SOL     OW17093   9.656   6.928   7.539 -0.0208 -0.4898 -0.2940
 5140SOL    HW117094   9.637   6.835   7.533  1.8447 -1.2275  2.9448
 5140SOL    HW217095   9.595   6.961   7.606  0.9155  0.0522  0.3196
 5141SOL     OW17096   1.876   3.303   2.420 -0.2179 -0.1536  0.6546
 5141SOL    HW117097   1.806   3.368   2.426 -1.6814 -1.6654  0.9354
 5141SOL    HW217098   1.940   3.330   2.486 -0.1150  1.7211 -0.1754
 5142SOL     OW17099   3.446   6.345   5.577  0.8173  0.2788 -0.0870
 5142SOL    HW117100   3.439   6.354   5.672  3.4969  1.7361  0.0720
 5142SOL    HW217101   3.401   6.263   5.558 -0.5937  0.3874  2.2820
 5143SOL     OW17102   8.090   1.076   3.092  0.2949 -0.6678 -0.1748
 5143SOL    HW117103   8.014   1.095   3.037  0.5177 -1.7071 -0.8830
 5143SOL    HW217104   8.119   1.161   3.123 -1.5654 -0.2948  0.6892
 5144SOL     OW17105   5.997   4.264   3.302  0.0075 -0.2726 -0.1404
 5144SOL    HW117106   6.065   4.323   3.332 -0.1595  0.7744 -1.7121
 5144SOL    HW217107   5.916   4.315   3.309 -0.4846 -1.1060  0.5985
 5145SOL     OW17108   2.344   5.409   0.225 -0.4396  0.1157  0.1657
 5145SOL    HW117109   2.293   5.349   0.172 -2.7843  0.8137  1.4794
 5145SOL    HW217110   2.411   5.443   0.166 -0.3054 -2.2220 -1.1306
 5146SOL     OW17111   2.843   2.811   0.806  0.4379 -0.0489 -0.3014
 5146SOL    HW117112   2.797   2.895   0.807  0.5129 -0.0077 -0.3127
 5146SOL    HW217113   2.872   2.798   0.896 -0.1136 -0.3601 -0.1653
 5147SOL     OW17114   8.164   5.131   1.755 -0.1461 -0.4474 -0.1474
 5147SOL    HW117115   8.228   5.111   1.823 -0.0636 -0.6664 -0.2868
 5147SOL    HW217116   8.100   5.187   1.798  0.0196 -0.4121  0.0533
 5148SOL     OW17117   0.201   4.993   4.026  0.3672  0.7418  0.2934
 5148SOL    HW117118   0.258   4.966   3.954 -3.5982 -2.0647 -2.1963
 5148SOL    HW217119   0.173   5.081   4.002  1.2119  0.9163 -0.1081
 5149SOL     OW17120   4.277   1.820   6.291 -0.1207 -0.2371  0.2623
 5149SOL    HW117121   4.345   1.886   6.277  2.5904 -2.9213 -0.5226
 5149SOL    HW217122   4.241   1.840   6.378  2.1456  0.9992  1.0027
 5150SOL     OW17123   5.099   5.556   0.544 -0.0038  0.1280 -0.3390
 5150SOL    HW117124   5.156   5.626   0.575  0.5514 -0.4216 -0.0982
 5150SOL    HW217125   5.138   5.476   0.579 -0.6059 -0.3067 -0.6428
 5151SOL     OW17126   4.351   6.653   4.670  0.2376 -0.1439 -0.0585
 5151SOL    HW117127   4.346   6.588   4.740  0.5021 -1.8967 -1.6030
 5151SOL    HW217128   4.437   6.694   4.682 -0.3312  0.6593  1.5146
 5152SOL     OW17129   6.795   0.447   8.005  0.2822  0.9707  0.1546
 5152SOL    HW117130   6.711   0.487   8.026  0.0495  0.4043  0.3058
 5152SOL    HW217131   6.818   0.483   7.920 -1.0198 -0.2993 -0.7711
 5153SOL     OW17132   3.259   0.103   8.748  0.2943  0.6490 -0.1559
 5153SOL    HW117133   3.339   0.050   8.750  0.8179  1.4316  1.7200
 5153SOL    HW217134   3.190   0.043   8.775  0.6455  0.5531  0.5455
 5154SOL     OW17135   2.074   7.247   1.478 -0.4251  0.2707 -0.0126
 5154SOL    HW117136   2.135   7.174   1.490 -0.6544 -0.0896 -0.9647
 5154SOL    HW217137   2.128   7.325   1.494  0.2575 -0.0457 -0.6852
 5155SOL     OW17138   1.280   4.154   8.610  0.0815  0.6633  0.6109
 5155SOL    HW117139   1.318   4.084   8.558  1.5707  0.7372  1.5143
 5155SOL    HW217140   1.205   4.185   8.560 -1.5877 -2.5597  0.8958
 5156SOL     OW17141   2.706   9.372   2.909  0.2515  0.2297  0.3349
 5156SOL    HW117142   2.788   9.408   2.876 -0.4381  0.8557 -0.7544
 5156SOL    HW217143   2.641   9.441   2.894 -0.6823 -0.6519  0.1589
 5157SOL     OW17144   8.591   2.741   0.050 -0.1412  0.0914 -0.0890
 5157SOL    HW117145   8.660   2.742   0.117 -1.3167  3.1919  1.2441
 5157SOL    HW217146   8.622   2.678  -0.015  2.2404 -1.2442  2.1495
 5158SOL     OW17147   6.892   4.985   4.999  0.0670  0.3070  0.3182
 5158SOL    HW117148   6.862   4.959   4.912  0.4074  0.8935  0.0131
 5158SOL    HW217149   6.947   4.912   5.029  0.6967  0.4896 -0.3527
 5159SOL     OW17150   0.687   6.702   3.666  0.1564 -0.6644 -0.0101
 5159SOL    HW117151   0.755   6.714   3.732 -1.7574  1.3491  1.7838
 5159SOL    HW217152   0.619   6.650   3.709 -1.3117  1.0252 -0.1437
 5160SOL     OW17153   2.354   8.851   6.232 -0.0141  0.0351  0.1811
 5160SOL    HW117154   2.289   8.835   6.300  0.8207  0.0083  0.9995
 5160SOL    HW217155   2.424   8.788   6.250 -0.0228 -0.3347 -1.0378
 5161SOL     OW17156   2.434   5.490   7.192  0.2172 -0.1559  0.1913
 5161SOL    HW117157   2.524   5.459   7.177  0.4471  0.5376  0.1083
 5161SOL    HW217158   2.379   5.424   7.148  0.5987 -1.3343  1.4214
 5162SOL     OW17159   1.192   9.320   8.793 -0.0489  0.4179  0.2605
 5162SOL    HW117160   1.173   9.401   8.840  0.0276 -0.2164  1.4421
 5162SOL    HW217161   1.278   9.292   8.827 -0.3012 -0.4003  0.2543
 5163SOL     OW17162   0.726   7.222   5.325 -0.3261  0.1765 -0.3674
 5163SOL    HW117163   0.798   7.207   5.386 -0.7494 -1.8419 -0.2912
 5163SOL    HW217164   0.748   7.305   5.282  1.8293 -0.1653 -0.0531
 5164SOL     OW17165   6.301   1.266   7.460 -0.1540 -0.1043 -0.1942
 5164SOL    HW117166   6.344   1.213   7.527  1.6059  0.1026 -1.0990
 5164SOL    HW217167   6.309   1.214   7.380 -1.3940  0.0711 -0.4565
 5165SOL     OW17168   3.557   6.658   1.658  0.8217 -0.2920  0.0098
 5165SOL    HW117169   3.472   6.628   1.626  0.9660 -0.0336 -0.6359
 5165SOL    HW217170   3.620   6.596   1.621  1.1848  1.1002 -1.8455
 5166SOL     OW17171   6.205   2.486   2.977 -0.4333  0.6260 -0.2935
 5166SOL    HW117172   6.176   2.577   2.977 -1.2066  0.4433  1.6823
 5166SOL    HW217173   6.276   2.484   3.042 -1.2880 -0.3804  0.6477
 5167SOL     OW17174   3.116   6.864   0.804  0.4711  0.0251 -0.1424
 5167SOL    HW117175   3.169   6.791   0.837  0.3359 -0.8427 -1.7672
 5167SOL    HW217176   3.176   6.938   0.803  0.5544  0.0375  1.7323
 5168SOL     OW17177   4.173   8.199   7.629 -0.3354 -0.3285 -0.5514
 5168SOL    HW117178   4.134   8.125   7.676  3.2214 -0.6215  2.3593
 5168SOL    HW217179   4.240   8.160   7.573  0.9869  0.5262  0.3672
 5169SOL     OW17180   5.437   1.322   2.089  0.7408  0.5271 -0.1703
 5169SOL    HW117181   5.409   1.232   2.107  1.4312 -0.0228 -1.6671
 5169SOL    HW217182   5.531   1.322   2.104  0.5131  1.4913  1.5218
 5170SOL     OW17183   8.993   5.729   8.488 -0.2225 -0.0270 -0.1334
 5170SOL    HW117184   8.937   5.764   8.419  0.5019  2.1028  0.2770
 5170SOL    HW217185   8.934   5.712   8.561 -0.5842  0.6897 -0.2421
 5171SOL     OW17186   7.809   5.292   2.803 -0.4331  0.1918 -0.2315
 5171SOL    HW117187   7.847   5.208   2.778 -0.9671  0.4563 -2.0758
 5171SOL    HW217188   7.780   5.331   2.720  0.7834  2.6897  0.4149
 5172SOL     OW17189   4.040   7.099   2.088  0.3430 -0.5791 -0.1137
 5172SOL    HW117190   4.104   7.130   2.152 -0.0886  0.2577 -0.0795
 5172SOL    HW217191   4.076   7.123   2.003  0.1831 -0.3207 -0.1073
 5173SOL     OW17192   6.468   6.062   6.296 -0.3140  0.2400 -0.3797
 5173SOL    HW117193   6.459   6.158   6.297  0.3607  0.3046  0.0042
 5173SOL    HW217194   6.544   6.045   6.351 -0.1796 -0.4933 -0.7915
 5174SOL     OW17195   5.378   1.342   1.096  0.5310 -0.1370 -0.1485
 5174SOL    HW117196   5.357   1.435   1.101  1.1845 -0.0138  0.2948
 5174SOL    HW217197   5.332   1.312   1.017  0.2102  0.5275 -0.2201
 5175SOL     OW17198   4.794   3.030   6.559 -0.1408 -0.9315 -0.6741
 5175SOL    HW117199   4.808   3.064   6.471 -0.8360  1.4338  0.0675
 5175SOL    HW217200   4.815   2.936   6.552 -0.9628 -0.9930 -3.5173
 5176SOL     OW17201   4.789   4.276   1.777 -0.0850 -0.0924 -0.7595
 5176SOL    HW117202   4.714   4.243   1.728 -0.8998 -1.0114  0.9950
 5176SOL    HW217203   4.773   4.370   1.787 -2.4684 -0.6116  1.7839
 5177SOL     OW17204   9.459   4.130   2.306 -0.3632 -0.1222  0.1309
 5177SOL    HW117205   9.526   4.173   2.360 -0.2666 -0.5857  0.3877
 5177SOL    HW217206   9.454   4.041   2.341  0.2778 -0.6819 -1.1309
 5178SOL     OW17207   5.544   9.469   3.850 -0.3522 -0.2708  0.9183
 5178SOL    HW117208   5.529   9.502   3.938  0.9632 -1.0424  1.4705
 5178SOL    HW217209   5.542   9.546   3.794 -2.0259  0.1243  1.4948
 5179SOL     OW17210   6.354   0.961   2.336  0.0976  0.0849 -0.9220
 5179SOL    HW117211   6.435   0.923   2.301  1.3760  0.4497  1.3865
 5179SOL    HW217212   6.381   1.045   2.373 -1.3423  0.2091 -0.0773
 5180SOL     OW17213   5.826   1.507   0.028 -0.4886  0.6210  0.3565
 5180SOL    HW117214   5.770   1.480  -0.045 -0.3377  2.4963 -0.5063
 5180SOL    HW217215   5.899   1.446   0.026 -2.0478 -1.3862  1.0139
 5181SOL     OW17216   3.900   9.637   1.316  0.5881 -0.4274 -0.1629
 5181SOL    HW117217   3.990   9.651   1.286 -0.4445  1.5167 -2.6423
 5181SOL    HW217218   3.864   9.725   1.327 -1.3905 -1.1567 -0.4350
 5182SOL     OW17219   6.496   7.558   8.382 -0.0263 -0.5891 -0.5008
 5182SOL    HW117220   6.554   7.559   8.458  0.8048 -1.2437 -1.0970
 5182SOL    HW217221   6.522   7.635   8.331  0.2721 -0.8325 -0.7233
 5183SOL     OW17222   2.557   3.864   4.677  0.2145  0.6098 -0.1343
 5183SOL    HW117223   2.470   3.868   4.717  0.9387  0.3707  1.5568
 5183SOL    HW217224   2.580   3.772   4.679  0.0034  0.4881 -1.8105
 5184SOL     OW17225   3.666   8.272   7.832  0.1300 -0.1162  0.0793
 5184SOL    HW117226   3.660   8.285   7.927 -1.7661 -0.1792  0.0074
 5184SOL    HW217227   3.584   8.229   7.809  0.5228 -0.0099 -1.6163
 5185SOL     OW17228   3.410   1.004   4.479  0.7884  0.6562  0.2206
 5185SOL    HW117229   3.478   1.045   4.532  0.3906  0.2226  1.0746
 5185SOL    HW217230   3.359   0.951   4.540  0.7369 -0.4054 -0.7004
 5186SOL     OW17231   5.965   0.589   8.458  0.1404 -0.4140 -0.4214
 5186SOL    HW117232   6.060   0.579   8.457  0.5868  0.3560  4.9201
 5186SOL    HW217233   5.932   0.500   8.462  0.8561 -0.6594  0.3118
 5187SOL     OW17234   9.628   8.427   8.375 -0.0331 -0.2873  0.4087
 5187SOL    HW117235   9.574   8.407   8.299  0.4875  0.5629 -0.2035
 5187SOL    HW217236   9.706   8.372   8.364  0.3245  0.3037 -0.0037
 5188SOL     OW17237   7.881   2.552   2.627 -0.2244  0.4035  0.0483
 5188SOL    HW117238   7.820   2.510   2.687 -0.6355  0.9676  0.0277
 5188SOL    HW217239   7.835   2.630   2.596  0.9852  1.5906  1.0748
 5189SOL     OW17240   2.380   1.275   5.329 -0.5086  0.5504 -0.4403
 5189SOL    HW117241   2.445   1.320   5.275  0.8056 -0.3272  0.3519
 5189SOL    HW217242   2.383   1.184   5.298 -0.5925  0.2909  0.3134
 5190SOL     OW17243   7.723   7.449   7.229  0.2244 -0.1147  0.9108
 5190SOL    HW117244   7.719   7.519   7.164 -0.5509 -1.4725 -0.5668
 5190SOL    HW217245   7.673   7.483   7.303  0.1644  1.0258  0.3697
 5191SOL     OW17246   5.090   0.330   0.758 -0.3649 -0.5107 -0.0265
 5191SOL    HW117247   5.077   0.364   0.846 -0.0110 -0.3315 -0.0417
 5191SOL    HW217248   5.184   0.313   0.752 -0.2813  0.0982 -0.5845
 5192SOL     OW17249   2.550   2.092   2.522 -0.1281  0.3909  0.1434
 5192SOL    HW117250   2.538   2.018   2.581 -2.4300 -0.0323 -0.7380
 5192SOL    HW217251   2.492   2.160   2.555 -0.5285  0.5869 -0.9147
 5193SOL     OW17252   8.288   7.042   1.022 -0.4715  0.0206  0.2004
 5193SOL    HW117253   8.296   7.026   0.928 -0.4203 -2.3891  0.5456
 5193SOL    HW217254   8.280   6.955   1.060  0.2957  0.8971  2.5223
 5194SOL     OW17255   0.691   7.355   9.654 -0.4320 -0.3270  1.2766
 5194SOL    HW117256   0.660   7.289   9.592 -2.7807  0.8824  1.0168
 5194SOL    HW217257   0.755   7.310   9.709  0.0937 -2.0158 -0.6282
 5195SOL     OW17258   0.950   1.373   5.369 -0.0609  0.2607 -0.7665
 5195SOL    HW117259   0.877   1.317   5.341 -1.0544  0.8017  0.6222
 5195SOL    HW217260   0.964   1.350   5.461 -0.5382  2.3064 -0.1407
 5196SOL     OW17261   1.723   0.588   4.843  0.5215 -0.4226 -0.1935
 5196SOL    HW117262   1.687   0.505   4.810  2.3680 -1.3822  0.0161
 5196SOL    HW217263   1.808   0.595   4.799  0.3053  1.5218 -0.3939
 5197SOL     OW17264   8.048   2.375   4.409  0.5339  0.1157  0.2725
 5197SOL    HW117265   7.995   2.423   4.472  0.4198 -1.3274  1.3235
 5197SOL    HW217266   7.990   2.308   4.373  0.7213  0.6349 -1.0766
 5198SOL     OW17267   5.543   1.205   5.972 -0.4411 -0.0452 -0.7098
 5198SOL    HW117268   5.552   1.135   6.037  1.5670  0.3972 -0.4408
 5198SOL    HW217269   5.467   1.180   5.920 -1.1093 -1.2598  0.7698
 5199SOL     OW17270   9.407   6.843   1.950  0.3310 -0.4086 -0.1685
 5199SOL    HW117271   9.375   6.762   1.911 -0.0614 -0.7997  0.9283
 5199SOL    HW217272   9.383   6.911   1.887  1.1141 -1.1832 -1.3451
 5200SOL     OW17273   9.352   6.336   3.561 -0.0853  0.3728 -0.3114
 5200SOL    HW117274   9.420   6.268   3.562  0.0299  0.4676 -1.1399
 5200SOL    HW217275   9.319   6.338   3.651  1.9667  1.3009  0.4833
 5201SOL     OW17276   2.998   4.697   6.109  0.2098  0.2563  0.2771
 5201SOL    HW117277   2.924   4.730   6.160  0.2649  1.4472 -0.3701
 5201SOL    HW217278   3.075   4.724   6.158  0.2800  1.8631 -0.6314
 5202SOL     OW17279   5.455   0.260   2.034 -0.4419  0.2947  0.1137
 5202SOL    HW117280   5.512   0.327   2.071 -0.4098  0.4244 -0.1697
 5202SOL    HW217281   5.463   0.185   2.094 -0.5803  0.5887  0.5014
 5203SOL     OW17282   7.012   0.217   4.368 -0.1698 -0.3030 -0.0028
 5203SOL    HW117283   7.084   0.171   4.326  0.0830 -1.5919  1.7368
 5203SOL    HW217284   7.054   0.287   4.419 -0.4875  1.3839 -1.9250
 5204SOL     OW17285   5.766   0.931   1.418  0.2711  0.2226  0.1836
 5204SOL    HW117286   5.760   0.922   1.513  1.3146 -0.3090  0.2146
 5204SOL    HW217287   5.781   0.842   1.387 -1.5818  0.1569 -0.6368
 5205SOL     OW17288   1.400   3.241   6.514 -0.2476  0.6467 -0.1426
 5205SOL    HW117289   1.425   3.281   6.597 -0.8794 -2.3375  1.6410
 5205SOL    HW217290   1.484   3.220   6.472  0.1544 -0.1610  1.0043
 5206SOL     OW17291   4.442   0.529   7.016  0.5905 -0.4749 -0.9038
 5206SOL    HW117292   4.393   0.509   7.096 -1.6700 -2.9235 -2.7192
 5206SOL    HW217293   4.528   0.489   7.030  1.8600  2.7532  1.8207
 5207SOL     OW17294   1.721   2.472   2.782  0.2852 -0.1213  0.1618
 5207SOL    HW117295   1.725   2.411   2.709 -0.1658  1.0002 -0.8179
 5207SOL    HW217296   1.771   2.548   2.753  0.3591  0.2293  1.1469
 5208SOL     OW17297   8.663   5.027   6.875 -0.4448  0.1732 -0.5772
 5208SOL    HW117298   8.584   5.081   6.865  0.1504  1.1770  0.0498
 5208SOL    HW217299   8.632   4.947   6.918 -1.1224  0.5692 -0.3131
 5209SOL     OW17300   2.844   0.023   6.832 -0.1227  0.4416 -0.1296
 5209SOL    HW117301   2.869  -0.029   6.908 -1.6984  1.1542  0.9277
 5209SOL    HW217302   2.784  -0.034   6.783  0.5576  0.1422 -0.6284
 5210SOL     OW17303   2.391   6.110   4.629 -0.1617 -0.1628  0.0682
 5210SOL    HW117304   2.416   6.090   4.539  0.4723  1.5634 -0.1776
 5210SOL    HW217305   2.342   6.192   4.623 -0.9283 -0.5042  1.2137
 5211SOL     OW17306   9.023   6.777   9.462  0.8480 -0.0344  0.0798
 5211SOL    HW117307   9.002   6.773   9.556 -0.4636  2.4068 -0.0217
 5211SOL    HW217308   9.086   6.848   9.455  1.7853 -0.9182 -0.8130
 5212SOL     OW17309   1.349   0.538   0.884  0.8389 -0.3572  0.4548
 5212SOL    HW117310   1.411   0.466   0.889  0.4953 -0.7908 -1.0906
 5212SOL    HW217311   1.264   0.499   0.905  0.9157  0.0174  1.5272
 5213SOL     OW17312   1.559   0.263   6.006  0.0995  0.1013  0.3288
 5213SOL    HW117313   1.539   0.234   5.917  1.6809 -0.8982  0.2601
 5213SOL    HW217314   1.654   0.266   6.009  0.0628  0.4026  1.9225
 5214SOL     OW17315   6.037   7.713   2.510  0.4234  0.3828 -0.4329
 5214SOL    HW117316   6.048   7.790   2.566 -0.2688 -0.0207  0.2691
 5214SOL    HW217317   6.087   7.644   2.552  0.2787  0.1970 -0.5631
 5215SOL     OW17318   2.029   5.438   6.006 -0.2200  0.5700  0.0424
 5215SOL    HW117319   1.933   5.437   6.008 -0.3432  3.5249 -0.8891
 5215SOL    HW217320   2.053   5.346   6.018 -3.1574 -0.3526 -0.2687
 5216SOL     OW17321   5.629   6.646   7.220 -0.1120  0.4420  0.5831
 5216SOL    HW117322   5.624   6.556   7.253 -0.9071  0.0029 -0.6753
 5216SOL    HW217323   5.551   6.688   7.256 -1.6532 -0.3756 -1.5908
 5217SOL     OW17324   0.924   1.719   7.384 -0.4867  0.1346 -0.3484
 5217SOL    HW117325   1.015   1.739   7.407 -0.8534  0.9773  0.4301
 5217SOL    HW217326   0.931   1.649   7.319  0.7676  1.0379 -1.2475
 5218SOL     OW17327   2.689   4.189   2.005 -0.4387 -0.3633 -0.2035
 5218SOL    HW117328   2.693   4.127   2.077 -0.5893  0.6051  0.6553
 5218SOL    HW217329   2.672   4.135   1.928 -0.4439 -1.3930  0.5024
 5219SOL     OW17330   6.674   6.008   0.332  0.2125 -0.0688 -0.7415
 5219SOL    HW117331   6.717   5.938   0.380 -2.6000 -1.6448 -0.2633
 5219SOL    HW217332   6.684   6.085   0.388  1.0108 -0.7563  0.0905
 5220SOL     OW17333   7.638   8.333   5.610 -0.3304 -0.5441 -0.0428
 5220SOL    HW117334   7.612   8.415   5.653 -0.5218 -1.2572  1.2650
 5220SOL    HW217335   7.732   8.343   5.594 -0.5802  0.4008 -1.0161
 5221SOL     OW17336   1.633   3.187   6.379  0.0389  0.5725 -0.6015
 5221SOL    HW117337   1.658   3.238   6.301  1.6022  1.5190  0.4528
 5221SOL    HW217338   1.694   3.216   6.447 -1.9220  0.5283  1.2817
 5222SOL     OW17339   5.066   1.579   6.563  0.1032  0.0957 -0.1992
 5222SOL    HW117340   5.052   1.536   6.647  1.3503 -0.3945 -0.2273
 5222SOL    HW217341   5.081   1.671   6.585  0.5312 -0.0506  0.1236
 5223SOL     OW17342   6.444   0.225   9.005 -0.1308 -0.4315  0.2182
 5223SOL    HW117343   6.421   0.138   9.038  0.8737 -1.4202 -1.5515
 5223SOL    HW217344   6.501   0.261   9.073  0.5544 -1.7169  0.3606
 5224SOL     OW17345   6.365   1.723   4.108 -0.1107 -0.0291  0.8483
 5224SOL    HW117346   6.320   1.639   4.123  0.0091  0.1406  2.3530
 5224SOL    HW217347   6.297   1.780   4.072 -0.3599 -0.5836  0.4146
 5225SOL     OW17348   2.484   1.066   6.380  0.2165 -0.1828 -0.1489
 5225SOL    HW117349   2.459   0.990   6.432 -0.8027  0.4077  0.2700
 5225SOL    HW217350   2.496   1.032   6.291 -0.7432 -0.7525 -0.0702
 5226SOL     OW17351   5.767   8.697   7.571  0.1018 -0.1006 -0.2407
 5226SOL    HW117352   5.718   8.779   7.567  0.5132  0.1902  0.4289
 5226SOL    HW217353   5.716   8.636   7.518 -0.6161  0.3811 -0.1222
 5227SOL     OW17354   3.698   1.606   0.357 -0.3658 -0.3632  0.4419
 5227SOL    HW117355   3.684   1.525   0.307  0.1060  0.0990 -0.4708
 5227SOL    HW217356   3.740   1.665   0.295 -2.7824  1.4170  0.3394
 5228SOL     OW17357   4.261   2.512   2.499  0.6254  0.2659 -0.2921
 5228SOL    HW117358   4.175   2.537   2.465 -0.3835  1.0044  2.5147
 5228SOL    HW217359   4.324   2.556   2.440 -0.8641 -0.0179 -2.1990
 5229SOL     OW17360   1.652   7.802   6.432 -0.2551 -0.1530 -0.6067
 5229SOL    HW117361   1.620   7.841   6.351  2.3821  1.9762 -0.7561
 5229SOL    HW217362   1.685   7.876   6.483  1.2909 -1.7943  0.9148
 5230SOL     OW17363   4.450   9.149   0.953  0.4514 -0.4372 -0.1377
 5230SOL    HW117364   4.435   9.186   0.866  1.0071  1.3339  0.4931
 5230SOL    HW217365   4.363   9.121   0.982 -0.4636  2.4694  0.2574
 5231SOL     OW17366   9.669   1.200   5.755 -0.2629  0.0942  0.6924
 5231SOL    HW117367   9.710   1.259   5.691 -2.6870 -0.2259 -1.3234
 5231SOL    HW217368   9.639   1.126   5.702  2.6954 -3.1326  3.1229
 5232SOL     OW17369   9.101   6.470   1.032  0.3011 -1.0890 -0.1938
 5232SOL    HW117370   9.155   6.548   1.018 -0.4560 -0.3905  0.7060
 5232SOL    HW217371   9.156   6.411   1.084  0.9933 -1.3193 -1.1457
 5233SOL     OW17372   8.995   8.856   7.644  0.6567  0.1467 -0.4637
 5233SOL    HW117373   8.929   8.900   7.698  0.6256 -0.6150  0.1389
 5233SOL    HW217374   8.962   8.863   7.555  0.7348  1.4782 -0.4118
 5234SOL     OW17375   4.300   1.934   6.952  0.3310 -0.1806  0.5020
 5234SOL    HW117376   4.301   1.892   7.038  1.1673  0.0948  0.6387
 5234SOL    HW217377   4.259   1.869   6.894  1.2227 -1.0365  0.7895
 5235SOL     OW17378   7.059   1.602   2.610  0.4692 -0.5001  0.0936
 5235SOL    HW117379   7.110   1.546   2.668  0.4123 -0.6211  0.0304
 5235SOL    HW217380   7.123   1.653   2.562  0.4796  0.5921  1.2223
 5236SOL     OW17381   7.986   8.917   7.093 -0.1132  0.1199  0.1657
 5236SOL    HW117382   7.933   8.988   7.057 -1.1505  0.8353  2.8544
 5236SOL    HW217383   7.990   8.852   7.023  0.5435  2.5974 -2.2715
 5237SOL     OW17384   6.278   2.631   8.473  0.9157  0.3657  0.0467
 5237SOL    HW117385   6.225   2.601   8.547  2.2316  0.7291  1.1865
 5237SOL    HW217386   6.250   2.577   8.400  1.3919 -1.8719  1.4129
 5238SOL     OW17387   6.242   7.879   7.603 -0.0252 -0.4515 -0.9324
 5238SOL    HW117388   6.301   7.803   7.611 -1.3179 -2.0335 -4.4071
 5238SOL    HW217389   6.207   7.891   7.692  0.3899 -3.8318 -0.1479
 5239SOL     OW17390   4.067   8.084   8.056  0.0889 -0.1631  0.6402
 5239SOL    HW117391   4.054   8.117   7.967  1.6688 -0.1992  0.3573
 5239SOL    HW217392   4.070   8.162   8.111 -0.8766 -0.1398  0.6752
 5240SOL     OW17393   7.433   3.321   1.215  0.4718  0.2899  0.0888
 5240SOL    HW117394   7.396   3.408   1.209 -0.5868 -0.0905  0.9725
 5240SOL    HW217395   7.381   3.268   1.154  0.0804 -0.0680  0.7299
 5241SOL     OW17396   7.770   1.376   3.375 -0.0257 -0.0321 -0.3121
 5241SOL    HW117397   7.808   1.288   3.377 -0.5518 -0.2542  0.6114
 5241SOL    HW217398   7.821   1.423   3.309 -0.9977 -1.5730 -2.2490
 5242SOL     OW17399   5.317   0.016   4.662 -0.0096 -0.0539 -0.5619
 5242SOL    HW117400   5.233   0.058   4.646 -0.1373  0.0789  0.4359
 5242SOL    HW217401   5.302  -0.043   4.736  0.8807  0.3396 -0.0429
 5243SOL     OW17402   4.597   1.357   3.093  0.5059 -0.0967  0.3859
 5243SOL    HW117403   4.622   1.443   3.125 -0.4609  0.6890 -0.8570
 5243SOL    HW217404   4.504   1.350   3.112  0.6280 -0.9732  0.6925
 5244SOL     OW17405   1.577   0.057   0.959 -0.7250 -0.2922  0.4245
 5244SOL    HW117406   1.625   0.055   1.042  0.1606  0.6791 -0.0408
 5244SOL    HW217407   1.586  -0.032   0.925  0.8672 -0.1189  0.3087
 5245SOL     OW17408   4.057   0.047   0.544 -0.6306  0.8000  0.3081
 5245SOL    HW117409   4.002  -0.031   0.554  0.6910 -0.4090 -1.2801
 5245SOL    HW217410   4.099   0.058   0.629 -0.0974 -0.8438  0.2877
 5246SOL     OW17411   6.913   7.594   6.753  0.1155  0.2315 -0.0789
 5246SOL    HW117412   6.826   7.622   6.780 -0.6935 -1.3966 -0.8445
 5246SOL    HW217413   6.929   7.641   6.671 -0.2594  0.1614 -0.1945
 5247SOL     OW17414   3.852   3.347   3.605 -0.0299 -0.2100  0.0200
 5247SOL    HW117415   3.883   3.288   3.536  0.3740  1.5252 -1.3654
 5247SOL    HW217416   3.925   3.408   3.618 -0.7201  0.4701  0.8067
 5248SOL     OW17417   7.105   3.425   8.231  0.0447 -0.5811  0.0228
 5248SOL    HW117418   7.082   3.450   8.321  0.0817  2.5970 -0.7447
 5248SOL    HW217419   7.194   3.389   8.238 -0.0596 -0.6387  1.2672
 5249SOL     OW17420   4.801   3.855   1.453 -0.3560 -0.1676  0.3564
 5249SOL    HW117421   4.774   3.945   1.432  0.2928  0.4123  1.8508
 5249SOL    HW217422   4.726   3.801   1.427 -0.3549  0.6477 -1.5552
 5250SOL     OW17423   4.700   7.697   0.494 -0.6752  0.5016 -0.4681
 5250SOL    HW117424   4.720   7.720   0.403 -0.4111  0.8379 -0.3249
 5250SOL    HW217425   4.779   7.655   0.526 -1.2421 -0.9135 -0.8118
 5251SOL     OW17426   1.919   4.911   1.013  0.0699 -0.0429  0.1036
 5251SOL    HW117427   1.927   4.816   1.006  0.6528 -0.1684  1.9772
 5251SOL    HW217428   1.840   4.925   1.064  0.6984  0.4237  0.9688
 5252SOL     OW17429   6.469   0.361   2.384  0.0105 -0.6034  0.2793
 5252SOL    HW117430   6.492   0.268   2.384 -0.8111 -0.8229  1.2749
 5252SOL    HW217431   6.378   0.364   2.356  0.5830  0.1058 -1.7316
 5253SOL     OW17432   6.094   0.571   1.840  0.4246  0.1548 -0.6182
 5253SOL    HW117433   6.175   0.618   1.861  0.9189 -0.7591 -0.4575
 5253SOL    HW217434   6.051   0.626   1.774  0.8562  0.9696 -0.2356
 5254SOL     OW17435   2.832   0.426   4.591  0.2172 -0.0929  0.4298
 5254SOL    HW117436   2.769   0.434   4.662  0.5508 -1.2537  0.8791
 5254SOL    HW217437   2.818   0.505   4.538 -2.0310 -0.6007  0.1610
 5255SOL     OW17438   5.841   4.714   0.974 -0.0040 -0.5195 -0.1892
 5255SOL    HW117439   5.771   4.773   0.948  0.7380  0.5886  0.2202
 5255SOL    HW217440   5.817   4.686   1.062 -0.8077 -1.5581 -0.7275
 5256SOL     OW17441   6.002   7.152   1.370  0.5538  0.0321  0.3077
 5256SOL    HW117442   6.020   7.245   1.381  0.2347  0.1308 -0.0081
 5256SOL    HW217443   5.996   7.139   1.276 -1.6061  0.1213  0.3987
 5257SOL     OW17444   5.166   6.795   2.755 -0.3108 -0.1112 -0.5064
 5257SOL    HW117445   5.251   6.803   2.713 -0.2319 -1.0246 -0.5578
 5257SOL    HW217446   5.186   6.761   2.843 -0.6217 -0.5232 -0.5875
 5258SOL     OW17447   6.572   0.598   8.001  0.4962  0.0625 -0.0349
 5258SOL    HW117448   6.504   0.651   8.043 -0.2219 -0.1352 -0.9105
 5258SOL    HW217449   6.619   0.659   7.944 -0.2656 -0.2038 -0.9669
 5259SOL     OW17450   4.496   0.698   3.665 -0.3540  0.4353  0.2529
 5259SOL    HW117451   4.475   0.791   3.666 -2.2400  0.0633  1.5784
 5259SOL    HW217452   4.506   0.675   3.757 -0.6397 -0.8305 -0.0172
 5260SOL     OW17453   1.321   4.092   1.356  0.2091 -0.3305 -0.2096
 5260SOL    HW117454   1.247   4.131   1.402  1.4389  0.3235  1.2651
 5260SOL    HW217455   1.374   4.052   1.424  1.9386  0.4130 -1.0497
 5261SOL     OW17456   6.927   2.665   0.183  0.5402 -0.1482  0.0475
 5261SOL    HW117457   7.004   2.721   0.172  0.0619  0.5507  0.1643
 5261SOL    HW217458   6.930   2.604   0.110  0.5543  0.6538 -0.6334
 5262SOL     OW17459   5.786   6.078   4.345 -0.2477 -0.5184  0.1063
 5262SOL    HW117460   5.712   6.036   4.389 -0.3424 -0.6085 -0.1353
 5262SOL    HW217461   5.845   6.104   4.416 -0.1621 -1.1122  0.2561
 5263SOL     OW17462   4.524   0.989   5.379  0.6599 -0.3166 -0.8387
 5263SOL    HW117463   4.603   0.991   5.325  1.8574  0.7892  0.8460
 5263SOL    HW217464   4.504   1.081   5.395 -0.5653 -0.6055 -0.6346
 5264SOL     OW17465   4.856   6.088   4.199 -0.1220  0.2828  0.3467
 5264SOL    HW117466   4.848   5.993   4.206 -2.3711  0.3483 -0.4075
 5264SOL    HW217467   4.902   6.103   4.116 -2.2919 -0.1899 -1.0280
 5265SOL     OW17468   8.013   2.702   6.975 -0.0490 -0.0137 -0.2812
 5265SOL    HW117469   8.087   2.660   6.930 -0.0944 -1.3754  0.8583
 5265SOL    HW217470   8.043   2.711   7.065 -0.1691  2.1734 -0.4098
 5266SOL     OW17471   0.386   1.180   4.177 -0.3178  0.2181 -0.4209
 5266SOL    HW117472   0.378   1.220   4.264  0.1826  0.6629 -0.5728
 5266SOL    HW217473   0.296   1.154   4.155 -0.3873 -0.3078  0.4119
 5267SOL     OW17474   3.971   0.927   4.707 -0.3162  0.4300  0.7645
 5267SOL    HW117475   4.029   1.003   4.695  0.2721 -0.1566 -0.2569
 5267SOL    HW217476   3.902   0.940   4.642 -0.5617  0.4121  1.0217
 5268SOL     OW17477   0.670   1.270   0.403  0.6019  0.5048 -0.5678
 5268SOL    HW117478   0.624   1.354   0.405 -2.0513 -0.8739  0.1723
 5268SOL    HW217479   0.668   1.239   0.494 -0.0072 -1.1140 -1.0950
 5269SOL     OW17480   0.043   4.758   0.747  0.2883 -0.3611  0.4707
 5269SOL    HW117481   0.126   4.785   0.708  0.6243 -1.3969  0.4430
 5269SOL    HW217482   0.066   4.687   0.807 -0.2590  0.9105  2.2980
 5270SOL     OW17483   7.023   2.825   3.997 -0.1097 -0.2327  0.4132
 5270SOL    HW117484   7.076   2.757   3.956 -0.1637 -0.1965  0.2838
 5270SOL    HW217485   7.075   2.905   3.986 -0.9638  0.1308 -1.2496
 5271SOL     OW17486   6.066   3.777   5.289  0.4193 -0.5064 -0.1775
 5271SOL    HW117487   6.116   3.847   5.331  2.2623 -1.8734  0.0063
 5271SOL    HW217488   6.098   3.697   5.329 -0.9899 -1.5528 -1.0380
 5272SOL     OW17489   2.526   8.994   0.310 -0.0802  0.5135 -0.0304
 5272SOL    HW117490   2.600   8.936   0.290 -0.2973  0.0375  0.5102
 5272SOL    HW217491   2.564   9.082   0.311  0.6636  0.2046  1.0543
 5273SOL     OW17492   8.179   2.278   8.600  0.1856  0.0794 -0.1467
 5273SOL    HW117493   8.124   2.349   8.568  1.9251  2.0098  0.9131
 5273SOL    HW217494   8.119   2.224   8.652 -0.6531  2.5716  1.7019
 5274SOL     OW17495   6.244   7.049   1.009 -0.1221 -0.6729  0.1572
 5274SOL    HW117496   6.159   7.045   1.053 -0.3409  0.0486 -0.1811
 5274SOL    HW217497   6.272   6.958   1.004  0.3182 -0.7327  2.5487
 5275SOL     OW17498   7.697   6.291   7.088 -0.1785  0.3202 -0.0161
 5275SOL    HW117499   7.640   6.347   7.035  0.9117  1.0953 -0.4073
 5275SOL    HW217500   7.677   6.316   7.178 -2.3851 -1.3326  0.0505
 5276SOL     OW17501   3.647   9.296   3.131  0.2712 -0.0460 -0.8830
 5276SOL    HW117502   3.576   9.232   3.132  0.0048  0.2133 -1.9207
 5276SOL    HW217503   3.660   9.317   3.039  0.1855  1.5757 -0.5625
 5277SOL     OW17504   5.860   5.802   5.220  0.1798 -0.4508  0.5432
 5277SOL    HW117505   5.954   5.808   5.235  0.2555  0.7542 -0.3059
 5277SOL    HW217506   5.838   5.710   5.240  1.6068 -0.8663  0.2865
 5278SOL     OW17507   6.467   7.847   1.561 -0.4520  0.5641  0.2236
 5278SOL    HW117508   6.403   7.808   1.620 -1.2775  0.8933 -0.4251
 5278SOL    HW217509   6.437   7.823   1.473  0.3292  0.7127 -0.0969
 5279SOL     OW17510   0.517   1.925   6.683  0.4721  0.4143  0.3686
 5279SOL    HW117511   0.567   1.999   6.716 -0.5303  0.9731  0.6709
 5279SOL    HW217512   0.493   1.949   6.594  0.4229  0.3100  0.3524
 5280SOL     OW17513   4.081   1.438   7.473  0.2574 -0.4878  0.2340
 5280SOL    HW117514   4.036   1.521   7.453 -0.8152 -0.9182  0.7752
 5280SOL    HW217515   4.115   1.450   7.562 -0.0895 -0.7056  0.3967
 5281SOL     OW17516   2.198   8.130   1.409  0.7068 -0.8048  0.3534
 5281SOL    HW117517   2.212   8.120   1.504  0.3145  0.5596  0.5790
 5281SOL    HW217518   2.166   8.045   1.381 -1.0593 -0.6987  1.8202
 5282SOL     OW17519   6.241   1.995   8.220  0.4967  0.5122 -0.4021
 5282SOL    HW117520   6.305   2.060   8.248  0.6911  1.1035 -2.0810
 5282SOL    HW217521   6.245   1.997   8.124  0.9771 -2.4351 -0.5459
 5283SOL     OW17522   7.619   7.253   0.478  0.3753 -0.2175 -0.0209
 5283SOL    HW117523   7.683   7.202   0.428 -1.6438 -3.1620  0.1394
 5283SOL    HW217524   7.581   7.313   0.413  1.6393 -0.0791 -0.6595
 5284SOL     OW17525   4.362   4.244   2.758 -0.2621  0.0162 -0.1941
 5284SOL    HW117526   4.314   4.240   2.841  0.6492  0.6935  0.3849
 5284SOL    HW217527   4.295   4.230   2.691 -0.9337 -1.0639  0.6663
 5285SOL     OW17528   0.911   9.335   8.190  0.1470 -0.2347 -0.0092
 5285SOL    HW117529   0.908   9.268   8.123 -1.4378  0.3288 -0.5616
 5285SOL    HW217530   0.844   9.398   8.164  0.7039  0.9051  1.1697
 5286SOL     OW17531   5.242   7.829   4.461  0.1041 -0.4245 -0.0641
 5286SOL    HW117532   5.279   7.742   4.452 -0.9838 -0.8645 -0.3788
 5286SOL    HW217533   5.297   7.884   4.405  0.0156 -1.1516 -0.8853
 5287SOL     OW17534   3.387   0.774   3.097  0.4778  0.4368  0.2891
 5287SOL    HW117535   3.358   0.833   3.166 -2.2095  1.2254 -1.3576
 5287SOL    HW217536   3.374   0.686   3.133  4.5399  0.6091  2.7694
 5288SOL     OW17537   6.855   6.052   4.081 -0.1726  0.7185 -0.1068
 5288SOL    HW117538   6.939   6.095   4.074  0.7630 -0.9636  0.2480
 5288SOL    HW217539   6.842   6.010   3.996  0.1044 -0.3111  0.3459
 5289SOL     OW17540   8.870   7.710   5.091 -0.5394  0.2036 -0.2566
 5289SOL    HW117541   8.866   7.686   5.183 -3.5127 -2.2059 -0.8388
 5289SOL    HW217542   8.887   7.627   5.046 -1.0952  0.9717 -1.9570
 5290SOL     OW17543   2.744   2.960   8.574 -0.1481 -0.2110  0.3307
 5290SOL    HW117544   2.693   3.031   8.535  3.7846  2.6260 -0.2789
 5290SOL    HW217545   2.763   2.991   8.662  2.3253  0.0699 -0.2249
 5291SOL     OW17546   9.373   9.257   3.093  0.8579  0.4911 -1.3567
 5291SOL    HW117547   9.433   9.215   3.154 -0.6337 -0.0922 -0.2333
 5291SOL    HW217548   9.369   9.348   3.123 -0.4460  0.0418 -0.0538
 5292SOL     OW17549   4.494   9.674   3.834 -0.1179  0.4550 -0.8081
 5292SOL    HW117550   4.498   9.770   3.833 -0.0967  0.4532 -0.8655
 5292SOL    HW217551   4.425   9.654   3.897  0.0114  0.5044 -0.6470
 5293SOL     OW17552   7.523   2.700   3.255 -0.6440 -0.1687 -0.4043
 5293SOL    HW117553   7.547   2.613   3.287  0.6012 -0.3057 -1.6469
 5293SOL    HW217554   7.456   2.730   3.317 -0.9558 -1.9124  0.1587
 5294SOL     OW17555   6.210   2.873   6.389  0.1591  0.2478  0.0396
 5294SOL    HW117556   6.200   2.876   6.294  0.5267  2.1414  0.0160
 5294SOL    HW217557   6.162   2.796   6.417  1.0425 -1.0258 -1.7964
 5295SOL     OW17558   5.576   4.307   7.317 -0.3199 -0.5968 -0.2361
 5295SOL    HW117559   5.510   4.291   7.249  0.8949 -1.4587 -1.2531
 5295SOL    HW217560   5.562   4.238   7.382 -0.6693 -0.5344 -0.2429
 5296SOL     OW17561   4.862   4.028   9.165  0.3428 -0.3660 -0.2034
 5296SOL    HW117562   4.796   4.084   9.124 -0.1961 -0.2099  0.8598
 5296SOL    HW217563   4.936   4.031   9.104 -0.0824  0.6230 -0.7018
 5297SOL     OW17564   7.874   2.760   2.941 -0.2415  0.5384 -0.0631
 5297SOL    HW117565   7.818   2.695   2.899 -1.6581  1.2157  0.7260
 5297SOL    HW217566   7.900   2.819   2.870  1.1894 -0.9060 -0.8189
 5298SOL     OW17567   5.956   7.152   9.595  0.1872 -0.2151  0.0338
 5298SOL    HW117568   5.918   7.164   9.682 -0.5007  1.0079 -0.4055
 5298SOL    HW217569   5.961   7.241   9.558  0.1423 -0.7336 -1.2952
 5299SOL     OW17570   4.451   8.951   2.068 -0.0485 -0.3457  0.3306
 5299SOL    HW117571   4.516   9.005   2.113 -0.2897  0.5659 -0.3919
 5299SOL    HW217572   4.472   8.861   2.094  2.2627 -0.1973 -0.8164
 5300SOL     OW17573   4.153   9.220   4.175 -0.8860 -0.2413  0.1813
 5300SOL    HW117574   4.117   9.135   4.199 -1.2027 -0.7545 -1.8776
 5300SOL    HW217575   4.245   9.216   4.202 -0.6581 -1.6191 -0.6872
 5301SOL     OW17576   7.761   4.968   2.632 -0.2210  0.0667 -0.7356
 5301SOL    HW117577   7.736   4.976   2.540 -0.9683  0.2419 -0.5268
 5301SOL    HW217578   7.681   4.992   2.680  0.5719  1.4417 -0.0347
 5302SOL     OW17579   4.701   8.576   5.540  0.1452  0.1649  0.1604
 5302SOL    HW117580   4.718   8.514   5.611  0.4327 -0.3754 -0.3677
 5302SOL    HW217581   4.681   8.658   5.584  2.1077  0.3161  0.8580
 5303SOL     OW17582   3.321   9.313   8.922  0.2115  0.4290 -0.1185
 5303SOL    HW117583   3.303   9.252   8.851 -1.1809 -0.3473  0.8538
 5303SOL    HW217584   3.267   9.282   8.995  2.2675  0.6453  1.5976
 5304SOL     OW17585   4.937   7.363   7.158  0.3264 -0.0162 -0.0229
 5304SOL    HW117586   4.926   7.317   7.075  1.2892  1.2636 -0.9196
 5304SOL    HW217587   4.859   7.417   7.167 -0.0961 -0.6709  0.2580
 5305SOL     OW17588   0.240   3.288   7.019 -0.8385 -0.0557  0.1367
 5305SOL    HW117589   0.231   3.317   6.928 -0.5524  0.1401  0.1684
 5305SOL    HW217590   0.153   3.257   7.043 -1.0724  0.4907  0.0008
 5306SOL     OW17591   5.706   7.135   7.212 -0.0254 -0.0646 -0.5940
 5306SOL    HW117592   5.718   7.214   7.159  2.6758 -0.9284 -1.4349
 5306SOL    HW217593   5.766   7.147   7.286 -0.7574 -0.6588  0.1111
 5307SOL     OW17594   1.487   3.821   1.741 -0.1394  0.1061 -0.1340
 5307SOL    HW117595   1.414   3.876   1.770  0.5357  1.4852 -0.9493
 5307SOL    HW217596   1.455   3.731   1.752 -2.3795  0.6450 -1.4786
 5308SOL     OW17597   0.924   5.812   8.009 -0.4075 -0.1246  0.0766
 5308SOL    HW117598   0.956   5.867   7.937  1.2327 -0.0176  0.8311
 5308SOL    HW217599   0.859   5.866   8.053 -0.2985  0.4172 -0.4146
 5309SOL     OW17600   4.246   0.979   9.035 -0.1570  0.4468  0.4708
 5309SOL    HW117601   4.304   1.026   8.975  1.9649 -1.0148  1.2191
 5309SOL    HW217602   4.228   0.896   8.990 -0.3723  0.2595  0.8956
 5310SOL     OW17603   0.412   9.020   4.970 -0.0229  0.1963  0.2692
 5310SOL    HW117604   0.409   9.012   5.066 -0.4405 -1.4779  0.1558
 5310SOL    HW217605   0.334   9.070   4.948  0.5698  1.4145  0.8515
 5311SOL     OW17606   0.733   4.499   0.804  0.2105 -0.3461 -0.0438
 5311SOL    HW117607   0.750   4.435   0.872  0.4148 -0.7701 -0.4833
 5311SOL    HW217608   0.786   4.576   0.828 -0.1898 -0.2681  0.5877
 5312SOL     OW17609   7.639   5.353   6.041  0.3149 -0.1867  0.3608
 5312SOL    HW117610   7.675   5.387   5.959 -0.7972  1.6413  0.5590
 5312SOL    HW217611   7.586   5.277   6.014  0.0797  0.3024 -0.6059
 5313SOL     OW17612   5.521   3.006   1.430  0.7381 -0.5007  0.7957
 5313SOL    HW117613   5.543   2.932   1.487  2.4203 -0.1513  0.6536
 5313SOL    HW217614   5.534   3.083   1.486 -1.4503 -0.2839  1.0872
 5314SOL     OW17615   6.618   1.185   1.056  0.1312 -0.2544 -0.0525
 5314SOL    HW117616   6.615   1.120   1.126 -0.6742  1.2902  1.4216
 5314SOL    HW217617   6.678   1.252   1.087 -0.1526  0.4149 -0.8947
 5315SOL     OW17618   1.980   5.278   0.743 -0.7667 -0.1302 -0.6437
 5315SOL    HW117619   1.893   5.247   0.767 -1.0242  1.0341  0.0630
 5315SOL    HW217620   2.036   5.255   0.818 -0.6133 -0.2715 -0.7991
 5316SOL     OW17621   2.656   0.117   9.604  0.5677  0.1917 -0.1715
 5316SOL    HW117622   2.723   0.058   9.570  0.4500  0.7710 -1.4720
 5316SOL    HW217623   2.577   0.095   9.553 -0.1158 -0.1538  1.0010
 5317SOL     OW17624   3.869   8.988   2.901 -0.1149  0.3023 -0.5141
 5317SOL    HW117625   3.916   9.018   2.823  0.6644 -1.4281 -0.7522
 5317SOL    HW217626   3.909   9.036   2.974  2.5024 -1.5426 -0.6410
 5318SOL     OW17627   0.215   9.100   7.824  0.6424 -0.0238 -0.2943
 5318SOL    HW117628   0.128   9.139   7.814  0.3912 -0.2866  0.7469
 5318SOL    HW217629   0.202   9.029   7.886  1.8421  0.7434  0.8679
 5319SOL     OW17630   0.737   6.788   5.812  0.1796  0.1626  0.2116
 5319SOL    HW117631   0.786   6.723   5.862  0.6676  0.6445  0.3689
 5319SOL    HW217632   0.655   6.744   5.789  0.2988 -0.3405  0.7329
 5320SOL     OW17633   9.664   9.231   6.633 -0.0138  0.3049  0.2664
 5320SOL    HW117634   9.672   9.191   6.546  0.8219  0.0243  0.4618
 5320SOL    HW217635   9.608   9.307   6.619 -1.2634 -0.6656 -0.2090
 5321SOL     OW17636   7.467   0.088   2.771 -0.4941 -0.1733 -0.3294
 5321SOL    HW117637   7.563   0.097   2.778 -0.6340  0.4649  1.1607
 5321SOL    HW217638   7.443   0.034   2.846 -1.4043  0.5983 -0.0497
 5322SOL     OW17639   0.521   3.485   1.685 -0.0010 -0.0533 -0.5399
 5322SOL    HW117640   0.561   3.398   1.689  0.1500  0.0284  3.1981
 5322SOL    HW217641   0.447   3.480   1.746 -1.3507  1.8609 -1.9042
 5323SOL     OW17642   2.148   0.024   1.445  0.5834 -0.1031 -0.5783
 5323SOL    HW117643   2.206   0.082   1.396  2.0429 -0.4415  0.6853
 5323SOL    HW217644   2.133   0.068   1.528 -0.0187 -0.5640 -0.4316
 5324SOL     OW17645   7.438   8.135   3.654  0.3805 -0.1981  0.0497
 5324SOL    HW117646   7.384   8.068   3.696 -0.0977 -0.0547 -0.3305
 5324SOL    HW217647   7.376   8.203   3.627  0.8757  0.4748  0.5616
 5325SOL     OW17648   5.628   3.762   1.309  0.6202 -0.4279  0.2256
 5325SOL    HW117649   5.671   3.797   1.387 -0.7007  1.1657  0.2844
 5325SOL    HW217650   5.640   3.831   1.243 -2.3291  0.4178  0.4298
 5326SOL     OW17651   5.551   8.433   2.164 -0.2081 -0.2525 -0.8840
 5326SOL    HW117652   5.523   8.357   2.214  0.2150 -1.1321 -1.9245
 5326SOL    HW217653   5.640   8.411   2.135 -0.4953  0.1517 -2.1343
 5327SOL     OW17654   9.641   5.997   8.357 -0.4592 -0.0368 -0.6341
 5327SOL    HW117655   9.602   5.911   8.340 -0.6940  0.1251 -0.9124
 5327SOL    HW217656   9.696   6.015   8.281  0.5361 -0.4720 -0.0303
 5328SOL     OW17657   2.737   7.942   7.509  0.1548  0.4354  0.5647
 5328SOL    HW117658   2.744   7.905   7.597  1.0386 -0.8223  0.0068
 5328SOL    HW217659   2.827   7.959   7.483  0.1647 -1.5536 -0.9975
 5329SOL     OW17660   0.706   9.224   4.021  0.3535  0.0815  1.0242
 5329SOL    HW117661   0.768   9.270   3.964  0.8531  0.6630  2.0014
 5329SOL    HW217662   0.758   9.199   4.098  0.1629 -2.3934  0.4195
 5330SOL     OW17663   4.678   1.405   4.514 -0.0446 -0.0964 -0.0236
 5330SOL    HW117664   4.684   1.396   4.610 -2.1771  0.1985  0.2021
 5330SOL    HW217665   4.758   1.450   4.489  0.1571  0.6350  1.7624
 5331SOL     OW17666   2.237   3.546   0.153  0.1913 -0.4881  0.1332
 5331SOL    HW117667   2.289   3.597   0.215  0.4078  0.0476 -0.4804
 5331SOL    HW217668   2.146   3.570   0.171  0.2346 -0.5173  0.3977
 5332SOL     OW17669   5.079   8.421   2.818  0.0235 -0.0694 -0.2140
 5332SOL    HW117670   5.070   8.514   2.798  1.3419  0.2195  0.4099
 5332SOL    HW217671   5.165   8.414   2.860 -0.1631 -1.5316 -0.0281
 5333SOL     OW17672   0.681   7.902   4.139 -0.1567  0.0644 -0.6917
 5333SOL    HW117673   0.724   7.932   4.059 -0.5642  1.6898 -0.3365
 5333SOL    HW217674   0.591   7.882   4.111 -0.5326  1.4029 -0.5311
 5334SOL     OW17675   0.141   8.955   9.424 -0.8448 -0.9592  0.2041
 5334SOL    HW117676   0.198   8.944   9.500 -1.5717 -2.2461  0.5983
 5334SOL    HW217677   0.183   8.904   9.355  0.8172  1.6967 -0.9037
 5335SOL     OW17678   2.397   2.743   8.734  0.6909 -1.0758 -0.5905
 5335SOL    HW117679   2.433   2.667   8.781 -0.1865 -1.0756  0.1145
 5335SOL    HW217680   2.437   2.738   8.647  2.3927 -1.0522  0.1460
 5336SOL     OW17681   2.000   3.557   8.198  0.4757 -0.0106  0.1112
 5336SOL    HW117682   2.083   3.586   8.235 -0.3235  2.5557  0.0675
 5336SOL    HW217683   1.962   3.501   8.266  0.8613  1.3086  1.4534
 5337SOL     OW17684   1.512   5.748   4.346  0.0550 -0.3034 -0.1826
 5337SOL    HW117685   1.572   5.742   4.272  1.6606 -1.6686  1.1421
 5337SOL    HW217686   1.525   5.666   4.394 -2.1421 -0.1867  0.7343
 5338SOL     OW17687   3.350   8.266   6.086 -0.0721  0.0709 -0.1176
 5338SOL    HW117688   3.313   8.178   6.096 -0.1242  0.2672  1.6264
 5338SOL    HW217689   3.440   8.250   6.058  0.3753 -0.6389  1.5786
 5339SOL     OW17690   6.231   1.706   3.521 -0.1640  0.1501  0.5088
 5339SOL    HW117691   6.153   1.652   3.508 -0.2071  0.4504 -0.6040
 5339SOL    HW217692   6.211   1.758   3.599  0.2947 -2.1290  2.2473
 5340SOL     OW17693   0.981   0.489   6.350 -0.6405  0.1755  0.3203
 5340SOL    HW117694   0.965   0.457   6.439  0.8471  1.3257  1.0422
 5340SOL    HW217695   0.914   0.446   6.297 -0.2732 -2.1748  1.6230
 5341SOL     OW17696   4.578   0.884   7.378 -0.1732  0.1071 -0.1548
 5341SOL    HW117697   4.560   0.977   7.380  1.2298  0.4180 -0.7006
 5341SOL    HW217698   4.570   0.860   7.285  0.0064 -0.1951 -0.0953
 5342SOL     OW17699   4.881   3.060   5.713 -0.7651  0.1685 -0.2100
 5342SOL    HW117700   4.904   3.047   5.621 -1.0025 -1.1808 -0.0859
 5342SOL    HW217701   4.940   3.130   5.742  1.1580 -1.1774 -0.6863
 5343SOL     OW17702   9.143   5.208   1.426 -0.1477 -0.7368 -0.5780
 5343SOL    HW117703   9.164   5.144   1.494 -1.9098 -0.8892 -0.1388
 5343SOL    HW217704   9.155   5.160   1.344  3.6110 -0.0982 -0.5995
 5344SOL     OW17705   8.919   7.681   9.446 -0.5257 -0.8377  0.5156
 5344SOL    HW117706   8.934   7.640   9.532  0.9272 -1.8463 -0.1714
 5344SOL    HW217707   9.002   7.723   9.426 -1.0676 -0.0735 -0.1287
 5345SOL     OW17708   7.733   7.296   5.352 -0.6471 -0.5787  0.0839
 5345SOL    HW117709   7.752   7.386   5.325  4.2944 -1.0254  1.1179
 5345SOL    HW217710   7.713   7.302   5.445 -0.3279 -0.5458  0.1509
 5346SOL     OW17711   4.805   6.698   6.292  0.0179  0.0574 -0.4908
 5346SOL    HW117712   4.873   6.681   6.227  0.2372 -0.2219 -0.1866
 5346SOL    HW217713   4.851   6.740   6.364 -0.1735  0.0862 -0.3857
 5347SOL     OW17714   7.885   3.677   0.619 -0.0013  0.2402  0.3204
 5347SOL    HW117715   7.840   3.638   0.694  0.4295 -0.4190  0.2442
 5347SOL    HW217716   7.817   3.685   0.552 -0.1824 -0.0132  0.4726
 5348SOL     OW17717   0.418   7.041   5.191  0.3266 -0.3480  0.0925
 5348SOL    HW117718   0.390   7.089   5.113  1.0248  0.0958  0.1133
 5348SOL    HW217719   0.512   7.029   5.180  0.5339  0.2064  1.1160
 5349SOL     OW17720   8.478   3.464   7.005  0.2594 -0.2286  0.0771
 5349SOL    HW117721   8.546   3.461   7.073 -0.9300  0.4772  1.3488
 5349SOL    HW217722   8.439   3.376   7.007  0.2104 -0.2018  0.3234
 5350SOL     OW17723   0.951   8.506   4.606 -0.2088 -0.1171  0.4239
 5350SOL    HW117724   0.960   8.560   4.527  1.1589 -1.0491 -0.1071
 5350SOL    HW217725   0.859   8.515   4.631 -0.6164  0.4333 -1.1158
 5351SOL     OW17726   0.007   4.842   5.870  1.3626 -0.4973  0.0599
 5351SOL    HW117727  -0.053   4.857   5.942  1.1450 -0.2887 -0.1630
 5351SOL    HW217728  -0.047   4.805   5.800  1.2058  0.9827 -0.6351
 5352SOL     OW17729   1.591   3.972   5.052 -0.3383  0.0240  0.0969
 5352SOL    HW117730   1.685   3.980   5.042 -0.2528 -1.7142 -1.0925
 5352SOL    HW217731   1.559   4.062   5.059  1.3059  0.6955 -0.5141
 5353SOL     OW17732   2.078   8.370   0.089  0.0461  0.4088 -0.1304
 5353SOL    HW117733   2.130   8.450   0.082 -0.0220  0.3270 -2.0451
 5353SOL    HW217734   2.008   8.381   0.025 -0.7343 -0.6503  0.4985
 5354SOL     OW17735   0.975   4.966   3.450  0.1614  0.0289 -0.0455
 5354SOL    HW117736   1.016   5.051   3.465 -0.2934  0.3705 -0.6820
 5354SOL    HW217737   1.023   4.905   3.506  0.6956  0.6495  0.1740
 5355SOL     OW17738   9.185   8.880   1.866  0.1365  0.0948  0.2493
 5355SOL    HW117739   9.140   8.868   1.949 -1.6486  0.0733 -0.6858
 5355SOL    HW217740   9.146   8.816   1.806 -0.9869  2.2457 -1.4835
 5356SOL     OW17741   6.932   5.657   0.264 -0.1902 -0.3493  0.2128
 5356SOL    HW117742   6.849   5.675   0.220 -0.0829 -1.5717 -0.5201
 5356SOL    HW217743   6.932   5.562   0.277  1.4378 -0.4710 -0.5022
 5357SOL     OW17744   4.560   6.908   8.446 -0.2476  0.5600  0.0101
 5357SOL    HW117745   4.566   6.815   8.466  0.2194  0.9149  1.6299
 5357SOL    HW217746   4.623   6.921   8.375  1.3587  0.0344  1.2891
 5358SOL     OW17747   7.940   6.117   2.891 -0.3092  0.2005  0.2441
 5358SOL    HW117748   7.933   6.213   2.894  0.6979  0.2526  2.2975
 5358SOL    HW217749   7.965   6.092   2.980  0.9618 -1.8584 -0.6399
 5359SOL     OW17750   6.750   7.129   7.520 -0.7981  0.3115  0.0862
 5359SOL    HW117751   6.719   7.099   7.435 -1.0425 -2.2653  0.9871
 5359SOL    HW217752   6.839   7.094   7.527 -0.7230  0.6184  0.8374
 5360SOL     OW17753   5.178   0.711   6.568 -0.0940  0.5677 -0.5349
 5360SOL    HW117754   5.205   0.626   6.535  0.4989 -0.3012  1.9372
 5360SOL    HW217755   5.110   0.692   6.632  2.2446  1.5020  2.4938
 5361SOL     OW17756   7.295   9.348   4.502 -0.1049  0.4996  0.7786
 5361SOL    HW117757   7.257   9.416   4.557  0.3623  1.5843 -0.2143
 5361SOL    HW217758   7.376   9.323   4.546 -1.5372 -1.3518  2.5555
 5362SOL     OW17759   3.263   8.512   2.133 -0.0632 -0.3474 -0.4209
 5362SOL    HW117760   3.308   8.433   2.104  0.6551 -0.1320  0.0671
 5362SOL    HW217761   3.201   8.481   2.200  1.0768 -0.3604  0.6511
 5363SOL     OW17762   4.810   3.563   3.953 -0.6233 -0.5018 -0.2236
 5363SOL    HW117763   4.881   3.625   3.968  0.5505 -1.9011  0.2855
 5363SOL    HW217764   4.854   3.482   3.928 -1.8560 -2.0991  2.3329
 5364SOL     OW17765   9.311   8.712   6.372 -0.1348  0.2764 -0.5200
 5364SOL    HW117766   9.282   8.780   6.432 -0.2645 -0.8033  0.6747
 5364SOL    HW217767   9.407   8.717   6.375 -0.1375  0.1075 -0.0689
 5365SOL     OW17768   4.526   7.635   5.408  0.0312 -0.1826 -0.0351
 5365SOL    HW117769   4.484   7.555   5.440  0.4019 -0.9431 -1.3623
 5365SOL    HW217770   4.580   7.605   5.335  0.7987  1.1774 -0.0414
 5366SOL     OW17771   9.177   7.279   7.721  0.5937  0.3280 -0.4973
 5366SOL    HW117772   9.158   7.185   7.733  2.0764  0.2023  1.6495
 5366SOL    HW217773   9.269   7.281   7.695  0.2413  1.1815 -1.7505
 5367SOL     OW17774   4.729   5.128   2.206 -0.4236  0.9972  0.2358
 5367SOL    HW117775   4.712   5.038   2.178  0.2907  0.5860  1.1005
 5367SOL    HW217776   4.816   5.148   2.171  0.5786  0.4056  2.2590
 5368SOL     OW17777   1.992   8.299   3.558 -0.7272  0.3124 -0.2192
 5368SOL    HW117778   1.978   8.286   3.652 -0.1169  0.2736 -0.1291
 5368SOL    HW217779   1.961   8.218   3.518  0.0106 -0.1128  0.0509
 5369SOL     OW17780   1.301   3.492   3.155  0.3707 -0.2140 -0.5382
 5369SOL    HW117781   1.211   3.510   3.184 -0.4477 -1.3747 -2.2515
 5369SOL    HW217782   1.320   3.405   3.189  0.4338 -0.4244 -1.1068
 5370SOL     OW17783   8.494   1.938   1.713  0.1553 -0.2259 -0.2439
 5370SOL    HW117784   8.500   2.025   1.672 -1.1695 -0.6934 -1.5080
 5370SOL    HW217785   8.513   1.877   1.642 -0.5239 -1.0183  0.2399
 5371SOL     OW17786   6.149   0.877   2.480 -0.1024  0.3976 -0.1043
 5371SOL    HW117787   6.220   0.907   2.424 -0.5981 -1.9994 -2.1783
 5371SOL    HW217788   6.191   0.816   2.541  0.0437  1.2016  0.6229
 5372SOL     OW17789   5.957   1.703   8.833  0.7498  0.6052  0.1374
 5372SOL    HW117790   6.018   1.652   8.780  0.1684 -0.0884  0.1259
 5372SOL    HW217791   5.977   1.794   8.810  1.4220  0.3700 -0.2550
 5373SOL     OW17792   9.603   2.714   5.553 -0.1313  0.2736 -0.3609
 5373SOL    HW117793   9.609   2.803   5.588  1.1630 -0.2625  0.8582
 5373SOL    HW217794   9.651   2.718   5.470  2.9252  0.0028  1.2717
 5374SOL     OW17795   5.885   1.181   6.839  0.1450  0.1739  0.1954
 5374SOL    HW117796   5.963   1.229   6.865 -0.5492  1.5796 -0.2342
 5374SOL    HW217797   5.821   1.200   6.907 -0.3667  0.4777 -0.3562
 5375SOL     OW17798   8.739   1.106   0.593 -0.7827  0.4567  0.3399
 5375SOL    HW117799   8.760   1.144   0.679  0.5325  0.6634 -0.0538
 5375SOL    HW217800   8.659   1.056   0.608  0.9219 -1.8961  2.4019
 5376SOL     OW17801   1.116   4.973   8.493  0.1922  0.2848  0.2578
 5376SOL    HW117802   1.102   4.987   8.587 -0.4812 -0.0842  0.2207
 5376SOL    HW217803   1.066   5.042   8.451 -1.3729 -0.8726  0.1274
 5377SOL     OW17804   0.934   0.483   7.994  0.1691 -0.4052  0.1569
 5377SOL    HW117805   0.960   0.445   8.078  0.3276 -2.5348 -0.7858
 5377SOL    HW217806   1.017   0.501   7.950  0.1040 -0.9922 -0.2269
 5378SOL     OW17807   4.725   5.730   8.679  0.1136  0.1431  0.1773
 5378SOL    HW117808   4.639   5.698   8.652 -0.8876  1.6257  1.3998
 5378SOL    HW217809   4.749   5.794   8.612  0.8827 -1.1569 -0.8336
 5379SOL     OW17810   8.689   2.467   1.435 -0.1108  0.3797 -0.5094
 5379SOL    HW117811   8.782   2.457   1.414 -0.4559 -0.3751 -1.7832
 5379SOL    HW217812   8.674   2.561   1.432  0.7333  0.5548  0.3139
 5380SOL     OW17813   2.597   8.096   7.907 -0.4354 -0.2704 -0.3092
 5380SOL    HW117814   2.579   8.185   7.876  0.5286  0.6864  1.7410
 5380SOL    HW217815   2.660   8.106   7.978  0.3222 -2.6785 -0.5250
 5381SOL     OW17816   9.513   4.080   3.752  0.5848  0.1567 -0.5564
 5381SOL    HW117817   9.464   4.083   3.835  0.7586 -0.4456 -0.4230
 5381SOL    HW217818   9.445   4.078   3.685  0.4122 -0.7854 -0.3671
 5382SOL     OW17819   8.324   5.994   1.695  0.4390  0.2155 -0.3415
 5382SOL    HW117820   8.350   5.924   1.634 -0.3124  2.0789 -3.0060
 5382SOL    HW217821   8.289   6.063   1.638 -0.2619  2.1617  2.2644
 5383SOL     OW17822   6.646   4.212   1.433 -0.9877 -0.4872  0.2992
 5383SOL    HW117823   6.737   4.243   1.430 -1.1121 -0.0504  0.8383
 5383SOL    HW217824   6.641   4.158   1.512 -1.1991 -0.5046  0.2750
 5384SOL     OW17825   1.669   7.757   6.806  0.3260 -0.0857  0.0817
 5384SOL    HW117826   1.699   7.707   6.881 -0.0537  0.4851  0.6213
 5384SOL    HW217827   1.696   7.847   6.824  0.8032 -0.0426 -0.7688
 5385SOL     OW17828   9.016   5.980   2.938 -0.4148 -0.2312 -0.3308
 5385SOL    HW117829   8.976   5.988   2.851  1.1162 -1.3097 -1.1692
 5385SOL    HW217830   9.092   6.039   2.935 -0.4039 -0.2033  0.3223
 5386SOL     OW17831   3.199   3.473   2.073  0.3237 -0.1372 -0.0500
 5386SOL    HW117832   3.282   3.434   2.099  1.1811  1.4144 -0.3342
 5386SOL    HW217833   3.224   3.546   2.017 -1.2309  0.5035  0.0561
 5387SOL     OW17834   9.608   6.517   6.560  0.0633 -0.2218 -0.2558
 5387SOL    HW117835   9.622   6.482   6.472 -0.7651  0.0683 -0.5159
 5387SOL    HW217836   9.565   6.602   6.545  1.6988  0.7478  0.3765
 5388SOL     OW17837   9.238   3.469   0.541 -0.1635 -0.1976  0.6116
 5388SOL    HW117838   9.291   3.407   0.491  0.5621  0.8652  0.0181
 5388SOL    HW217839   9.149   3.457   0.508  0.1844 -0.0237 -0.4161
 5389SOL     OW17840   8.487   4.373   6.857 -0.2894 -0.1412  0.0347
 5389SOL    HW117841   8.413   4.358   6.915 -0.9679  0.1092 -0.7572
 5389SOL    HW217842   8.540   4.294   6.865 -0.0726  0.1256  1.4253
 5390SOL     OW17843   3.977   1.825   5.534  0.4278 -0.0767  0.2909
 5390SOL    HW117844   4.033   1.810   5.457  0.0192  4.2267 -1.1177
 5390SOL    HW217845   4.038   1.821   5.608  1.9214  0.7687 -0.8205
 5391SOL     OW17846   5.897   4.430   7.609  0.3165  0.0608  0.1732
 5391SOL    HW117847   5.835   4.358   7.600  0.5253 -0.1642  0.4891
 5391SOL    HW217848   5.982   4.388   7.621  0.4513  0.3577  0.2858
 5392SOL     OW17849   3.009   2.526   3.763  0.1270  0.3177 -0.5120
 5392SOL    HW117850   2.974   2.451   3.810  0.3572  1.6441  1.9478
 5392SOL    HW217851   2.939   2.553   3.705 -0.3210 -1.1624 -0.6943
 5393SOL     OW17852   7.194   6.173   2.235 -0.4534  0.0242  0.2149
 5393SOL    HW117853   7.288   6.175   2.254 -0.4144  0.0100  0.0320
 5393SOL    HW217854   7.189   6.134   2.147 -0.6498 -0.2792  0.3595
 5394SOL     OW17855   8.976   8.502   4.223  0.4138  0.2044 -0.5745
 5394SOL    HW117856   9.045   8.494   4.289 -0.8583  1.3034  0.9708
 5394SOL    HW217857   8.994   8.586   4.181  0.1853  0.3690 -0.3477
 5395SOL     OW17858   5.874   4.582   4.396  0.5480 -0.2728  0.6019
 5395SOL    HW117859   5.840   4.672   4.396  1.6000  0.2066  2.6845
 5395SOL    HW217860   5.870   4.556   4.488 -0.1367 -2.5610 -0.0135
 5396SOL     OW17861   7.654   5.347   0.512  0.3766  0.1700  0.4034
 5396SOL    HW117862   7.662   5.282   0.582  0.1201 -0.1102  0.1743
 5396SOL    HW217863   7.562   5.342   0.485  0.5183  0.1435 -0.0840
 5397SOL     OW17864   3.493   5.710   4.298 -0.1948 -0.4110  0.5252
 5397SOL    HW117865   3.491   5.767   4.374 -1.1650 -0.5999  0.6558
 5397SOL    HW217866   3.462   5.765   4.226 -0.3185 -0.5378  0.4814
 5398SOL     OW17867   5.409   0.521   4.656  0.2895  0.4454  0.2024
 5398SOL    HW117868   5.410   0.428   4.631  0.4571 -0.3623  2.8656
 5398SOL    HW217869   5.330   0.556   4.616 -1.7604 -1.8001  1.9451
 5399SOL     OW17870   8.898   4.508   8.104  0.0014 -0.2822 -0.4580
 5399SOL    HW117871   8.964   4.557   8.153 -1.0859  1.0784 -0.2860
 5399SOL    HW217872   8.875   4.435   8.161  2.3324 -1.6246 -1.1160
 5400SOL     OW17873   1.288   0.938   3.182 -0.0901  0.3175 -0.4136
 5400SOL    HW117874   1.247   0.864   3.227  0.5308 -0.2338 -0.7410
 5400SOL    HW217875   1.250   1.016   3.223 -1.3971 -0.1773 -0.6614
 5401SOL     OW17876   2.237   5.301   8.994  0.0023  0.3877 -0.1835
 5401SOL    HW117877   2.186   5.281   8.915  0.3356 -0.1740 -0.2590
 5401SOL    HW217878   2.327   5.310   8.962  0.2583 -0.5824  0.2390
 5402SOL     OW17879   3.262   5.846   5.319  0.3016  0.2033 -0.3139
 5402SOL    HW117880   3.208   5.767   5.316 -0.4798  0.5545  2.1920
 5402SOL    HW217881   3.349   5.815   5.345 -0.3659  0.2271  2.1816
 5403SOL     OW17882   6.894   8.454   3.652 -0.3623 -0.2406 -0.5362
 5403SOL    HW117883   6.943   8.536   3.654 -1.9937  0.7532 -0.4007
 5403SOL    HW217884   6.839   8.460   3.574 -2.3209 -0.0885  0.7932
 5404SOL     OW17885   5.919   3.575   4.146  0.3127  0.4354  0.1356
 5404SOL    HW117886   5.991   3.565   4.208  1.5486 -0.6986 -1.3914
 5404SOL    HW217887   5.882   3.487   4.138  0.3270  0.5003 -0.8675
 5405SOL     OW17888   0.577   3.899   3.462  0.3100  0.2791 -0.0342
 5405SOL    HW117889   0.556   3.986   3.427  0.5795 -0.3695 -1.9140
 5405SOL    HW217890   0.666   3.907   3.495  1.0124  0.3132 -1.8186
 5406SOL     OW17891   6.737   3.148   5.748  0.4970  0.2770 -0.4202
 5406SOL    HW117892   6.779   3.064   5.730 -1.1949 -1.1318  1.7092
 5406SOL    HW217893   6.643   3.130   5.740  0.0662  1.7182  0.9577
 5407SOL     OW17894   5.893   5.635   8.346  0.4736  0.3507  0.2973
 5407SOL    HW117895   5.927   5.711   8.299  0.1036 -0.2021 -0.9049
 5407SOL    HW217896   5.805   5.622   8.310  0.4824 -0.5668  0.5694
 5408SOL     OW17897   6.996   5.849   0.548 -0.2216  0.2594 -0.1229
 5408SOL    HW117898   6.991   5.768   0.496 -0.5327 -0.7172  1.3619
 5408SOL    HW217899   6.985   5.820   0.638 -1.3038  2.0821  0.3788
 5409SOL     OW17900   2.793   5.388   9.033 -0.6982 -0.4393 -0.1324
 5409SOL    HW117901   2.820   5.386   9.125 -1.1901 -0.6015  0.0117
 5409SOL    HW217902   2.828   5.307   8.996 -1.5974 -1.0150  0.2367
 5410SOL     OW17903   2.289   1.294   6.458 -0.6578 -0.3860  0.3465
 5410SOL    HW117904   2.218   1.231   6.445 -0.3376 -0.8453  0.7634
 5410SOL    HW217905   2.346   1.282   6.383 -0.7176 -0.4269  0.3075
 5411SOL     OW17906   9.676   1.289   2.220 -0.1180 -0.3378 -0.0475
 5411SOL    HW117907   9.613   1.328   2.159  1.3668 -1.3679 -2.3911
 5411SOL    HW217908   9.640   1.202   2.239 -0.4547 -0.1132  0.3583
 5412SOL     OW17909   7.476   0.208   8.883  0.1923 -0.2451  0.0545
 5412SOL    HW117910   7.504   0.136   8.940  2.7255  1.5650  1.3122
 5412SOL    HW217911   7.398   0.243   8.927  0.6164 -0.4759  1.0327
 5413SOL     OW17912   3.166   1.836   3.867  0.1459 -0.2727 -0.9374
 5413SOL    HW117913   3.201   1.747   3.859  0.8304 -0.2381  1.0479
 5413SOL    HW217914   3.230   1.881   3.922  0.5488  1.8901 -3.0099
 5414SOL     OW17915   5.404   5.188   8.668 -0.3718 -0.3249  0.0404
 5414SOL    HW117916   5.431   5.210   8.579 -0.8423  1.6764  0.3450
 5414SOL    HW217917   5.389   5.093   8.666  1.2545 -0.6138 -1.5459
 5415SOL     OW17918   3.513   7.477   7.006 -0.0314  0.1885 -0.1373
 5415SOL    HW117919   3.499   7.408   7.070 -0.0089  0.6621  0.3839
 5415SOL    HW217920   3.577   7.440   6.944 -1.7556 -1.1262 -1.2228
 5416SOL     OW17921   1.501   6.828   1.792  0.4088 -0.3295 -0.1951
 5416SOL    HW117922   1.526   6.920   1.788  0.4073 -0.3690 -1.3881
 5416SOL    HW217923   1.526   6.800   1.880 -0.5625  1.0671  0.5473
 5417SOL     OW17924   6.240   6.879   2.309 -0.6026 -0.1815  0.1043
 5417SOL    HW117925   6.286   6.803   2.274  2.6954  1.6566  0.0393
 5417SOL    HW217926   6.206   6.924   2.232 -0.8932 -0.5917 -0.0077
 5418SOL     OW17927   3.331   8.118   8.369  0.1293  0.1049  0.0913
 5418SOL    HW117928   3.353   8.125   8.276 -0.4876 -0.6322 -0.1195
 5418SOL    HW217929   3.281   8.037   8.376 -1.2183  0.9540  0.7955
 5419SOL     OW17930   2.078   7.484   9.118  0.0779 -0.1224 -0.6714
 5419SOL    HW117931   2.163   7.442   9.127  0.4721  0.4709 -1.5004
 5419SOL    HW217932   2.048   7.498   9.208  0.9910 -0.0658 -0.3698
 5420SOL     OW17933   0.226   3.638   7.517  0.4182  0.6660  1.0037
 5420SOL    HW117934   0.260   3.726   7.529  1.2780  0.2704  1.5703
 5420SOL    HW217935   0.140   3.639   7.559  0.4706  1.1961  1.1016
 5421SOL     OW17936   2.457   6.603   2.810  0.1750 -0.2662 -0.1098
 5421SOL    HW117937   2.399   6.570   2.879  0.8633 -0.3604  0.4426
 5421SOL    HW217938   2.538   6.625   2.856  0.7591 -0.6199 -0.9375
 5422SOL     OW17939   9.357   3.156   1.792  0.0149 -0.3605 -0.0878
 5422SOL    HW117940   9.409   3.192   1.720 -0.7127  1.2715  0.1768
 5422SOL    HW217941   9.287   3.107   1.749  0.3966 -0.5933 -0.4588
 5423SOL     OW17942   4.900   1.925   1.602 -0.5437  0.6054  0.5888
 5423SOL    HW117943   4.867   1.857   1.660 -0.1116  0.0514  0.2003
 5423SOL    HW217944   4.821   1.968   1.569 -0.7898  0.9944  1.6477
 5424SOL     OW17945   7.930   3.541   7.143 -0.0572 -0.0985 -0.2338
 5424SOL    HW117946   7.978   3.602   7.087 -0.1269 -0.0898 -0.2840
 5424SOL    HW217947   7.963   3.559   7.231  1.6759 -1.6045 -0.5045
 5425SOL     OW17948   7.008   6.680   1.875  0.7336 -0.4277  0.6041
 5425SOL    HW117949   6.988   6.588   1.892 -1.7680 -0.3092 -1.1416
 5425SOL    HW217950   6.955   6.729   1.937 -0.9734 -0.1705 -0.9711
 5426SOL     OW17951   6.968   3.749   1.184 -0.1016 -0.1287  0.8313
 5426SOL    HW117952   7.050   3.798   1.179 -1.3729  2.1386  0.6148
 5426SOL    HW217953   6.922   3.786   1.259 -0.6286 -1.9196  1.4570
 5427SOL     OW17954   1.262   4.096   2.858 -0.2486  0.4197 -0.2951
 5427SOL    HW117955   1.285   4.016   2.811  0.0288  0.5976 -0.4647
 5427SOL    HW217956   1.308   4.165   2.810 -1.3528  0.8173 -0.8266
 5428SOL     OW17957   1.495   4.908   1.107 -0.1540 -0.1353 -0.2118
 5428SOL    HW117958   1.499   4.817   1.137 -0.7376 -0.5390 -1.3160
 5428SOL    HW217959   1.502   4.902   1.012  1.4563  1.1035 -0.2062
 5429SOL     OW17960   4.556   3.297   3.961 -0.0575  0.2870  0.5933
 5429SOL    HW117961   4.566   3.278   4.055  1.1304 -0.8983  0.2581
 5429SOL    HW217962   4.617   3.369   3.945  0.7439 -0.4019  0.4851
 5430SOL     OW17963   2.024   4.713   0.708  0.2080 -0.1839  0.1817
 5430SOL    HW117964   1.945   4.675   0.669  0.4441 -1.4545  0.9048
 5430SOL    HW217965   2.061   4.644   0.762  1.1359  0.8051  0.8728
 5431SOL     OW17966   0.971   0.350   6.577 -0.4666  0.4670 -0.5732
 5431SOL    HW117967   0.995   0.264   6.541 -0.2338  0.6764 -0.9248
 5431SOL    HW217968   1.018   0.355   6.660  1.0561  1.0337 -1.4314
 5432SOL     OW17969   4.750   3.944   5.021  0.2702  0.5425  0.0578
 5432SOL    HW117970   4.737   3.999   5.099 -0.6397 -0.3782  0.5757
 5432SOL    HW217971   4.844   3.928   5.019  0.2244 -0.0069  1.3922
 5433SOL     OW17972   2.213   7.638   1.287 -0.0038 -0.1633  0.4910
 5433SOL    HW117973   2.153   7.576   1.247 -0.1825  0.4816 -0.2807
 5433SOL    HW217974   2.269   7.585   1.343  0.2302 -1.0956 -0.5977
 5434SOL     OW17975   4.094   4.376   6.136 -0.4085 -0.1136 -0.3999
 5434SOL    HW117976   4.132   4.365   6.223  1.4669  0.2775 -1.1235
 5434SOL    HW217977   4.095   4.471   6.121 -1.4421 -0.1190 -0.5497
 5435SOL     OW17978   5.710   3.420   1.936  0.2452 -0.3718  0.3840
 5435SOL    HW117979   5.676   3.433   2.025 -0.0714 -1.0899  0.3684
 5435SOL    HW217980   5.804   3.407   1.948  0.0520 -1.5820  0.7340
 5436SOL     OW17981   8.561   1.356   9.152  0.1129 -0.4136 -0.2051
 5436SOL    HW117982   8.617   1.284   9.122  1.8983  0.8308  0.0099
 5436SOL    HW217983   8.510   1.380   9.075  1.3112 -0.2767 -0.9744
 5437SOL     OW17984   2.691   2.087   2.890  0.0017 -0.0340 -0.5570
 5437SOL    HW117985   2.628   2.156   2.914  0.1413 -0.3494  0.7946
 5437SOL    HW217986   2.734   2.065   2.972  0.0189 -1.6829 -0.9864
 5438SOL     OW17987   0.958   4.324   2.424  0.0940  0.3294  0.2852
 5438SOL    HW117988   1.033   4.293   2.372 -0.0479  1.8624 -0.9030
 5438SOL    HW217989   0.987   4.316   2.514  0.7880 -1.3295 -0.0418
 5439SOL     OW17990   6.864   4.387   3.735  0.3834 -0.1816 -0.0828
 5439SOL    HW117991   6.817   4.440   3.800 -2.1861 -0.7118 -1.3911
 5439SOL    HW217992   6.807   4.312   3.719  1.0125 -0.1988 -2.7649
 5440SOL     OW17993   0.599   5.746   2.248 -0.0933  0.0390  0.4999
 5440SOL    HW117994   0.607   5.823   2.192 -2.2585  0.4081  0.6450
 5440SOL    HW217995   0.527   5.765   2.307 -0.5285 -2.0017  0.7131
 5441SOL     OW17996   6.525   0.730   4.668  0.0204 -0.0231 -0.3363
 5441SOL    HW117997   6.568   0.700   4.748 -0.2495  1.6971  0.4961
 5441SOL    HW217998   6.442   0.767   4.699  0.0522  0.9499 -1.3882
 5442SOL     OW17999   5.888   7.104   8.656 -0.2229  0.5137  0.1723
 5442SOL    HW118000   5.973   7.108   8.611  1.0267 -1.0704  2.2315
 5442SOL    HW218001   5.902   7.153   8.737 -1.3353  0.3977  0.4427
 5443SOL     OW18002   0.354   1.371   5.415  0.8401 -0.1586  0.4702
 5443SOL    HW118003   0.356   1.451   5.362  2.7404 -0.3047  0.2773
 5443SOL    HW218004   0.446   1.350   5.430  0.3502 -1.5506  1.6898
 5444SOL     OW18005   8.372   3.259   0.688 -0.1765  0.0461  0.2227
 5444SOL    HW118006   8.451   3.205   0.694 -2.5875 -3.8257  0.6593
 5444SOL    HW218007   8.385   3.327   0.753  1.9153 -1.7817  1.9008
 5445SOL     OW18008   1.675   8.340   6.201 -0.5814 -0.2329  0.1857
 5445SOL    HW118009   1.730   8.416   6.180 -0.4634 -0.3416  0.1018
 5445SOL    HW218010   1.708   8.270   6.145 -1.3393 -0.0759 -0.4817
 5446SOL     OW18011   4.013   0.062   9.315  0.1898  1.1972  0.4324
 5446SOL    HW118012   4.015   0.093   9.405 -1.3271  1.0292  0.5549
 5446SOL    HW218013   3.937   0.105   9.276  0.8541  1.3138 -0.7973
 5447SOL     OW18014   8.038   3.423   9.356  0.5834 -0.3067  0.1394
 5447SOL    HW118015   7.995   3.504   9.328 -0.9504 -0.9675  0.4533
 5447SOL    HW218016   8.014   3.359   9.288  1.9485 -0.4766 -0.2186
 5448SOL     OW18017   3.720   5.428   7.255 -0.0919  0.2205  0.3064
 5448SOL    HW118018   3.735   5.518   7.284  1.4961 -0.0293  0.3392
 5448SOL    HW218019   3.687   5.437   7.165  2.5809  0.8201 -0.6922
 5449SOL     OW18020   8.258   0.236   4.746 -0.6021 -0.1669  0.0555
 5449SOL    HW118021   8.293   0.148   4.758  0.8376  0.2906 -0.5402
 5449SOL    HW218022   8.184   0.225   4.686  0.4726 -0.8155 -1.1847
 5450SOL     OW18023   6.961   9.586   9.196 -0.3751  0.5479  0.0179
 5450SOL    HW118024   6.885   9.645   9.202  0.4622  1.9530 -2.0874
 5450SOL    HW218025   6.960   9.555   9.106  2.0785  1.3819 -0.3533
 5451SOL     OW18026   7.783   8.647   5.823  0.0757  0.1194  0.0571
 5451SOL    HW118027   7.839   8.626   5.749  0.3047 -0.9193  0.5050
 5451SOL    HW218028   7.694   8.636   5.789 -0.0317  3.3843 -1.1480
 5452SOL     OW18029   2.800   1.492   0.831 -0.2808  0.0507  0.4971
 5452SOL    HW118030   2.843   1.435   0.768 -0.0187 -1.2540  1.7980
 5452SOL    HW218031   2.709   1.495   0.803  0.1935  1.0986 -1.0459
 5453SOL     OW18032   3.148   9.217   6.925  0.8649 -0.2784  0.2385
 5453SOL    HW118033   3.119   9.208   6.834 -0.5897  0.6181  0.5726
 5453SOL    HW218034   3.067   9.217   6.976  1.4343  1.9574  1.2719
 5454SOL     OW18035   7.523   9.364   1.751 -0.0386 -0.2532  0.1842
 5454SOL    HW118036   7.586   9.407   1.808  1.7083 -0.1936 -1.6872
 5454SOL    HW218037   7.533   9.271   1.770 -0.1039 -0.1772  0.5918
 5455SOL     OW18038   6.665   3.084   6.071  0.8031  0.0827  0.0754
 5455SOL    HW118039   6.725   3.146   6.113  2.1204 -1.0946  0.0018
 5455SOL    HW218040   6.722   3.015   6.037 -0.6332 -1.3103  0.3923
 5456SOL     OW18041   8.459   0.822   4.604 -0.3454 -0.5875  0.2242
 5456SOL    HW118042   8.419   0.749   4.557 -1.4491 -0.2612  0.6185
 5456SOL    HW218043   8.417   0.900   4.568 -0.6084 -0.2772  1.1603
 5457SOL     OW18044   5.925   8.513   7.039 -0.1433  0.1305  0.1214
 5457SOL    HW118045   5.878   8.566   7.103  0.3169  0.5493  0.1118
 5457SOL    HW218046   5.870   8.515   6.961 -0.2813  0.3311  0.2239
 5458SOL     OW18047   8.092   5.199   3.093  0.6055 -0.0608 -0.4876
 5458SOL    HW118048   8.150   5.169   3.162  1.3395  0.7743 -0.7263
 5458SOL    HW218049   8.114   5.291   3.081 -0.0729  0.0120 -1.2735
 5459SOL     OW18050   7.737   8.771   3.579  0.2294  0.1030  0.2877
 5459SOL    HW118051   7.739   8.844   3.517  0.4290  0.0228  0.2014
 5459SOL    HW218052   7.828   8.755   3.601  0.1575  0.1601  0.6371
 5460SOL     OW18053   2.724   5.399   7.672 -0.1910  0.2559  0.2512
 5460SOL    HW118054   2.761   5.363   7.591  1.1972 -0.1740  1.0406
 5460SOL    HW218055   2.637   5.360   7.679 -0.2265  0.0901 -0.8803
 5461SOL     OW18056   4.232   2.558   8.936  0.3991  0.5737  0.6114
 5461SOL    HW118057   4.298   2.625   8.952 -0.7339  1.4876  1.6743
 5461SOL    HW218058   4.159   2.606   8.897  0.4233 -0.4580 -0.7513
 5462SOL     OW18059   8.800   6.076   6.597  0.1155 -0.5072  0.4537
 5462SOL    HW118060   8.738   6.023   6.548 -0.5725 -0.9774  1.7971
 5462SOL    HW218061   8.746   6.137   6.647  0.7190 -0.7886  1.4926
 5463SOL     OW18062   3.045   0.157   0.843  0.2627  0.0024  0.2189
 5463SOL    HW118063   3.022   0.229   0.785  0.6142 -0.0775 -0.0267
 5463SOL    HW218064   2.961   0.121   0.873  0.0828  0.1415 -0.1185
 5464SOL     OW18065   7.439   0.096   0.113  0.7803 -0.2191  0.8376
 5464SOL    HW118066   7.526   0.135   0.116  0.4651  0.4944  0.8635
 5464SOL    HW218067   7.453   0.010   0.073  1.3864  0.2135  0.0833
 5465SOL     OW18068   5.757   2.020   4.185  0.1839 -0.0259 -0.5310
 5465SOL    HW118069   5.848   1.989   4.189 -0.0785 -0.7306  0.1775
 5465SOL    HW218070   5.710   1.951   4.138 -0.1281 -0.0249 -0.2222
 5466SOL     OW18071   7.699   0.589   3.601 -0.1531 -0.3792 -0.4403
 5466SOL    HW118072   7.767   0.650   3.627  0.0563 -1.2892  1.2855
 5466SOL    HW218073   7.706   0.516   3.663 -1.1179 -1.6371 -1.7242
 5467SOL     OW18074   8.808   1.394   2.815 -0.3150  0.3289  0.2911
 5467SOL    HW118075   8.768   1.453   2.879 -0.3816  0.6818 -0.0681
 5467SOL    HW218076   8.770   1.308   2.834 -0.4457  0.4569  0.6267
 5468SOL     OW18077   0.522   5.369   5.822 -0.3122 -0.2744 -0.1953
 5468SOL    HW118078   0.437   5.411   5.835 -0.0326  0.0197  0.7300
 5468SOL    HW218079   0.554   5.405   5.739 -0.6514  0.3636 -0.0553
 5469SOL     OW18080   3.248   1.019   9.406  0.2887 -0.1938  0.1316
 5469SOL    HW118081   3.251   1.049   9.316  0.5627 -1.0352 -0.1492
 5469SOL    HW218082   3.340   1.007   9.430  0.3178  1.5328  1.0525
 5470SOL     OW18083   1.081   6.864   7.286  0.7722 -0.4956  0.2372
 5470SOL    HW118084   1.111   6.909   7.365 -0.4482 -0.0099  0.4590
 5470SOL    HW218085   0.997   6.906   7.265  0.1259 -1.9274 -0.2008
 5471SOL     OW18086   1.900   0.719   0.961 -0.2916 -0.2343  0.0730
 5471SOL    HW118087   1.847   0.652   1.005 -0.3346  0.0357  0.4284
 5471SOL    HW218088   1.925   0.780   1.030  0.9160 -0.6263  0.0136
 5472SOL     OW18089   6.114   1.599   1.090 -0.8760  0.4417 -0.2393
 5472SOL    HW118090   6.031   1.584   1.046 -1.3887  1.3120  0.3822
 5472SOL    HW218091   6.167   1.646   1.026 -0.7940 -0.2602 -0.6944
 5473SOL     OW18092   0.440   9.055   2.802  0.3613  0.2182  0.5701
 5473SOL    HW118093   0.516   9.113   2.806 -0.3579  1.1515  1.2660
 5473SOL    HW218094   0.368   9.112   2.775 -0.1146 -0.6395 -0.0039
 5474SOL     OW18095   4.718   2.094   0.091 -0.4846  0.3103 -0.3367
 5474SOL    HW118096   4.702   2.021   0.032 -0.0683 -0.5975  0.6386
 5474SOL    HW218097   4.646   2.155   0.075 -0.4002  0.0630 -1.7266
 5475SOL     OW18098   6.551   3.411   5.564 -0.3090  0.2672  0.3225
 5475SOL    HW118099   6.481   3.348   5.552 -1.1979  1.4773 -1.1547
 5475SOL    HW218100   6.523   3.464   5.638 -1.0368  0.8128 -0.3274
 5476SOL     OW18101   5.208   3.006   1.435 -0.9815 -0.3425  0.1841
 5476SOL    HW118102   5.266   3.015   1.510 -0.6244 -1.3237  0.0379
 5476SOL    HW218103   5.260   3.037   1.361 -1.4979  1.0860  0.3831
 5477SOL     OW18104   1.251   3.293   1.044  0.3340  0.0974  0.4896
 5477SOL    HW118105   1.346   3.306   1.048  0.0636  1.9049  3.2385
 5477SOL    HW218106   1.215   3.382   1.042 -1.3220 -0.4867  2.0114
 5478SOL     OW18107   8.915   3.233   7.225  0.0533 -0.1534 -0.2673
 5478SOL    HW118108   8.826   3.211   7.253  0.0670  0.4282  0.2265
 5478SOL    HW218109   8.928   3.324   7.252  0.7176 -0.1609 -0.5380
 5479SOL     OW18110   1.990   6.616   2.077  0.1823 -0.1172  0.2503
 5479SOL    HW118111   2.085   6.619   2.068  0.1295  0.7858 -0.1144
 5479SOL    HW218112   1.961   6.705   2.057 -0.6529 -0.0916  1.4652
 5480SOL     OW18113   5.525   4.587   6.880 -0.1573  0.4242  0.5674
 5480SOL    HW118114   5.586   4.546   6.940  2.2408  1.7108 -0.8585
 5480SOL    HW218115   5.566   4.670   6.856 -1.8208  0.7428 -1.5120
 5481SOL     OW18116   0.998   5.061   1.256  0.0495 -0.4314 -0.3306
 5481SOL    HW118117   1.084   5.036   1.288 -0.0554 -0.7727 -0.3085
 5481SOL    HW218118   0.960   4.980   1.223  0.6511  0.1186 -2.5333
 5482SOL     OW18119   8.479   2.696   2.995  0.1516 -0.5599  0.1961
 5482SOL    HW118120   8.556   2.752   2.989  0.6133 -1.2946 -1.3258
 5482SOL    HW218121   8.459   2.674   2.904 -1.7314 -0.5757  0.5744
 5483SOL     OW18122   6.489   3.195   8.606  0.3108  0.1474  0.5750
 5483SOL    HW118123   6.478   3.138   8.682  1.1385  0.9316  1.3146
 5483SOL    HW218124   6.554   3.150   8.552 -1.0057 -0.9034 -0.1972
 5484SOL     OW18125   9.499   1.794   6.739  0.3979  0.4406  0.0977
 5484SOL    HW118126   9.474   1.703   6.724  1.5693  0.1900 -0.4577
 5484SOL    HW218127   9.422   1.845   6.713  0.3109 -0.3216 -1.2164
 5485SOL     OW18128   6.541   7.609   4.048  1.0153  0.8343  0.2725
 5485SOL    HW118129   6.567   7.650   3.965  0.2791  2.2488  0.6989
 5485SOL    HW218130   6.622   7.601   4.098  1.3065  0.9392 -0.1751
 5486SOL     OW18131   0.568   4.086   5.612  0.6115 -0.0640 -0.0786
 5486SOL    HW118132   0.473   4.080   5.624  0.1669  0.9967 -2.4459
 5486SOL    HW218133   0.582   4.055   5.523  2.4521  0.1732  0.0975
 5487SOL     OW18134   9.487   4.854   4.393  0.1325 -0.3071 -0.2660
 5487SOL    HW118135   9.484   4.798   4.315 -2.4038  1.2828 -1.4443
 5487SOL    HW218136   9.429   4.812   4.455 -1.0813  0.4846 -0.8251
 5488SOL     OW18137   1.666   2.805   0.116  0.2541 -0.2011  0.1040
 5488SOL    HW118138   1.696   2.756   0.040 -0.2856  1.9105 -1.5763
 5488SOL    HW218139   1.731   2.875   0.126 -0.9910  1.0273 -0.0249
 5489SOL     OW18140   3.125   0.851   8.493 -0.4360  0.5901  0.7522
 5489SOL    HW118141   3.041   0.832   8.535 -1.2708 -1.4999 -1.6211
 5489SOL    HW218142   3.106   0.922   8.432 -0.5142  0.0560  0.1491
 5490SOL     OW18143   8.271   0.712   8.884  0.3127 -0.5198 -0.5526
 5490SOL    HW118144   8.177   0.710   8.901  0.7811  0.3782  2.6993
 5490SOL    HW218145   8.290   0.627   8.845 -1.5689 -1.4473  0.4342
 5491SOL     OW18146   4.506   0.358   8.762  0.1058  0.2897 -0.6010
 5491SOL    HW118147   4.542   0.411   8.833 -0.5597  1.4206 -1.0722
 5491SOL    HW218148   4.501   0.269   8.798  2.8047  0.1519 -0.3323
 5492SOL     OW18149   3.947   5.761   7.156  0.7647 -0.1463  0.2290
 5492SOL    HW118150   3.889   5.816   7.208  1.6723  0.5621  0.5118
 5492SOL    HW218151   3.998   5.711   7.220  1.3358  0.1514  0.0105
 5493SOL     OW18152   6.780   8.214   1.488  0.4866 -0.3593 -0.6976
 5493SOL    HW118153   6.772   8.309   1.480 -0.2345 -0.4814 -1.6870
 5493SOL    HW218154   6.791   8.198   1.581 -2.4819  0.4899 -0.1074
 5494SOL     OW18155   1.077   5.278   5.611 -0.2362 -0.0966  0.3214
 5494SOL    HW118156   1.162   5.242   5.584  0.5223  0.9815  1.1807
 5494SOL    HW218157   1.012   5.221   5.568  0.8986 -1.6257  0.5423
 5495SOL     OW18158   6.708   5.222   4.772 -0.0443 -0.1349  0.0941
 5495SOL    HW118159   6.635   5.177   4.814 -0.1585 -1.0100 -0.9826
 5495SOL    HW218160   6.752   5.268   4.843 -0.5180 -1.1617  1.0816
 5496SOL     OW18161   6.388   3.992   0.958 -0.1392 -0.0214 -0.0305
 5496SOL    HW118162   6.368   4.068   1.012  1.4584 -0.1335  0.7613
 5496SOL    HW218163   6.303   3.947   0.948 -0.4759 -0.0530  2.4717
 5497SOL     OW18164   2.560   1.473   4.321  0.8095  0.0262  0.7686
 5497SOL    HW118165   2.626   1.404   4.309  1.4559  0.6948  0.4037
 5497SOL    HW218166   2.559   1.520   4.238 -1.4308 -1.0561  0.0985
 5498SOL     OW18167   5.549   0.351   1.230  0.1231  0.3293 -0.3131
 5498SOL    HW118168   5.541   0.373   1.137 -0.8570 -1.6473 -0.7410
 5498SOL    HW218169   5.473   0.392   1.271 -0.4322 -0.3017 -0.7009
 5499SOL     OW18170   2.639   2.119   6.939  0.3062 -0.1759  0.3046
 5499SOL    HW118171   2.684   2.121   6.855 -1.1434  1.5797 -0.4937
 5499SOL    HW218172   2.553   2.082   6.920  0.1768 -0.3287  1.1398
 5500SOL     OW18173   7.187   7.472   8.386  0.4879 -0.1988  0.5406
 5500SOL    HW118174   7.098   7.451   8.360  1.0721  0.6057 -2.4884
 5500SOL    HW218175   7.236   7.392   8.371  0.7557  0.1607 -0.6370
 5501SOL     OW18176   1.012   7.089   7.755  0.5126  0.7617 -0.3531
 5501SOL    HW118177   0.924   7.125   7.750  0.4080  0.5578 -0.0020
 5501SOL    HW218178   1.045   7.093   7.665 -0.4230 -0.5951 -0.7811
 5502SOL     OW18179   2.114   1.471   4.685  0.1733 -0.0042  0.1083
 5502SOL    HW118180   2.097   1.472   4.779  0.0639 -0.3916  0.0932
 5502SOL    HW218181   2.177   1.400   4.673  0.0495 -0.0733 -0.1350
 5503SOL     OW18182   5.163   2.584   5.374 -0.4137 -0.1058  0.6069
 5503SOL    HW118183   5.186   2.661   5.323 -1.9683 -0.0704 -0.1107
 5503SOL    HW218184   5.071   2.567   5.352 -0.3468 -1.6799  1.3647
 5504SOL     OW18185   1.214   9.324   6.066  0.8014 -0.1553 -0.5368
 5504SOL    HW118186   1.229   9.413   6.035 -1.7642  0.6571  0.2577
 5504SOL    HW218187   1.287   9.273   6.031  2.0413  2.1377 -1.4744
 5505SOL     OW18188   1.884   9.513   2.901 -0.5372 -1.0493 -0.6635
 5505SOL    HW118189   1.955   9.573   2.878  0.4452 -0.8941  2.3972
 5505SOL    HW218190   1.813   9.537   2.842 -0.2003  3.1689  0.3084
 5506SOL     OW18191   9.221   2.822   2.240  0.7523  0.5105 -0.3727
 5506SOL    HW118192   9.316   2.812   2.251  0.9259  2.0936 -0.1156
 5506SOL    HW218193   9.212   2.889   2.172 -0.2062 -0.2844 -1.0493
 5507SOL     OW18194   2.664   6.795   8.213  0.0301 -0.3297 -0.3881
 5507SOL    HW118195   2.686   6.772   8.303 -0.7071  0.1239 -0.0836
 5507SOL    HW218196   2.686   6.716   8.162  0.6026 -0.5306  0.1570
 5508SOL     OW18197   7.452   6.026   8.573  0.4731  0.3077  0.0720
 5508SOL    HW118198   7.458   5.940   8.530 -0.3009 -0.2432  1.0483
 5508SOL    HW218199   7.361   6.053   8.561  0.5894  0.7730  0.2060
 5509SOL     OW18200   3.246   1.660   3.217  0.8319  0.5823 -0.2043
 5509SOL    HW118201   3.323   1.715   3.204  0.8172  0.0030 -3.4851
 5509SOL    HW218202   3.271   1.574   3.183 -1.0198  0.1935 -0.7048
 5510SOL     OW18203   0.484   2.837   5.959 -0.3998 -0.4348 -0.3871
 5510SOL    HW118204   0.415   2.772   5.978 -1.0872  0.5353  0.5671
 5510SOL    HW218205   0.544   2.830   6.033 -1.1259  0.8137  0.3706
 5511SOL     OW18206   0.332   5.210   4.199  0.5605  0.2564 -0.9483
 5511SOL    HW118207   0.303   5.222   4.108 -0.3833  1.3678 -0.5257
 5511SOL    HW218208   0.251   5.214   4.251  1.1373  0.0975 -0.0183
 5512SOL     OW18209   8.370   7.963   3.156 -0.4472 -0.0465  0.0558
 5512SOL    HW118210   8.401   8.018   3.083  1.5931  0.9996  1.5978
 5512SOL    HW218211   8.323   8.023   3.213 -0.6325 -0.4969  0.3825
 5513SOL     OW18212   7.731   4.990   6.517  0.3753  0.6271  0.6513
 5513SOL    HW118213   7.650   5.036   6.492 -1.5357 -0.6791  3.7721
 5513SOL    HW218214   7.787   5.059   6.552  0.5230  1.4986 -1.1773
 5514SOL     OW18215   7.299   2.908   7.037  0.0801 -0.5966 -0.4122
 5514SOL    HW118216   7.353   2.830   7.028 -0.8538 -1.3437  0.2508
 5514SOL    HW218217   7.212   2.875   7.057 -0.0672  0.6337  1.1820
 5515SOL     OW18218   8.609   2.340   1.717 -0.5196  0.2454 -0.1576
 5515SOL    HW118219   8.606   2.435   1.709  0.0261  0.3661  0.9233
 5515SOL    HW218220   8.603   2.308   1.627  2.2527  1.3865 -0.8493
 5516SOL     OW18221   6.382   2.779   0.751  0.2999  0.0886 -0.5055
 5516SOL    HW118222   6.445   2.850   0.740 -0.2990  0.5743 -0.8028
 5516SOL    HW218223   6.297   2.822   0.757 -0.2511 -0.6846 -2.2691
 5517SOL     OW18224   5.478   8.888   2.279 -0.2399  0.3402  0.3042
 5517SOL    HW118225   5.397   8.923   2.242 -0.8954 -0.7476  0.6787
 5517SOL    HW218226   5.521   8.845   2.205  0.9864  2.5607 -0.3684
 5518SOL     OW18227   1.829   0.366   8.093 -0.3962 -0.0343 -0.2665
 5518SOL    HW118228   1.822   0.274   8.068 -2.6285  0.2562 -0.9206
 5518SOL    HW218229   1.770   0.376   8.167  0.6217  0.6910  0.4941
 5519SOL     OW18230   0.273   9.482   4.441  0.3972  0.0318  0.4870
 5519SOL    HW118231   0.303   9.543   4.374  0.7521  0.1484  0.7468
 5519SOL    HW218232   0.328   9.404   4.429 -1.3164 -0.9984 -1.0656
 5520SOL     OW18233   4.149   0.982   0.763  0.0428 -0.1164  0.0210
 5520SOL    HW118234   4.197   1.065   0.766  0.3948 -0.3461  0.9824
 5520SOL    HW218235   4.158   0.946   0.851  0.7500 -1.6597 -0.6521
 5521SOL     OW18236   1.925   8.303   6.013  0.2675 -0.4277 -0.8410
 5521SOL    HW118237   2.008   8.308   6.060  1.6868 -1.2252 -3.0925
 5521SOL    HW218238   1.918   8.388   5.969 -0.8815  0.1847  0.4412
 5522SOL     OW18239   5.177   8.587   0.703 -0.2251  0.3037 -0.2428
 5522SOL    HW118240   5.185   8.553   0.613  0.3584 -0.5185  0.1110
 5522SOL    HW218241   5.206   8.678   0.696 -0.3018  0.2821 -0.9162
 5523SOL     OW18242   5.449   5.648   8.892  0.3935  0.1006 -0.6672
 5523SOL    HW118243   5.399   5.722   8.857  1.3778  0.8488 -0.5754
 5523SOL    HW218244   5.386   5.596   8.941 -0.6928 -0.0950 -2.2107
 5524SOL     OW18245   1.213   3.798   2.147 -0.9099 -0.0718  0.2157
 5524SOL    HW118246   1.174   3.861   2.208 -1.2738 -1.9528  2.0020
 5524SOL    HW218247   1.301   3.833   2.130 -1.7284  1.8781 -0.3510
 5525SOL     OW18248   0.899   1.722   3.728 -0.3997  0.1199 -0.7644
 5525SOL    HW118249   0.932   1.748   3.814 -0.8716 -1.6623 -0.0069
 5525SOL    HW218250   0.838   1.792   3.704 -1.0727  0.1355  0.8495
 5526SOL     OW18251   7.933   8.748   2.791 -0.2650 -0.3411  0.5343
 5526SOL    HW118252   7.862   8.687   2.768  0.6277 -1.3685  0.4262
 5526SOL    HW218253   7.890   8.815   2.843 -1.8130  0.4702 -1.6284
 5527SOL     OW18254   3.495   4.983   5.646  0.8738  0.0723  0.0443
 5527SOL    HW118255   3.558   4.969   5.716 -0.9443 -0.1550  1.7161
 5527SOL    HW218256   3.418   4.933   5.672 -0.8887  2.2289 -0.6853
 5528SOL     OW18257   8.406   5.342   5.802  0.1704 -0.4037  0.1355
 5528SOL    HW118258   8.369   5.429   5.789 -0.0067 -0.6096 -0.7787
 5528SOL    HW218259   8.425   5.310   5.714  0.1861 -1.3154  0.4568
 5529SOL     OW18260   6.528   4.001   9.543  0.2792 -0.9842 -0.5413
 5529SOL    HW118261   6.617   4.030   9.561  0.3794 -0.2965 -1.9815
 5529SOL    HW218262   6.536   3.946   9.465 -0.7201  0.2313 -1.5279
 5530SOL     OW18263   3.428   5.671   0.319 -0.1651  0.3406 -0.1991
 5530SOL    HW118264   3.361   5.738   0.332 -1.7718 -1.3496  0.7013
 5530SOL    HW218265   3.445   5.637   0.407  0.4133 -0.6086 -0.6620
 5531SOL     OW18266   8.983   1.764   9.445  0.2477  0.0182  0.0561
 5531SOL    HW118267   8.900   1.810   9.459 -0.0023 -0.5055  0.2995
 5531SOL    HW218268   8.958   1.678   9.411  0.7097  0.0091 -0.2673
 5532SOL     OW18269   1.733   6.538   8.060  0.0075 -0.4671  0.2579
 5532SOL    HW118270   1.821   6.508   8.036 -0.1053  0.2654 -1.1394
 5532SOL    HW218271   1.740   6.633   8.064 -0.6332 -0.4272  0.5197
 5533SOL     OW18272   6.022   6.888   0.075 -0.0486 -0.0106 -0.0507
 5533SOL    HW118273   6.087   6.832   0.031  2.1012  1.9034  0.4784
 5533SOL    HW218274   6.026   6.971   0.028 -3.4712 -0.2798 -1.0856
 5534SOL     OW18275   4.659   3.873   5.953  0.3425 -0.3411 -0.1145
 5534SOL    HW118276   4.567   3.868   5.977  0.6006  0.6456  1.2365
 5534SOL    HW218277   4.670   3.962   5.920  1.1970  0.2873  1.7141
 5535SOL     OW18278   2.656   8.234   9.314 -0.4929  0.2993  0.0731
 5535SOL    HW118279   2.641   8.220   9.220 -1.3579 -0.0696  0.2621
 5535SOL    HW218280   2.687   8.324   9.320  1.5786 -0.2899 -0.7848
 5536SOL     OW18281   0.277   9.359   7.606 -0.8146 -0.0142 -0.5880
 5536SOL    HW118282   0.288   9.269   7.637 -0.4285 -0.2924 -1.4925
 5536SOL    HW218283   0.357   9.404   7.634 -0.1364 -0.4449 -1.7335
 5537SOL     OW18284   6.587   0.537   9.334  0.5520  0.2472  0.0524
 5537SOL    HW118285   6.579   0.568   9.244  0.2841 -0.9202 -0.3379
 5537SOL    HW218286   6.501   0.500   9.354  0.1072  1.8747  1.3328
 5538SOL     OW18287   0.839   1.170   0.914 -0.1409 -0.4484 -0.4010
 5538SOL    HW118288   0.918   1.211   0.948  0.2385 -0.6924 -0.9835
 5538SOL    HW218289   0.862   1.078   0.903 -0.4473 -0.4863 -0.7467
 5539SOL     OW18290   9.621   6.881   4.530  0.4582  0.4907  0.4516
 5539SOL    HW118291   9.628   6.790   4.502 -1.7618  0.2077  0.5931
 5539SOL    HW218292   9.612   6.932   4.449  0.8984  0.4787  0.3981
 5540SOL     OW18293   2.173   5.962   7.431  0.1775 -0.3678  0.2020
 5540SOL    HW118294   2.097   5.986   7.378 -0.8613 -0.6745  1.4885
 5540SOL    HW218295   2.194   5.873   7.404 -0.0508 -0.3520 -0.0266
 5541SOL     OW18296   1.666   5.229   4.634  0.2790  0.3367 -0.1777
 5541SOL    HW118297   1.646   5.189   4.719 -0.0112 -1.9065 -1.2158
 5541SOL    HW218298   1.597   5.197   4.576 -0.0575  2.5654 -1.0876
 5542SOL     OW18299   2.055   3.888   1.432 -0.5623 -0.4902 -0.9062
 5542SOL    HW118300   2.077   3.915   1.522  1.7209  0.2755 -1.6314
 5542SOL    HW218301   2.021   3.968   1.391  2.9674  0.6050 -2.0461
 5543SOL     OW18302   8.540   0.491   0.292  0.2028 -0.0126  0.3940
 5543SOL    HW118303   8.616   0.446   0.329  1.3129  1.4475 -0.0711
 5543SOL    HW218304   8.574   0.572   0.256 -0.9349 -0.9347 -3.1426
 5544SOL     OW18305   2.385   4.754   1.031  0.1285  0.0256  0.0610
 5544SOL    HW118306   2.382   4.835   1.082 -0.7287 -1.2526  2.2000
 5544SOL    HW218307   2.399   4.782   0.941  0.2365  2.5107  0.7865
 5545SOL     OW18308   7.950   3.324   6.023  0.2267 -0.1394  1.1144
 5545SOL    HW118309   7.942   3.251   5.961  0.0455  0.5015  0.3604
 5545SOL    HW218310   7.927   3.286   6.108  1.8242 -1.3769  1.0443
 5546SOL     OW18311   8.551   0.310   5.928 -0.0755  0.1101 -0.5190
 5546SOL    HW118312   8.457   0.327   5.922 -0.0436  0.5823  0.2223
 5546SOL    HW218313   8.592   0.392   5.902  0.1268  0.0712 -0.3199
 5547SOL     OW18314   0.802   5.630   7.662 -0.3733  0.6199  0.0370
 5547SOL    HW118315   0.887   5.620   7.619  0.9541 -0.2168  2.6483
 5547SOL    HW218316   0.798   5.723   7.686  0.1472  0.5298  0.5016
 5548SOL     OW18317   6.309   2.884   1.378 -0.1735  0.3987  0.3071
 5548SOL    HW118318   6.369   2.912   1.308 -1.5998 -1.9648 -2.0745
 5548SOL    HW218319   6.366   2.854   1.448  1.3918  0.5200 -0.8627
 5549SOL     OW18320   6.435   3.076   7.699 -0.1347 -0.9601 -0.0927
 5549SOL    HW118321   6.440   3.030   7.783 -0.7390  1.0851  1.1360
 5549SOL    HW218322   6.518   3.123   7.692 -0.0655 -1.1552 -0.6933
 5550SOL     OW18323   7.342   0.442   9.343  0.0286  0.2863  0.0870
 5550SOL    HW118324   7.369   0.460   9.253 -2.8995 -2.6972 -1.6062
 5550SOL    HW218325   7.422   0.412   9.387  1.3808  1.1315 -1.6943
 5551SOL     OW18326   4.132   4.428   4.751 -0.1226  0.2898  0.4730
 5551SOL    HW118327   4.177   4.510   4.775 -0.8329  0.3608  1.6924
 5551SOL    HW218328   4.107   4.390   4.835 -0.8139 -0.6143 -0.1268
 5552SOL     OW18329   6.941   8.867   4.137  0.3143  0.1029 -0.3294
 5552SOL    HW118330   6.936   8.930   4.209  0.1520 -2.0064  1.6368
 5552SOL    HW218331   6.854   8.870   4.096  0.1913  0.8630 -0.0164
 5553SOL     OW18332   7.127   3.049   8.070  0.0888  0.2166  0.1180
 5553SOL    HW118333   7.178   3.061   8.150 -0.0558 -0.8569  0.3890
 5553SOL    HW218334   7.183   3.085   8.001  0.8043 -0.0649  0.5366
 5554SOL     OW18335   2.354   4.447   7.873 -0.3208 -0.7864  0.2119
 5554SOL    HW118336   2.308   4.505   7.812  2.6873  1.1008 -0.4754
 5554SOL    HW218337   2.338   4.487   7.959  0.1511 -0.0441 -0.0380
 5555SOL     OW18338   1.692   3.547   6.512 -0.5207 -0.8425 -0.1074
 5555SOL    HW118339   1.702   3.561   6.418  1.2315 -2.2712 -0.1822
 5555SOL    HW218340   1.722   3.458   6.526 -1.5890 -0.9571  1.7107
 5556SOL     OW18341   5.881   2.925   3.557 -0.3460  0.3977  0.0729
 5556SOL    HW118342   5.896   2.865   3.629 -0.1891 -2.1243 -1.9227
 5556SOL    HW218343   5.968   2.955   3.531 -0.0499 -1.4376 -1.2046
 5557SOL     OW18344   7.782   9.614   2.451  0.3037 -0.4948  0.9946
 5557SOL    HW118345   7.826   9.696   2.472  1.5930 -1.3403  1.7831
 5557SOL    HW218346   7.696   9.622   2.492  0.6735  0.1933  1.6608
 5558SOL     OW18347   7.727   6.261   3.192  0.0230 -0.3890 -0.1993
 5558SOL    HW118348   7.654   6.202   3.172 -1.3346  1.5976 -1.3894
 5558SOL    HW218349   7.711   6.289   3.283 -0.3810 -0.3963 -0.2665
 5559SOL     OW18350   1.090   3.402   7.258 -0.2845 -0.9763  0.6745
 5559SOL    HW118351   1.094   3.494   7.284 -0.4210 -0.1524 -1.8756
 5559SOL    HW218352   1.001   3.391   7.225 -1.1562 -2.8292  3.3207
 5560SOL     OW18353   7.416   1.995   6.050  0.0156  0.0380 -0.1193
 5560SOL    HW118354   7.408   1.992   6.146  1.5096  1.6392  0.1075
 5560SOL    HW218355   7.488   2.056   6.034 -0.6875  0.3872 -2.2998
 5561SOL     OW18356   6.985   0.647   2.835 -0.1348  0.2244 -0.9040
 5561SOL    HW118357   6.930   0.626   2.759  0.3220 -2.6878 -0.5579
 5561SOL    HW218358   6.929   0.702   2.890 -2.6413 -2.1482 -0.8147
 5562SOL     OW18359   0.906   0.476   4.148 -0.1753 -0.4149  0.4015
 5562SOL    HW118360   0.847   0.552   4.147 -1.1564 -1.0740  2.2272
 5562SOL    HW218361   0.971   0.498   4.216 -0.4517 -1.1677  0.9233
 5563SOL     OW18362   5.537   1.323   2.653 -0.3896  0.5327 -0.3587
 5563SOL    HW118363   5.571   1.317   2.563 -1.6830 -0.5981 -0.8176
 5563SOL    HW218364   5.606   1.367   2.702  1.4160 -1.0245 -1.3779
 5564SOL     OW18365   1.805   7.722   2.230  0.0328 -0.5120  0.2379
 5564SOL    HW118366   1.801   7.817   2.227 -0.6589 -0.5382  0.0517
 5564SOL    HW218367   1.878   7.702   2.289  0.0268  0.1298  0.4653
 5565SOL     OW18368   3.842   4.501   7.151 -0.4738  0.2816 -0.1780
 5565SOL    HW118369   3.872   4.430   7.208 -1.2257 -1.3947 -1.7366
 5565SOL    HW218370   3.899   4.497   7.074 -0.4536  1.4669 -0.2465
 5566SOL     OW18371   6.739   6.990   2.435 -0.0903 -0.4192 -0.0526
 5566SOL    HW118372   6.741   6.899   2.467  0.5036  0.4293  2.6119
 5566SOL    HW218373   6.776   7.041   2.508  0.3572  1.8811 -1.7958
 5567SOL     OW18374   5.043   3.950   7.058 -0.5254  0.1406  0.0053
 5567SOL    HW118375   5.052   3.893   7.135 -1.2297  1.4358  1.0855
 5567SOL    HW218376   5.100   4.025   7.077  0.4762 -0.2104 -1.4452
 5568SOL     OW18377   5.895   7.434   1.992  0.3726  0.2440 -0.3141
 5568SOL    HW118378   5.821   7.481   1.953 -0.8350 -0.1381  1.4047
 5568SOL    HW218379   5.890   7.346   1.955  0.5455  0.4821 -0.9137
 5569SOL     OW18380   5.637   7.868   1.216 -0.2615  0.2745  0.1104
 5569SOL    HW118381   5.622   7.848   1.124  1.8671  0.8645 -0.4229
 5569SOL    HW218382   5.574   7.938   1.236  1.5409  2.6494 -1.9543
 5570SOL     OW18383   7.270   6.838   3.013 -0.0638 -0.3429 -0.1535
 5570SOL    HW118384   7.326   6.914   2.994 -0.4572 -0.0457 -0.1550
 5570SOL    HW218385   7.221   6.864   3.091 -1.2921  0.0209 -1.0075
 5571SOL     OW18386   0.188   9.654   3.483 -0.2425  0.0557 -0.8072
 5571SOL    HW118387   0.097   9.675   3.462 -0.3124  1.5297  0.7144
 5571SOL    HW218388   0.187   9.633   3.577  0.9226 -0.3700 -0.8670
 5572SOL     OW18389   8.377   2.939   2.247 -0.0553  0.0144 -0.8893
 5572SOL    HW118390   8.362   2.945   2.341  0.1976  1.1939 -0.9045
 5572SOL    HW218391   8.296   2.972   2.208 -0.5269 -1.3519 -1.1176
 5573SOL     OW18392   3.210   5.166   6.882  0.1475  0.5393  0.2907
 5573SOL    HW118393   3.277   5.100   6.899 -1.4328 -1.0691  0.5965
 5573SOL    HW218394   3.195   5.161   6.788 -1.0409 -0.6837  0.5150
 5574SOL     OW18395   1.688   3.120   4.485  0.3692 -0.4023 -0.4065
 5574SOL    HW118396   1.639   3.071   4.551 -2.3273  1.0009 -1.2299
 5574SOL    HW218397   1.764   3.153   4.532 -0.2547 -1.3666  1.3838
 5575SOL     OW18398   7.170   2.323   9.296 -0.5510  0.0089  0.5025
 5575SOL    HW118399   7.159   2.252   9.232 -1.2808  0.2095  0.3964
 5575SOL    HW218400   7.258   2.357   9.278 -0.1265 -0.9618  0.6587
 5576SOL     OW18401   3.812   4.258   7.578 -0.3023  0.3314 -0.0367
 5576SOL    HW118402   3.821   4.166   7.603  0.0313  0.3058 -0.2489
 5576SOL    HW218403   3.866   4.306   7.640 -1.4898  0.5185  0.8903
 5577SOL     OW18404   7.199   8.722   0.305  0.5504 -0.3630  0.1368
 5577SOL    HW118405   7.189   8.634   0.269 -1.2797  0.2110 -0.9026
 5577SOL    HW218406   7.255   8.768   0.243  1.9741 -0.9008  0.9680
 5578SOL     OW18407   4.879   8.777   6.841 -0.4100 -0.0259 -0.0569
 5578SOL    HW118408   4.940   8.840   6.804 -1.0476  1.2489  0.9973
 5578SOL    HW218409   4.928   8.736   6.913 -0.0982 -0.5526 -0.5565
 5579SOL     OW18410   1.072   4.595   5.378 -0.5670  0.4007  0.2237
 5579SOL    HW118411   1.167   4.598   5.390 -0.5997  0.5559  0.4521
 5579SOL    HW218412   1.049   4.503   5.392 -0.6830  0.6629  2.0314
 5580SOL     OW18413   2.662   4.648   1.124 -0.3066  0.7184  0.0680
 5580SOL    HW118414   2.674   4.700   1.204 -0.9019 -0.4440  0.9361
 5580SOL    HW218415   2.590   4.693   1.078 -2.2026 -0.3738  1.7755
 5581SOL     OW18416   8.953   7.951   9.623 -0.2189  0.0357  0.0903
 5581SOL    HW118417   8.872   7.946   9.572 -0.5215  1.2054  0.4411
 5581SOL    HW218418   9.014   7.892   9.577 -1.7294 -2.1651  0.7432
 5582SOL     OW18419   8.312   0.517   4.870  0.3886 -0.0855 -0.8362
 5582SOL    HW118420   8.313   0.594   4.928 -0.5146 -0.4087 -0.3640
 5582SOL    HW218421   8.282   0.445   4.927  3.5724 -1.3738 -0.6082
 5583SOL     OW18422   4.045   2.781   3.863 -0.1535 -0.4413  0.0923
 5583SOL    HW118423   4.119   2.721   3.858  1.1250  0.9955  1.2555
 5583SOL    HW218424   3.970   2.723   3.879  1.0749 -1.7388  1.5380
 5584SOL     OW18425   6.179   9.156   1.252 -0.3258 -0.5662 -0.0490
 5584SOL    HW118426   6.152   9.087   1.312  0.5285 -1.6477 -0.8612
 5584SOL    HW218427   6.254   9.197   1.295  0.8403 -1.9111 -0.7163
 5585SOL     OW18428   6.195   5.481   4.244 -0.5424 -0.2343  0.1883
 5585SOL    HW118429   6.179   5.574   4.261  0.0268 -0.2332  0.7619
 5585SOL    HW218430   6.177   5.438   4.328 -0.3218 -0.5758  0.0613
 5586SOL     OW18431   0.477   7.252   8.332 -0.0501 -0.4205 -1.0406
 5586SOL    HW118432   0.460   7.340   8.363 -0.1384 -1.2899  1.6655
 5586SOL    HW218433   0.571   7.250   8.316  0.3005 -0.3431  0.8344
 5587SOL     OW18434   7.493   3.896   3.290  0.1262  0.2170 -0.1780
 5587SOL    HW118435   7.467   3.950   3.215  3.5324  1.0757 -0.9275
 5587SOL    HW218436   7.549   3.953   3.343  0.9047 -1.5040  0.9543
 5588SOL     OW18437   7.525   8.053   5.715 -0.4269  0.1994  0.4806
 5588SOL    HW118438   7.614   8.019   5.717 -0.8519 -1.0103  3.2140
 5588SOL    HW218439   7.532   8.138   5.671  1.8875 -0.2636 -0.1391
 5589SOL     OW18440   8.710   3.404   4.244 -0.2248 -0.3070 -0.2028
 5589SOL    HW118441   8.695   3.348   4.168 -0.8169  0.5309 -0.7275
 5589SOL    HW218442   8.801   3.431   4.237 -0.2333 -0.3640 -0.5287
 5590SOL     OW18443   3.421   4.621   4.643  0.3455 -0.1205 -0.0674
 5590SOL    HW118444   3.475   4.694   4.613  0.1264  0.5515  1.1282
 5590SOL    HW218445   3.461   4.592   4.725 -1.5682  0.9743  1.3227
 5591SOL     OW18446   7.166   6.152   7.866 -0.0898 -0.4533  0.6767
 5591SOL    HW118447   7.085   6.102   7.873 -0.8661  0.5296 -0.8339
 5591SOL    HW218448   7.156   6.222   7.931 -0.2200 -0.6238  0.8421
 5592SOL     OW18449   4.385   0.841   8.607  0.0012  0.0453  0.1881
 5592SOL    HW118450   4.436   0.902   8.661 -0.0602  0.1409  0.1373
 5592SOL    HW218451   4.449   0.806   8.544 -0.0433  0.3199 -0.0074
 5593SOL     OW18452   1.576   8.648   0.487 -0.2316  0.0611 -0.4059
 5593SOL    HW118453   1.565   8.553   0.479  0.5733 -0.2335  1.4440
 5593SOL    HW218454   1.664   8.665   0.454  0.5712 -0.2432  1.3942
 5594SOL     OW18455   4.463   3.650   9.193 -0.1745  0.2587 -0.2770
 5594SOL    HW118456   4.458   3.572   9.138  2.5895  0.7613 -1.4236
 5594SOL    HW218457   4.474   3.617   9.282  0.5835 -0.6614 -0.7031
 5595SOL     OW18458   9.022   3.827   0.359  0.0331 -0.1873  0.5356
 5595SOL    HW118459   9.113   3.802   0.342 -0.2822 -0.7264 -0.4296
 5595SOL    HW218460   8.978   3.815   0.275 -0.7482  0.9075  0.7710
 5596SOL     OW18461   8.101   0.065   6.285 -0.1193  0.1939  0.1403
 5596SOL    HW118462   8.108   0.119   6.363 -0.4085 -2.0682  1.8251
 5596SOL    HW218463   8.190   0.065   6.248 -0.0974  1.6909  0.0991
 5597SOL     OW18464   0.318   3.289   4.391  0.2351 -0.0250 -0.6975
 5597SOL    HW118465   0.294   3.285   4.299  1.5124  0.2678 -1.0582
 5597SOL    HW218466   0.275   3.212   4.430 -1.4416  0.5938 -1.2313
 5598SOL     OW18467   1.798   5.616   2.881 -0.3158  0.3608  0.6247
 5598SOL    HW118468   1.740   5.578   2.947  0.1456 -1.6198 -0.0313
 5598SOL    HW218469   1.759   5.591   2.797  1.8893 -1.9359  0.1362
 5599SOL     OW18470   6.681   1.082   6.282  0.4352 -0.2930  0.3304
 5599SOL    HW118471   6.774   1.103   6.287  0.2935  0.5456 -0.2756
 5599SOL    HW218472   6.644   1.114   6.364  0.4525  0.7037 -0.0294
 5600SOL     OW18473   3.527   9.547   0.824 -0.2133 -0.1526  0.1440
 5600SOL    HW118474   3.537   9.459   0.862  0.4587 -0.2542 -0.2508
 5600SOL    HW218475   3.466   9.592   0.883 -0.4456 -0.8349  0.4339
 5601SOL     OW18476   9.170   7.022   4.702  0.7158 -0.0655 -0.2978
 5601SOL    HW118477   9.209   6.956   4.645  0.7835  0.0567 -0.3930
 5601SOL    HW218478   9.233   7.095   4.701  0.6404  0.0013 -0.1960
 5602SOL     OW18479   1.350   0.688   2.845 -0.1450  0.0828  0.2956
 5602SOL    HW118480   1.398   0.661   2.923 -0.2548 -2.2060 -0.3429
 5602SOL    HW218481   1.407   0.664   2.772 -0.0875  2.0797 -0.3841
 5603SOL     OW18482   3.152   1.856   8.872  0.1229  0.5355  0.5860
 5603SOL    HW118483   3.061   1.860   8.901 -0.3580 -1.3850 -0.4423
 5603SOL    HW218484   3.201   1.903   8.939 -1.3920 -0.2187  2.3202
 5604SOL     OW18485   6.424   4.527   7.300 -0.3227  0.2514  0.1154
 5604SOL    HW118486   6.417   4.589   7.228 -1.3644  0.1860  0.1455
 5604SOL    HW218487   6.334   4.501   7.319  0.1060 -1.6865 -0.2590
 5605SOL     OW18488   6.898   2.263   8.928  0.4774 -0.0106  0.6010
 5605SOL    HW118489   6.925   2.237   9.017  1.1606  1.4869  0.8631
 5605SOL    HW218490   6.961   2.218   8.871  0.6352 -0.2252  0.9360
 5606SOL     OW18491   0.666   2.224   4.265  0.2501 -0.6926  0.0856
 5606SOL    HW118492   0.645   2.278   4.341 -5.1314 -0.1789 -1.3468
 5606SOL    HW218493   0.646   2.135   4.293 -0.1568 -0.7048 -0.2334
 5607SOL     OW18494   4.235   0.691   0.820 -0.3824 -0.2031  0.5651
 5607SOL    HW118495   4.223   0.743   0.899 -2.1032  0.4122 -0.0581
 5607SOL    HW218496   4.202   0.746   0.749  3.0716  0.1685 -0.9702
 5608SOL     OW18497   0.296   8.614   5.308  0.2807 -0.2602  0.0033
 5608SOL    HW118498   0.329   8.640   5.394 -1.2532 -0.0538  0.5561
 5608SOL    HW218499   0.361   8.648   5.246  2.2138 -1.7346  1.1155
 5609SOL     OW18500   4.980   7.126   2.366 -0.3594  0.6333 -0.2668
 5609SOL    HW118501   4.976   7.157   2.276  1.5195 -0.3219 -0.7416
 5609SOL    HW218502   4.904   7.068   2.375  1.6541 -2.7732 -2.7417
 5610SOL     OW18503   2.869   1.835   0.642  0.0183  0.5699  0.7818
 5610SOL    HW118504   2.919   1.854   0.722 -0.9411 -0.5042  1.6746
 5610SOL    HW218505   2.864   1.920   0.597  2.4031  0.7635  0.7498
 5611SOL     OW18506   8.391   4.115   3.304  0.4743 -0.0711  0.2135
 5611SOL    HW118507   8.482   4.127   3.274  0.2957  2.1137  0.3219
 5611SOL    HW218508   8.358   4.042   3.252  2.0114 -0.2898 -0.5206
 5612SOL     OW18509   9.434   5.088   7.205  0.4239  0.3341 -0.2967
 5612SOL    HW118510   9.475   5.147   7.268 -1.7974  1.6023  0.0779
 5612SOL    HW218511   9.391   5.147   7.142  1.5179 -0.9111 -2.2907
 5613SOL     OW18512   2.662   3.609   3.038 -0.0064 -0.1384 -0.5465
 5613SOL    HW118513   2.663   3.632   3.131  1.5381 -1.5849 -0.1635
 5613SOL    HW218514   2.719   3.673   2.997 -1.7507  1.3541 -0.7768
 5614SOL     OW18515   3.786   2.247   0.404 -0.1775 -0.2959 -0.6704
 5614SOL    HW118516   3.836   2.323   0.375  0.6984 -0.9386 -0.8596
 5614SOL    HW218517   3.704   2.284   0.438  0.3840  0.7588 -0.4249
 5615SOL     OW18518   1.108   1.443   2.955 -0.2209  0.0909  0.3114
 5615SOL    HW118519   1.177   1.483   2.902 -0.1445 -0.8772 -0.3492
 5615SOL    HW218520   1.108   1.350   2.929 -1.1735 -0.1065  0.9456
 5616SOL     OW18521   5.084   1.656   9.157  0.0684  0.3372 -0.2862
 5616SOL    HW118522   4.998   1.693   9.136  0.1281  0.6931  0.0632
 5616SOL    HW218523   5.123   1.633   9.073 -0.4648 -0.0428 -0.4290
 5617SOL     OW18524   7.743   3.272   0.115  0.5417 -0.0758  0.2904
 5617SOL    HW118525   7.745   3.368   0.118  0.0193 -0.0285 -0.5651
 5617SOL    HW218526   7.728   3.246   0.206  1.8729  0.6032  0.7258
 5618SOL     OW18527   3.679   0.527   4.377  0.0557 -0.4395  0.4925
 5618SOL    HW118528   3.651   0.533   4.468  2.1167 -1.3528  1.2354
 5618SOL    HW218529   3.598   0.509   4.329 -0.9774 -0.6026  2.2069
 5619SOL     OW18530   1.807   5.903   1.952 -0.2001  0.4376 -0.4506
 5619SOL    HW118531   1.827   5.934   2.040 -1.1850 -0.7483  0.2183
 5619SOL    HW218532   1.891   5.873   1.916 -0.2049 -1.6133  1.1255
 5620SOL     OW18533   7.746   9.249   5.998 -0.0867  0.4684 -0.2327
 5620SOL    HW118534   7.665   9.200   5.990 -0.5097  1.2900 -1.1578
 5620SOL    HW218535   7.774   9.264   5.907 -0.9025  3.4312 -0.0699
 5621SOL     OW18536   5.780   9.647   4.525  1.1433 -0.2151 -0.1138
 5621SOL    HW118537   5.798   9.732   4.564  0.4255 -0.6917  1.2991
 5621SOL    HW218538   5.692   9.624   4.556  1.0662 -1.1953 -0.9866
 5622SOL     OW18539   5.774   1.382   7.769  0.3827  1.1371 -0.0351
 5622SOL    HW118540   5.787   1.468   7.809 -0.3875  0.0962  2.6638
 5622SOL    HW218541   5.772   1.321   7.842 -0.2562 -1.0700 -1.7697
 5623SOL     OW18542   5.142   7.114   5.055  0.5575  0.2263 -1.2720
 5623SOL    HW118543   5.128   7.200   5.016  1.0680  0.3755 -1.1326
 5623SOL    HW218544   5.203   7.071   4.996  0.7763  0.1864 -1.0161
 5624SOL     OW18545   5.739   4.225   1.173 -0.3387 -0.4986  0.4425
 5624SOL    HW118546   5.828   4.247   1.199 -0.5236 -0.4756  1.0779
 5624SOL    HW218547   5.748   4.180   1.089  0.2982 -0.8475  0.6969
 5625SOL     OW18548   8.296   1.148   3.575 -0.7468 -0.0134 -0.4907
 5625SOL    HW118549   8.276   1.147   3.669 -1.7202  0.2633 -0.6767
 5625SOL    HW218550   8.378   1.099   3.567 -0.7181 -0.1521  0.4857
 5626SOL     OW18551   7.548   5.674   5.850  0.0339  0.4606  0.2787
 5626SOL    HW118552   7.536   5.764   5.823 -0.0326  0.5308  0.5344
 5626SOL    HW218553   7.574   5.680   5.942  1.4250  0.2828 -0.0798
 5627SOL     OW18554   6.194   4.143   7.052  0.3266  0.4129 -0.1990
 5627SOL    HW118555   6.206   4.196   6.973 -0.5740  0.7106 -0.1493
 5627SOL    HW218556   6.263   4.171   7.112  0.6445  0.6092 -0.6576
 5628SOL     OW18557   1.804   7.340   0.960  0.5992 -0.5141  0.0931
 5628SOL    HW118558   1.843   7.264   0.917  2.5135  0.6804 -0.4366
 5628SOL    HW218559   1.866   7.412   0.942 -1.1765  1.1917  0.4736
 5629SOL     OW18560   0.091   1.937   2.824 -0.3305 -0.1875 -0.2155
 5629SOL    HW118561   0.132   1.951   2.909 -1.4037 -1.0580  0.4719
 5629SOL    HW218562   0.046   2.019   2.805  1.1401  0.5498 -0.6806
 5630SOL     OW18563   3.695   2.708   4.675  0.0027 -0.0911  0.3079
 5630SOL    HW118564   3.675   2.781   4.617 -0.1851 -0.2947  0.1140
 5630SOL    HW218565   3.687   2.744   4.763 -2.6490 -0.4938  0.3051
 5631SOL     OW18566   8.587   0.233   8.906 -0.1804 -0.4798  0.0953
 5631SOL    HW118567   8.596   0.174   8.981 -0.4405  1.8742  2.0592
 5631SOL    HW218568   8.500   0.214   8.871 -1.4907  0.6759  2.5214
 5632SOL     OW18569   9.150   9.010   3.342 -0.4703 -0.1033 -0.2914
 5632SOL    HW118570   9.148   8.973   3.254 -1.5769 -1.5491  0.3090
 5632SOL    HW218571   9.058   9.013   3.369 -0.1945  0.8999  0.5939
 5633SOL     OW18572   0.565   8.559   1.383  0.3368  0.4630  0.5010
 5633SOL    HW118573   0.546   8.552   1.290  0.8956  0.7445  0.3649
 5633SOL    HW218574   0.580   8.468   1.411  1.3531  0.4838  0.0587
 5634SOL     OW18575   7.959   7.631   1.875 -0.0542  0.2996  0.0276
 5634SOL    HW118576   8.002   7.669   1.798 -0.5827  0.3749 -0.2317
 5634SOL    HW218577   7.868   7.621   1.849  0.0110 -0.8565  0.2028
 5635SOL     OW18578   2.997   7.839   9.200 -0.0849 -0.3478  0.1680
 5635SOL    HW118579   2.994   7.856   9.294  0.6756  0.4739  0.0527
 5635SOL    HW218580   2.987   7.925   9.160  1.3120 -0.4470 -0.4647
 5636SOL     OW18581   9.121   1.382   9.668 -0.1162 -0.1452 -0.6400
 5636SOL    HW118582   9.146   1.326   9.594  2.8726  1.5625 -1.1138
 5636SOL    HW218583   9.027   1.368   9.679 -0.2249 -2.1966 -3.2687
 5637SOL     OW18584   4.857   6.263   0.714  0.0527  0.3660 -0.5384
 5637SOL    HW118585   4.950   6.285   0.719  0.1984 -0.3449  0.1187
 5637SOL    HW218586   4.848   6.215   0.631  0.0792  1.2835 -1.0797
 5638SOL     OW18587   7.494   0.977   1.710  0.2171 -0.0619  0.3974
 5638SOL    HW118588   7.416   0.924   1.695  0.9842 -1.1595  0.1786
 5638SOL    HW218589   7.568   0.918   1.692  1.1230  0.5393  1.8686
 5639SOL     OW18590   2.274   7.010   3.882 -1.0463  0.0488 -0.3659
 5639SOL    HW118591   2.274   6.922   3.920  0.8199  0.0951 -0.1682
 5639SOL    HW218592   2.241   6.998   3.793  1.0535 -1.2112 -1.0317
 5640SOL     OW18593   6.739   7.967   7.149  0.1722  0.1917  0.6168
 5640SOL    HW118594   6.743   7.929   7.237  0.0244 -0.0365  0.5264
 5640SOL    HW218595   6.761   8.059   7.161 -0.5193  0.3155  0.9956
 5641SOL     OW18596   1.955   2.343   2.042  0.2165 -0.4512  0.4074
 5641SOL    HW118597   2.031   2.388   2.004 -0.6076 -0.8735 -1.9356
 5641SOL    HW218598   1.897   2.413   2.069 -0.2183 -0.0355 -1.4437
 5642SOL     OW18599   2.213   4.708   1.434  0.2067 -0.7971  0.4256
 5642SOL    HW118600   2.294   4.658   1.426  1.6012  1.3202  0.4606
 5642SOL    HW218601   2.200   4.746   1.347 -1.4184 -2.0049  0.0986
 5643SOL     OW18602   5.598   9.137   2.718  0.4456 -0.0458  0.0898
 5643SOL    HW118603   5.620   9.046   2.737 -1.2198 -0.2861  1.0740
 5643SOL    HW218604   5.612   9.145   2.624 -0.7395 -1.7509 -0.2859
 5644SOL     OW18605   6.515   8.710   6.980 -0.5064  0.3011  0.5256
 5644SOL    HW118606   6.491   8.628   6.937 -0.0090  0.8275 -0.8134
 5644SOL    HW218607   6.449   8.722   7.048  0.3548 -2.0057  1.8459
 5645SOL     OW18608   5.521   2.110   3.905 -0.1430  0.6151  0.0678
 5645SOL    HW118609   5.531   2.191   3.854  1.3824  0.6346  0.3441
 5645SOL    HW218610   5.497   2.140   3.992  0.1007  0.7612  0.0864
 5646SOL     OW18611   7.499   3.971   7.188 -0.6330  0.3782  0.2025
 5646SOL    HW118612   7.442   3.930   7.253 -1.4017  1.5700  0.3305
 5646SOL    HW218613   7.584   3.980   7.231 -0.8429  0.1757  0.6593
 5647SOL     OW18614   5.231   7.782   8.428 -0.5604 -0.1208  0.1786
 5647SOL    HW118615   5.145   7.824   8.434  0.1558  1.2847  1.1783
 5647SOL    HW218616   5.293   7.850   8.453  0.9042 -0.9689 -0.9692
 5648SOL     OW18617   8.645   5.229   8.383  0.3526 -0.1582  0.2466
 5648SOL    HW118618   8.665   5.317   8.350 -0.0371 -0.0573  0.2768
 5648SOL    HW218619   8.682   5.170   8.317  1.8505 -0.0100  0.9044
 5649SOL     OW18620   7.068   2.434   3.012  0.0266 -0.6735 -0.5818
 5649SOL    HW118621   7.018   2.355   3.030  2.3906 -1.8714  1.2148
 5649SOL    HW218622   7.156   2.416   3.045  0.5763  2.8809  0.3994
 5650SOL     OW18623   7.995   4.384   5.005 -0.2753  0.6308  0.9917
 5650SOL    HW118624   7.906   4.365   5.034 -0.4787  0.3457  0.2055
 5650SOL    HW218625   7.987   4.400   4.911  0.6778 -0.6529  0.6576
 5651SOL     OW18626   4.140   2.620   0.247 -0.3379  0.1872  0.1661
 5651SOL    HW118627   4.107   2.530   0.250 -0.0867 -0.0449 -2.2815
 5651SOL    HW218628   4.219   2.617   0.302  0.3176 -1.4199 -0.7666
 5652SOL     OW18629   5.258   8.346   1.078 -0.5713  0.3308  0.5760
 5652SOL    HW118630   5.284   8.256   1.057 -1.8477 -0.2308  1.3259
 5652SOL    HW218631   5.207   8.374   1.002  0.2891  0.6439  0.0947
 5653SOL     OW18632   2.239   5.025   5.098 -0.1051 -0.1307 -0.2910
 5653SOL    HW118633   2.175   4.965   5.059 -1.7228 -1.2549  3.6224
 5653SOL    HW218634   2.194   5.110   5.099 -1.2070 -0.6832  1.4364
 5654SOL     OW18635   9.649   3.398   7.873  0.3796 -0.0772  0.1183
 5654SOL    HW118636   9.708   3.350   7.932  2.8716  0.3917 -1.8326
 5654SOL    HW218637   9.629   3.479   7.921  0.8512 -0.5084  1.0802
 5655SOL     OW18638   6.216   5.393   3.973 -0.2138  0.2777 -0.2251
 5655SOL    HW118639   6.206   5.433   4.060 -0.9793  2.1263 -1.1147
 5655SOL    HW218640   6.132   5.409   3.930  0.4320  0.0918 -1.5960
 5656SOL     OW18641   9.200   3.348   0.128  0.3205 -0.4398  0.1041
 5656SOL    HW118642   9.170   3.267   0.087 -0.2006 -0.2780  0.1641
 5656SOL    HW218643   9.152   3.417   0.082 -0.8001 -0.2970  1.4426
 5657SOL     OW18644   2.979   1.857   2.677  0.3599 -0.1282  0.0798
 5657SOL    HW118645   2.963   1.763   2.690  0.7290 -0.2712 -0.4881
 5657SOL    HW218646   2.892   1.893   2.658  0.2605 -0.4015  0.0099
 5658SOL     OW18647   3.734   4.058   0.756 -0.1512 -0.6720  0.3603
 5658SOL    HW118648   3.737   3.979   0.809 -1.3359 -1.3687 -0.5552
 5658SOL    HW218649   3.708   4.028   0.669 -0.5870  0.7117 -0.0205
 5659SOL     OW18650   5.769   9.615   6.695  0.2357  0.4400 -0.0715
 5659SOL    HW118651   5.788   9.535   6.646  2.8325 -1.2586  3.3082
 5659SOL    HW218652   5.853   9.662   6.698  0.1445  0.5844  2.3962
 5660SOL     OW18653   1.194   5.398   5.299  0.2824  0.6417  0.6014
 5660SOL    HW118654   1.231   5.353   5.375  0.6273  0.6670  0.4504
 5660SOL    HW218655   1.135   5.464   5.336  1.4222  1.5131  0.8885
 5661SOL     OW18656   2.957   5.540   0.485  0.2424 -0.1522  0.3546
 5661SOL    HW118657   3.020   5.534   0.413 -0.7441  2.8207 -0.9499
 5661SOL    HW218658   2.873   5.553   0.441 -0.8527 -1.0371  2.0827
 5662SOL     OW18659   3.398   4.324   4.744  0.0070 -0.4180  0.3440
 5662SOL    HW118660   3.396   4.351   4.836  2.3619 -0.6569  0.5217
 5662SOL    HW218661   3.475   4.268   4.737  0.0949 -0.1135 -1.8656
 5663SOL     OW18662   9.522   8.515   5.155 -0.5951 -0.4698 -0.0988
 5663SOL    HW118663   9.480   8.518   5.241 -1.3550  0.0211 -0.4820
 5663SOL    HW218664   9.613   8.490   5.174 -0.7758 -0.4514  0.8376
 5664SOL     OW18665   8.931   6.707   4.160 -0.4811  0.1661 -0.3356
 5664SOL    HW118666   9.010   6.739   4.115 -1.0605 -0.2497 -1.6941
 5664SOL    HW218667   8.890   6.786   4.196  0.7944  0.3348  0.8365
 5665SOL     OW18668   4.794   0.322   6.885 -0.0209 -0.1248  0.3893
 5665SOL    HW118669   4.838   0.239   6.901  0.4723  0.0459 -0.0410
 5665SOL    HW218670   4.736   0.334   6.960  1.8029  0.4046  1.7878
 5666SOL     OW18671   5.186   0.726   4.520 -0.5230  0.2488 -0.3805
 5666SOL    HW118672   5.146   0.735   4.434 -1.1465  2.2435  0.0753
 5666SOL    HW218673   5.243   0.802   4.528 -2.6863  1.7604  2.0758
 5667SOL     OW18674   9.140   5.317   8.971  0.4732  0.2286 -0.3324
 5667SOL    HW118675   9.133   5.359   8.885 -0.7388 -0.0476 -0.3812
 5667SOL    HW218676   9.182   5.233   8.953  0.5637  0.3272 -0.5934
 5668SOL     OW18677   3.721   3.392   4.067 -0.3420 -0.2257  0.0632
 5668SOL    HW118678   3.716   3.388   3.972 -0.2740  1.6479 -0.0489
 5668SOL    HW218679   3.796   3.336   4.089 -0.1654 -0.4356 -1.0036
 5669SOL     OW18680   1.070   6.816   2.905  0.7600 -0.2518  0.7021
 5669SOL    HW118681   1.047   6.753   2.836 -0.8944  0.2025  0.7981
 5669SOL    HW218682   1.070   6.901   2.862  0.1417 -0.0118  1.1661
 5670SOL     OW18683   3.251   3.649   7.742  0.1180  0.1264  0.0224
 5670SOL    HW118684   3.337   3.672   7.709 -0.6908  0.4816 -1.9650
 5670SOL    HW218685   3.233   3.714   7.810  0.7886  1.0167 -0.6297
 5671SOL     OW18686   3.605   4.855   5.027 -0.4793 -0.3018 -0.3026
 5671SOL    HW118687   3.584   4.779   4.972  1.7395 -1.5856  0.4744
 5671SOL    HW218688   3.681   4.895   4.984 -0.7104  0.6040  0.1157
 5672SOL     OW18689   2.997   5.856   5.682 -0.1847 -0.3290 -0.2073
 5672SOL    HW118690   3.032   5.775   5.646 -0.8845 -1.4833  1.5548
 5672SOL    HW218691   3.002   5.919   5.611  2.2564 -1.3624 -1.0348
 5673SOL     OW18692   7.709   9.166   7.333  0.2615 -0.6484  0.2998
 5673SOL    HW118693   7.684   9.216   7.411 -0.7090 -0.4969 -0.0886
 5673SOL    HW218694   7.751   9.087   7.368  2.0960  0.5489  0.9194
 5674SOL     OW18695   8.368   7.764   2.253 -0.2448 -0.4819 -0.2921
 5674SOL    HW118696   8.366   7.834   2.318 -0.5267 -0.7008 -0.0590
 5674SOL    HW218697   8.294   7.708   2.276 -0.7252 -0.2233 -1.1846
 5675SOL     OW18698   9.528   9.092   1.408 -0.0035 -0.0611  0.4437
 5675SOL    HW118699   9.484   9.173   1.385  0.7675  0.8528  2.0546
 5675SOL    HW218700   9.458   9.035   1.440 -0.2534  0.8573  1.6001
 5676SOL     OW18701   7.812   2.272   2.024 -0.3001  0.2065  0.7087
 5676SOL    HW118702   7.830   2.364   2.009 -3.2331  0.5671 -1.3023
 5676SOL    HW218703   7.764   2.270   2.106 -4.1525  1.1954 -1.3040
 5677SOL     OW18704   4.656   3.665   8.714  0.3735 -0.0825  0.1415
 5677SOL    HW118705   4.678   3.680   8.622 -1.4631 -0.3913 -0.3822
 5677SOL    HW218706   4.677   3.748   8.758  1.5545 -0.0363 -0.4698
 5678SOL     OW18707   4.905   3.665   2.834  0.1137 -0.0839 -0.2842
 5678SOL    HW118708   4.851   3.587   2.825 -0.1871  0.1552 -0.6193
 5678SOL    HW218709   4.980   3.638   2.886  0.1593 -0.6729 -0.6490
 5679SOL     OW18710   8.491   7.973   2.085  0.0956 -0.5122  0.2016
 5679SOL    HW118711   8.482   7.891   2.132 -0.4298 -0.0047  1.0212
 5679SOL    HW218712   8.513   7.948   1.995 -0.3750 -1.5461  0.3691
 5680SOL     OW18713   3.225   2.025   1.247 -0.6528 -0.0366 -0.8951
 5680SOL    HW118714   3.153   1.971   1.215 -0.8460 -0.9708  0.9633
 5680SOL    HW218715   3.290   1.962   1.277  0.4504  0.8014 -1.4518
 5681SOL     OW18716   5.550   3.461   2.607  0.0264  0.3631 -0.0979
 5681SOL    HW118717   5.609   3.474   2.681  0.1798  1.0404 -0.3393
 5681SOL    HW218718   5.527   3.549   2.578 -0.9849  0.1141 -0.1055
 5682SOL     OW18719   1.731   5.829   5.588 -0.5181  0.3730 -0.1177
 5682SOL    HW118720   1.675   5.782   5.649  1.2488 -0.9204  0.6054
 5682SOL    HW218721   1.796   5.872   5.643 -0.9033  2.0242 -0.9109
 5683SOL     OW18722   0.412   7.484   7.448 -0.1399  0.1841  0.0669
 5683SOL    HW118723   0.476   7.546   7.414 -0.2794 -0.2759 -1.0896
 5683SOL    HW218724   0.338   7.538   7.474 -0.0089  0.5615 -0.3371
 5684SOL     OW18725   7.630   7.765   9.310  0.1244 -0.0276 -0.0136
 5684SOL    HW118726   7.570   7.693   9.327 -2.6044  2.1572  0.3034
 5684SOL    HW218727   7.675   7.740   9.229 -0.1676 -2.3723  0.4953
 5685SOL     OW18728   2.533   3.801   0.735  0.0480  0.6283 -0.0255
 5685SOL    HW118729   2.447   3.843   0.727 -0.8665 -1.1493 -0.0713
 5685SOL    HW218730   2.596   3.871   0.720 -1.4085  1.7255 -1.2860
 5686SOL     OW18731   7.585   2.176   0.808  0.5893  0.2382  0.4657
 5686SOL    HW118732   7.523   2.215   0.746  0.2594 -1.6164 -0.4248
 5686SOL    HW218733   7.530   2.129   0.871  0.9675  1.4293  1.7420
 5687SOL     OW18734   3.752   3.803   7.059  0.4139 -0.5246  0.5458
 5687SOL    HW118735   3.747   3.709   7.042 -0.1515 -0.6458  1.3226
 5687SOL    HW218736   3.845   3.820   7.075  0.7963 -0.6214 -1.3195
 5688SOL     OW18737   6.008   3.284   4.424 -0.4937  0.8411 -0.3227
 5688SOL    HW118738   5.977   3.371   4.449  0.7534  1.1612  0.2037
 5688SOL    HW218739   6.101   3.284   4.447 -0.4790 -0.6561 -0.2547
 5689SOL     OW18740   0.886   4.475   6.683  0.3140  0.7717 -0.4136
 5689SOL    HW118741   0.945   4.431   6.745  0.6735  0.7397 -0.7729
 5689SOL    HW218742   0.872   4.562   6.720  1.4686  1.1722 -0.8698
 5690SOL     OW18743   6.734   5.058   0.734 -1.0216  0.1767 -0.2929
 5690SOL    HW118744   6.805   5.122   0.736 -0.4578 -0.3507  2.8235
 5690SOL    HW218745   6.778   4.973   0.725 -1.3303 -0.0666  0.3845
 5691SOL     OW18746   3.690   1.857   6.750  0.0552 -0.2293  0.0388
 5691SOL    HW118747   3.723   1.908   6.824 -0.6476  2.1030 -1.1419
 5691SOL    HW218748   3.603   1.829   6.777 -0.7714  1.8032 -0.3402
 5692SOL     OW18749   7.909   3.326   1.471 -0.8771 -0.0975  0.0992
 5692SOL    HW118750   7.999   3.307   1.445 -1.0484 -2.1780  0.8052
 5692SOL    HW218751   7.900   3.421   1.460  1.4869  0.2153  0.3494
 5693SOL     OW18752   4.770   6.218   7.700  0.2700 -0.1219 -0.2789
 5693SOL    HW118753   4.865   6.218   7.687  0.4450 -1.7306  0.7674
 5693SOL    HW218754   4.755   6.151   7.766 -1.7222 -0.7533 -1.3127
 5694SOL     OW18755   7.344   6.065   5.317 -0.4145 -0.2465 -0.0174
 5694SOL    HW118756   7.368   6.059   5.224  1.4825  1.0643  0.3292
 5694SOL    HW218757   7.349   6.158   5.337 -1.6302 -0.4129  1.2376
 5695SOL     OW18758   0.307   8.403   4.637 -0.0730  0.3207  0.7094
 5695SOL    HW118759   0.349   8.485   4.664  2.2420 -0.9824  1.4232
 5695SOL    HW218760   0.304   8.409   4.542  2.3165  0.3307  0.5582
 5696SOL     OW18761   4.390   0.726   1.897 -0.2050 -0.0737 -0.1733
 5696SOL    HW118762   4.426   0.638   1.910 -0.5973 -0.0452  1.3261
 5696SOL    HW218763   4.326   0.716   1.826 -0.2804 -1.0060  0.0116
 5697SOL     OW18764   5.985   1.869   0.924 -0.2347  0.2164  0.1217
 5697SOL    HW118765   5.923   1.878   0.852 -1.0018  0.2504  0.7726
 5697SOL    HW218766   5.939   1.816   0.990  0.8280 -0.6834  0.1760
 5698SOL     OW18767   0.787   4.237   4.650 -0.0608 -0.0817 -0.2674
 5698SOL    HW118768   0.813   4.219   4.560 -0.2921  2.0479 -0.8053
 5698SOL    HW218769   0.779   4.332   4.654  0.9788 -0.0480  2.3030
 5699SOL     OW18770   9.071   8.458   5.414 -0.7789 -0.0879  0.3157
 5699SOL    HW118771   9.005   8.400   5.453 -2.3641 -0.9829 -3.3061
 5699SOL    HW218772   9.027   8.543   5.408 -0.8228 -0.1484 -0.2072
 5700SOL     OW18773   6.506   1.958   2.437 -0.1267  0.3379  0.7852
 5700SOL    HW118774   6.549   1.939   2.353 -0.3062  1.4485  0.4219
 5700SOL    HW218775   6.577   1.955   2.501  0.3069  1.0118  0.3560
 5701SOL     OW18776   8.221   5.294   0.030 -0.0375 -0.1876 -0.3776
 5701SOL    HW118777   8.280   5.301   0.105 -0.8122 -3.0306  0.6191
 5701SOL    HW218778   8.135   5.318   0.065 -0.4109 -1.5689 -0.2723
 5702SOL     OW18779   8.172   2.546   4.662 -0.3166  0.1730  0.1669
 5702SOL    HW118780   8.246   2.530   4.604  0.2175  1.4945  0.4450
 5702SOL    HW218781   8.116   2.606   4.613 -0.5392  0.2136  0.4683
 5703SOL     OW18782   3.115   5.948   6.187 -0.0156  0.2509  0.5089
 5703SOL    HW118783   3.075   5.868   6.154 -0.0775  0.1452  0.8356
 5703SOL    HW218784   3.041   6.003   6.213  0.0518 -0.5117  2.4569
 5704SOL     OW18785   3.460   7.582   7.622  0.0234  0.0869 -0.0571
 5704SOL    HW118786   3.486   7.525   7.550 -2.1792 -0.4401 -0.5027
 5704SOL    HW218787   3.491   7.669   7.597  0.7464 -0.3791 -0.8206
 5705SOL     OW18788   4.426   5.590   3.234 -0.2717 -0.5439  0.3301
 5705SOL    HW118789   4.427   5.676   3.191 -1.6020 -0.6710  0.0327
 5705SOL    HW218790   4.479   5.534   3.177  2.7657  0.6198  1.7733
 5706SOL     OW18791   8.452   6.085   4.086 -0.4157  0.1703 -0.5955
 5706SOL    HW118792   8.407   6.001   4.082 -0.6177  0.2892 -0.8776
 5706SOL    HW218793   8.479   6.103   3.996  0.7519 -0.1895 -0.3304
 5707SOL     OW18794   6.394   5.944   0.761  0.1763  0.2264 -0.1306
 5707SOL    HW118795   6.457   5.916   0.694 -0.5044  0.7784 -1.0249
 5707SOL    HW218796   6.315   5.967   0.711 -0.6063 -0.0779  0.9355
 5708SOL     OW18797   9.267   8.818   5.134 -0.3986  0.6936 -0.2676
 5708SOL    HW118798   9.357   8.826   5.104 -0.7922  0.3509 -1.6208
 5708SOL    HW218799   9.273   8.766   5.214  0.8191  2.8067  1.0946
 5709SOL     OW18800   8.910   0.523   3.187 -0.1227 -0.2504  0.1260
 5709SOL    HW118801   8.935   0.571   3.265  0.4385 -1.7458  0.9121
 5709SOL    HW218802   8.820   0.495   3.204 -0.4164  0.4115 -0.2907
 5710SOL     OW18803   8.608   9.270   1.050  0.6148 -0.5970 -0.1210
 5710SOL    HW118804   8.672   9.301   0.986  1.1720  0.0642  0.7461
 5710SOL    HW218805   8.583   9.348   1.099  0.4323 -1.1526  0.6880
 5711SOL     OW18806   4.262   1.317   9.016  0.1893 -0.2962  0.2974
 5711SOL    HW118807   4.191   1.255   9.029  0.3484 -0.3278  1.0521
 5711SOL    HW218808   4.319   1.276   8.951 -0.7204 -0.0637 -0.6605
 5712SOL     OW18809   5.746   6.513   5.624  0.4473 -0.2602  0.2149
 5712SOL    HW118810   5.718   6.475   5.540  0.2639  0.7899 -0.2118
 5712SOL    HW218811   5.719   6.448   5.689  1.0662 -1.3464 -0.5670
 5713SOL     OW18812   6.009   1.502   8.307  0.1446  0.1667  0.0592
 5713SOL    HW118813   5.996   1.575   8.246  1.0532 -2.0593 -3.0175
 5713SOL    HW218814   6.102   1.484   8.304  0.0390 -0.7316  1.3417
 5714SOL     OW18815   3.986   3.995   6.103  0.6437  0.0728  0.2332
 5714SOL    HW118816   3.962   3.952   6.022  2.3334 -1.2483  0.3834
 5714SOL    HW218817   3.980   4.089   6.083  1.8165 -0.2059 -1.6970
 5715SOL     OW18818   0.452   0.141   1.243  0.5023  0.3587  0.4104
 5715SOL    HW118819   0.410   0.173   1.163 -1.2290 -0.7081  0.8260
 5715SOL    HW218820   0.524   0.087   1.212  0.1196  0.2991 -0.4244
 5716SOL     OW18821   0.324   8.083   7.806 -0.4923 -0.0095 -0.4210
 5716SOL    HW118822   0.244   8.036   7.829  0.6391 -1.4405  0.7826
 5716SOL    HW218823   0.359   8.113   7.889  0.6541 -0.1132 -0.8521
 5717SOL     OW18824   3.411   6.066   5.316  0.4934 -0.5334  0.6916
 5717SOL    HW118825   3.426   6.074   5.411  1.5207 -0.7115  0.5583
 5717SOL    HW218826   3.351   5.992   5.307  0.5044 -0.6058  1.1928
 5718SOL     OW18827   1.890   4.390   4.986 -0.6891 -0.6394 -0.2206
 5718SOL    HW118828   1.833   4.454   5.028  0.4387  1.5646 -1.7981
 5718SOL    HW218829   1.837   4.352   4.916 -1.5723 -1.9908  1.1321
 5719SOL     OW18830   3.244   0.713   7.778 -0.5075  0.5095  0.2050
 5719SOL    HW118831   3.242   0.627   7.736 -1.8810  0.9095 -0.6298
 5719SOL    HW218832   3.281   0.697   7.865  0.6696 -0.6601 -0.4812
 5720SOL     OW18833   0.800   4.731   0.503 -0.2458 -0.3026  0.4268
 5720SOL    HW118834   0.740   4.722   0.430 -0.2851  1.5312  0.1942
 5720SOL    HW218835   0.884   4.697   0.470 -0.2867  0.4095 -0.4574
 5721SOL     OW18836   2.297   2.689   2.853 -0.2548 -0.7517 -0.4068
 5721SOL    HW118837   2.249   2.772   2.850 -0.5823 -0.9077  0.2453
 5721SOL    HW218838   2.344   2.692   2.937  0.5390 -0.7885 -0.8446
 5722SOL     OW18839   4.987   9.035   8.512  0.0604 -0.4729  0.5251
 5722SOL    HW118840   5.033   8.970   8.563 -1.2285 -1.0843  0.9618
 5722SOL    HW218841   5.030   9.034   8.426  1.8315  0.1111  1.3693
 5723SOL     OW18842   5.008   4.926   1.068 -0.2872 -0.1691 -0.1208
 5723SOL    HW118843   5.009   4.959   1.158  1.0380 -0.0162 -0.1637
 5723SOL    HW218844   4.953   4.989   1.020  0.3174  0.6837  0.2703
 5724SOL     OW18845   0.099   2.699   3.878 -0.7443 -0.2979  0.1092
 5724SOL    HW118846   0.131   2.657   3.958  0.8761 -0.7803 -0.7385
 5724SOL    HW218847   0.135   2.646   3.807  0.0569  1.5857 -0.9758
 5725SOL     OW18848   2.856   2.269   9.460  0.1316  0.4600  0.0851
 5725SOL    HW118849   2.905   2.187   9.449 -0.2918  0.0525  1.0598
 5725SOL    HW218850   2.911   2.336   9.420 -0.1516 -0.4896 -1.9969
 5726SOL     OW18851   3.118   1.487   5.772 -0.5518 -0.6137 -0.2234
 5726SOL    HW118852   3.122   1.524   5.684  1.2483 -0.9321 -0.3151
 5726SOL    HW218853   3.207   1.455   5.789 -0.6094  0.1804  2.0139
 5727SOL     OW18854   3.688   1.456   2.091  0.0192 -0.0928  0.7659
 5727SOL    HW118855   3.610   1.414   2.054 -0.4411  1.4255 -0.0632
 5727SOL    HW218856   3.761   1.421   2.040 -0.2355 -0.7227  0.8290
 5728SOL     OW18857   1.143   5.458   7.671  0.5421  0.0573 -0.4414
 5728SOL    HW118858   1.201   5.391   7.708  0.8044  2.2537  3.7017
 5728SOL    HW218859   1.098   5.495   7.746 -3.0024  1.5301 -3.0140
 5729SOL     OW18860   6.367   1.097   3.524 -0.2814  1.0259  0.3443
 5729SOL    HW118861   6.381   1.144   3.606 -0.5318  0.8140  0.5128
 5729SOL    HW218862   6.379   1.005   3.547  1.5152  1.0818 -0.2684
 5730SOL     OW18863   0.811   9.616   1.320 -0.2120  0.2180 -0.0694
 5730SOL    HW118864   0.726   9.609   1.277 -0.4113 -0.0485  0.3612
 5730SOL    HW218865   0.837   9.526   1.337  0.9983  0.1998 -1.7992
 5731SOL     OW18866   5.043   3.267   5.798  0.0970  0.0985 -0.3795
 5731SOL    HW118867   5.134   3.295   5.803 -0.2036  1.2406 -1.0343
 5731SOL    HW218868   4.993   3.348   5.797 -0.9537 -0.5138  0.2355
 5732SOL     OW18869   7.272   7.171   1.773  0.0080 -0.7217 -0.3329
 5732SOL    HW118870   7.271   7.123   1.690  0.8189 -0.0873 -0.7290
 5732SOL    HW218871   7.360   7.157   1.807  0.6214  1.2363 -0.9408
 5733SOL     OW18872   8.454   8.840   8.423 -0.1453 -0.5088  0.7684
 5733SOL    HW118873   8.448   8.745   8.417 -1.2096 -0.6346  2.7847
 5733SOL    HW218874   8.370   8.872   8.391 -0.9958 -0.4848  2.8722
 5734SOL     OW18875   2.362   3.302   3.621  0.0647  0.2305  0.3301
 5734SOL    HW118876   2.390   3.221   3.663  0.2976  0.4904  0.6801
 5734SOL    HW218877   2.272   3.314   3.651  0.2657  0.4709  0.8425
 5735SOL     OW18878   2.514   4.350   0.270  0.8813  0.7534 -1.0400
 5735SOL    HW118879   2.609   4.344   0.285  0.9224  1.0898 -1.1639
 5735SOL    HW218880   2.484   4.413   0.335  0.8455  1.1544 -1.4461
 5736SOL     OW18881   4.576   0.084   1.325 -0.4997 -0.0701 -0.0271
 5736SOL    HW118882   4.605   0.059   1.413  1.3741  0.8307 -0.3519
 5736SOL    HW218883   4.611   0.016   1.268  3.5906  2.3632 -0.7628
 5737SOL     OW18884   4.541   2.963   1.630 -0.0254  0.9081  0.0277
 5737SOL    HW118885   4.594   3.011   1.694 -0.1958  0.8227  0.2343
 5737SOL    HW218886   4.602   2.902   1.589  0.4900  2.1530 -1.1229
 5738SOL     OW18887   6.569   8.773   9.316 -0.0691 -0.5158  0.2748
 5738SOL    HW118888   6.659   8.804   9.308  0.0544 -0.4144  1.8311
 5738SOL    HW218889   6.567   8.693   9.262  0.3176  0.6527 -1.5676
 5739SOL     OW18890   8.264   2.194   8.895 -0.2066  0.2108 -0.1279
 5739SOL    HW118891   8.345   2.184   8.845 -1.2046 -0.9241 -1.6520
 5739SOL    HW218892   8.211   2.118   8.869 -1.9004  1.1216  0.5110
 5740SOL     OW18893   6.159   8.708   3.940  0.0773  0.1488  0.2791
 5740SOL    HW118894   6.160   8.692   4.035  0.6099  0.4910  0.3358
 5740SOL    HW218895   6.210   8.637   3.903  1.0926  0.7983  0.3878
 5741SOL     OW18896   2.522   9.212   9.094  0.0382  0.5401 -0.1320
 5741SOL    HW118897   2.617   9.216   9.091  0.1934 -1.9285 -1.6898
 5741SOL    HW218898   2.503   9.145   9.160 -0.6000  0.9042  0.0580
 5742SOL     OW18899   6.195   3.812   9.312 -0.0302 -0.3250  0.2323
 5742SOL    HW118900   6.191   3.718   9.298  1.3415 -0.4581  0.5962
 5742SOL    HW218901   6.258   3.844   9.247  1.3693 -0.0381  1.6475
 5743SOL     OW18902   5.814   8.538   1.599  0.4710 -0.3361 -0.1179
 5743SOL    HW118903   5.902   8.568   1.576 -0.5027  0.9873 -2.5799
 5743SOL    HW218904   5.763   8.619   1.607 -0.7183 -1.1145  0.3145
 5744SOL     OW18905   1.756   2.319   4.493 -0.1615  0.3294 -0.3599
 5744SOL    HW118906   1.748   2.369   4.411  1.0159 -1.6227 -1.7538
 5744SOL    HW218907   1.832   2.262   4.479 -0.5440 -0.7696  1.7102
 5745SOL     OW18908   0.306   7.253   5.009  0.3355  0.6193  0.4268
 5745SOL    HW118909   0.224   7.203   5.005  0.0214  1.1127  0.6245
 5745SOL    HW218910   0.282   7.341   4.978  1.0012  0.4997 -0.4738
 5746SOL     OW18911   9.113   0.223   0.052  0.2264  0.6228  0.0021
 5746SOL    HW118912   9.129   0.300  -0.003 -0.4870 -0.6912 -2.1355
 5746SOL    HW218913   9.040   0.249   0.108 -1.2061  0.9714 -1.9271
 5747SOL     OW18914   1.225   0.234   1.336 -0.3413 -0.5660 -0.2318
 5747SOL    HW118915   1.298   0.261   1.281 -0.1180 -0.6852  0.0065
 5747SOL    HW218916   1.249   0.147   1.367 -1.6592 -1.6732 -2.0990
 5748SOL     OW18917   6.156   9.513   0.330  0.0731 -0.4508 -0.3039
 5748SOL    HW118918   6.246   9.480   0.326 -0.5853 -2.3717 -0.0762
 5748SOL    HW218919   6.109   9.466   0.261 -0.6458  1.0216 -0.8786
 5749SOL     OW18920   4.017   2.844   6.502 -0.4652  0.2759  0.0132
 5749SOL    HW118921   3.951   2.788   6.545  1.5370 -1.3659  1.1373
 5749SOL    HW218922   4.030   2.803   6.416 -0.0571 -0.1250  0.2628
 5750SOL     OW18923   6.008   4.674   7.632  0.3776 -0.5908 -0.0552
 5750SOL    HW118924   5.969   4.590   7.609  4.3082 -2.5083 -0.5749
 5750SOL    HW218925   6.020   4.671   7.727  0.6811 -0.6851 -0.0965
 5751SOL     OW18926   8.233   8.583   2.627  0.7293  0.2609  0.4907
 5751SOL    HW118927   8.231   8.525   2.551  3.1005  0.6759  0.0492
 5751SOL    HW218928   8.324   8.609   2.635 -0.0143  2.8587  1.5092
 5752SOL     OW18929   4.818   7.341   3.270  0.1154  0.8186  0.5246
 5752SOL    HW118930   4.826   7.309   3.360  0.6561 -1.1278 -0.1654
 5752SOL    HW218931   4.908   7.351   3.240 -0.0378  2.7517  0.5711
 5753SOL     OW18932   2.505   2.395   4.617  0.0116  0.4084  0.4171
 5753SOL    HW118933   2.553   2.477   4.636  0.9313 -0.0982  0.3543
 5753SOL    HW218934   2.553   2.328   4.667  0.2951 -0.3685 -0.8473
 5754SOL     OW18935   5.716   0.393   6.688 -0.1572  0.3012 -0.6752
 5754SOL    HW118936   5.623   0.404   6.669  0.0066  1.3841 -0.9507
 5754SOL    HW218937   5.740   0.472   6.736  0.5931 -0.0203 -0.5061
 5755SOL     OW18938   4.606   6.554   6.934 -0.5405 -0.5949  0.5511
 5755SOL    HW118939   4.540   6.588   6.995 -0.5484  0.3106  0.0556
 5755SOL    HW218940   4.574   6.467   6.910 -2.2480  0.2864 -0.6280
 5756SOL     OW18941   5.184   2.412   5.755  0.3330  0.4123 -0.4597
 5756SOL    HW118942   5.161   2.380   5.668 -1.0123  0.1218 -0.0272
 5756SOL    HW218943   5.262   2.363   5.780 -0.0259 -0.4407 -0.9795
 5757SOL     OW18944   6.936   0.344   7.190  0.3466 -0.0387 -0.2843
 5757SOL    HW118945   6.857   0.317   7.143  0.5546 -0.2201 -0.5341
 5757SOL    HW218946   7.005   0.288   7.154  0.3933 -0.6238  0.6877
 5758SOL     OW18947   7.146   8.020   5.000 -0.3895  0.5082  0.0174
 5758SOL    HW118948   7.107   8.024   4.913  1.4200  0.0438 -0.8566
 5758SOL    HW218949   7.071   8.008   5.059 -1.6070  0.2925 -1.5051
 5759SOL     OW18950   1.227   8.904   4.872 -0.3832 -0.0300  0.1359
 5759SOL    HW118951   1.217   8.832   4.934 -2.0126  0.6758  0.7576
 5759SOL    HW218952   1.187   8.872   4.791 -1.2224  0.2031  0.4500
 5760SOL     OW18953   0.190   8.895   8.017 -0.8174 -0.3689 -0.4118
 5760SOL    HW118954   0.152   8.832   7.956 -1.9330 -1.7617  1.5915
 5760SOL    HW218955   0.140   8.883   8.098 -0.2467  2.2568  0.4356
 5761SOL     OW18956   0.407   2.217   9.139 -0.2807  0.4431 -0.0518
 5761SOL    HW118957   0.312   2.228   9.146 -0.2785  0.3493  0.1710
 5761SOL    HW218958   0.437   2.288   9.084 -0.4114  0.8094  0.3458
 5762SOL     OW18959   3.566   6.506   9.396  0.2196  0.2430  0.7381
 5762SOL    HW118960   3.637   6.533   9.339  0.0162  1.1722  0.9159
 5762SOL    HW218961   3.570   6.566   9.471  0.0744 -0.5337  1.3876
 5763SOL     OW18962   3.944   4.199   4.068  0.6139  0.1816 -0.0040
 5763SOL    HW118963   3.992   4.201   3.986  1.4681 -1.1450  0.4225
 5763SOL    HW218964   3.907   4.110   4.072 -1.7320  1.0626 -0.2064
 5764SOL     OW18965   3.907   3.015   7.969 -0.0336  0.2699  0.3396
 5764SOL    HW118966   3.918   3.009   8.064  1.8282  0.5663  0.1914
 5764SOL    HW218967   3.856   2.938   7.945  0.7626 -0.6196  1.4199
 5765SOL     OW18968   4.294   7.973   7.854 -0.0386 -0.2136 -0.3984
 5765SOL    HW118969   4.383   7.975   7.820 -0.3324 -1.7641 -1.3511
 5765SOL    HW218970   4.295   8.034   7.928  2.3596 -1.6684  0.9161
 5766SOL     OW18971   0.332   9.417   0.436  0.8435 -0.8518  0.1803
 5766SOL    HW118972   0.341   9.477   0.510  2.8692  0.7801 -1.2592
 5766SOL    HW218973   0.248   9.374   0.450  0.6844  0.1454  2.8578
 5767SOL     OW18974   8.414   8.665   7.275  0.3861 -0.1766  0.5740
 5767SOL    HW118975   8.411   8.603   7.347  0.2755  0.2254  0.9138
 5767SOL    HW218976   8.335   8.718   7.284 -0.2713 -0.9030 -0.5520
 5768SOL     OW18977   2.935   0.200   3.675  0.3348 -0.5525 -0.2175
 5768SOL    HW118978   2.872   0.135   3.646  2.3174 -2.0696 -1.4308
 5768SOL    HW218979   2.941   0.188   3.770 -2.5140  0.9848  0.2777
 5769SOL     OW18980   8.411   5.111   6.855 -0.6370  0.3445  0.4332
 5769SOL    HW118981   8.406   5.108   6.950  2.4564  0.3674  0.6807
 5769SOL    HW218982   8.386   5.200   6.832 -2.0352  0.1589  1.1297
 5770SOL     OW18983   2.950   3.867   1.936 -0.0504 -0.0531  0.0952
 5770SOL    HW118984   2.860   3.862   1.970  0.4613 -0.6112  1.4513
 5770SOL    HW218985   2.947   3.821   1.853 -1.1795  0.6052 -0.2450
 5771SOL     OW18986   0.919   6.307   2.071  0.5551 -0.4074 -0.2778
 5771SOL    HW118987   0.876   6.228   2.039  2.6555 -1.3957 -0.8606
 5771SOL    HW218988   0.931   6.362   1.993  1.0289 -0.4949 -0.2715
 5772SOL     OW18989   3.677   4.558   8.647  0.5028 -0.3478 -0.0258
 5772SOL    HW118990   3.692   4.630   8.586  0.1309  1.3825  1.8192
 5772SOL    HW218991   3.584   4.539   8.639  0.8915 -1.7933 -1.6735
 5773SOL     OW18992   2.440   2.019   1.726 -0.8301  0.3816  0.4016
 5773SOL    HW118993   2.418   1.960   1.798 -1.1046 -0.8203 -0.6185
 5773SOL    HW218994   2.380   2.092   1.735  0.2016  1.0720  2.3063
 5774SOL     OW18995   1.973   0.576   4.706 -0.5031 -0.8205 -0.0005
 5774SOL    HW118996   2.019   0.493   4.719  0.0476 -0.7059 -1.0753
 5774SOL    HW218997   1.936   0.569   4.618 -2.2033 -0.7310  0.6746
 5775SOL     OW18998   1.964   5.629   5.151  0.1713  0.0710 -0.3404
 5775SOL    HW118999   1.937   5.567   5.219 -0.4783  0.4763 -0.2195
 5775SOL    HW219000   1.979   5.711   5.198  2.4790 -0.3168 -0.2598
 5776SOL     OW19001   7.036   9.243   4.571  0.3822 -0.1737  0.4378
 5776SOL    HW119002   6.945   9.273   4.570  0.4901  0.1422  0.0229
 5776SOL    HW219003   7.085   9.316   4.609  0.5298 -0.1599  0.2184
 5777SOL     OW19004   7.895   5.643   6.063 -0.4725 -0.3299  0.5609
 5777SOL    HW119005   7.885   5.738   6.056 -1.6966 -0.4314  0.6292
 5777SOL    HW219006   7.859   5.621   6.150 -0.5865 -0.8913  0.3793
 5778SOL     OW19007   7.353   2.417   3.098  0.4252 -0.5321 -0.6701
 5778SOL    HW119008   7.388   2.329   3.113  2.1230  0.4585  2.0620
 5778SOL    HW219009   7.405   2.451   3.025  2.6926 -0.4472  0.8732
 5779SOL     OW19010   8.689   9.670   4.947  0.0084  0.3464 -0.1216
 5779SOL    HW119011   8.680   9.598   4.884 -0.0659  0.2335  0.0183
 5779SOL    HW219012   8.765   9.719   4.917  0.1966  0.0746 -0.0843
 5780SOL     OW19013   4.055   2.165   0.114  0.0395  0.5525  0.2893
 5780SOL    HW119014   4.117   2.129   0.177 -0.1737 -1.5610 -0.6320
 5780SOL    HW219015   3.973   2.121   0.134 -0.3013  0.6877 -0.7746
 5781SOL     OW19016   2.278   3.525   0.723  0.5046 -0.1329 -0.8119
 5781SOL    HW119017   2.265   3.491   0.812 -1.3552 -0.9285 -1.3554
 5781SOL    HW219018   2.242   3.458   0.666  1.6986  0.3617 -2.2061
 5782SOL     OW19019   3.036   1.302   4.527 -0.6157  0.0641 -0.4770
 5782SOL    HW119020   3.100   1.364   4.562 -1.1230  0.6065 -0.5013
 5782SOL    HW219021   2.977   1.356   4.474 -1.1192 -0.4242 -0.4176
 5783SOL     OW19022   7.175   4.451   5.927  0.4428  0.5170 -0.2159
 5783SOL    HW119023   7.140   4.378   5.876 -1.8027  0.1910  1.6088
 5783SOL    HW219024   7.197   4.412   6.012  0.2215  1.7352  0.4320
 5784SOL     OW19025   9.624   6.603   4.431 -0.0089 -0.4736 -0.1210
 5784SOL    HW119026   9.716   6.584   4.446  0.0095 -0.1461  0.1933
 5784SOL    HW219027   9.600   6.548   4.356  1.0216  1.0540 -1.6462
 5785SOL     OW19028   1.744   7.406   3.393  0.1743  0.4067  0.5952
 5785SOL    HW119029   1.756   7.322   3.349 -2.4783 -0.5033  1.4279
 5785SOL    HW219030   1.731   7.469   3.321  2.4993  0.2426 -0.0434
 5786SOL     OW19031   5.898   8.682   6.366 -0.6577 -0.2655  0.2405
 5786SOL    HW119032   5.882   8.740   6.292  1.0951  0.3089  0.2655
 5786SOL    HW219033   5.936   8.738   6.433  1.8061 -1.5064 -0.0161
 5787SOL     OW19034   5.907   2.771   6.409  0.1179  0.4123 -0.0553
 5787SOL    HW119035   5.845   2.706   6.442 -0.5277 -0.1423 -2.1726
 5787SOL    HW219036   5.925   2.827   6.484 -1.0558 -0.8627  1.2546
 5788SOL     OW19037   2.178   8.124   0.102  0.6007 -0.2658 -0.3100
 5788SOL    HW119038   2.093   8.080   0.092  0.0781  0.8992 -1.2265
 5788SOL    HW219039   2.159   8.216   0.084  1.7059  0.3270  1.3541
 5789SOL     OW19040   7.186   1.713   7.891 -0.3183 -0.2296  0.6060
 5789SOL    HW119041   7.215   1.662   7.816 -0.1534  1.3343 -0.4517
 5789SOL    HW219042   7.136   1.652   7.945  0.7543 -1.7362 -0.0437
 5790SOL     OW19043   4.056   4.953   1.416  0.1356 -0.5773  0.2757
 5790SOL    HW119044   3.962   4.953   1.430 -0.5123 -1.4118 -3.1171
 5790SOL    HW219045   4.077   5.044   1.392 -0.2118 -0.8030 -0.9282
 5791SOL     OW19046   4.793   9.024   8.232 -0.2104 -0.1719  0.1478
 5791SOL    HW119047   4.888   9.015   8.225 -0.3355 -1.4137 -0.2259
 5791SOL    HW219048   4.773   9.108   8.191  0.8849  0.9388  1.7923
 5792SOL     OW19049   4.045   6.948   7.588 -0.2770  0.2772 -0.3272
 5792SOL    HW119050   4.106   6.889   7.546 -0.0894  0.1540  0.1076
 5792SOL    HW219051   3.979   6.891   7.627  0.2143  0.3044  0.5814
 5793SOL     OW19052   1.637   6.515   4.856 -0.1408  0.3085  0.6409
 5793SOL    HW119053   1.546   6.543   4.848 -0.3414 -0.2899  0.7412
 5793SOL    HW219054   1.650   6.454   4.782  0.6781  1.6536 -0.3783
 5794SOL     OW19055   6.985   2.902   9.414  0.1421 -0.6765 -0.4385
 5794SOL    HW119056   6.929   2.854   9.353 -1.0291 -0.4858  0.4418
 5794SOL    HW219057   6.924   2.939   9.478  1.2173  0.1755  0.1315
 5795SOL     OW19058   3.486   4.773   0.459  0.7710 -0.2617  0.2811
 5795SOL    HW119059   3.499   4.734   0.373 -0.6977 -0.0720 -0.0499
 5795SOL    HW219060   3.539   4.719   0.518  1.9684 -0.2533 -0.7543
 5796SOL     OW19061   2.747   5.952   0.548  0.4394 -0.3108 -0.1107
 5796SOL    HW119062   2.714   5.870   0.585 -1.7323 -0.0298 -1.3033
 5796SOL    HW219063   2.789   5.926   0.466  0.5376 -0.3210 -0.0577
 5797SOL     OW19064   6.984   1.853   1.196  0.9411 -0.1165 -0.2220
 5797SOL    HW119065   7.044   1.803   1.252 -1.7927 -1.0453  2.1200
 5797SOL    HW219066   6.953   1.924   1.251 -0.8827 -0.2861 -0.9486
 5798SOL     OW19067   3.759   4.399   4.038  0.8321  0.2407  0.4654
 5798SOL    HW119068   3.827   4.337   4.064  2.0378  0.8515 -1.0692
 5798SOL    HW219069   3.688   4.343   4.006  1.0715 -0.3795  0.9832
 5799SOL     OW19070   6.147   1.083   5.147  0.0212 -0.2964  0.1754
 5799SOL    HW119071   6.228   1.045   5.180  0.5729  0.9507  0.3118
 5799SOL    HW219072   6.175   1.157   5.094 -1.0387  0.3879  0.5412
 5800SOL     OW19073   8.076   9.397   7.652 -0.4193 -0.2976 -0.0374
 5800SOL    HW119074   8.017   9.398   7.576 -1.5830  0.6330  0.8526
 5800SOL    HW219075   8.143   9.461   7.631 -0.0948 -0.8502 -0.7478
 5801SOL     OW19076   7.083   2.453   6.080  0.2442  0.1586 -0.5006
 5801SOL    HW119077   7.054   2.447   5.989 -2.1812 -2.6841  0.2785
 5801SOL    HW219078   7.094   2.547   6.096 -1.3798  0.9025 -3.1085
 5802SOL     OW19079   4.974   4.286   3.330  0.4012 -0.8767 -0.1131
 5802SOL    HW119080   5.049   4.345   3.338  0.1530 -0.3196 -1.6278
 5802SOL    HW219081   5.005   4.203   3.368  0.7852  0.1502  1.9817
 5803SOL     OW19082   2.244   4.719   4.903 -0.2831 -0.8576 -0.6486
 5803SOL    HW119083   2.284   4.662   4.968 -1.4472  0.4373  1.2992
 5803SOL    HW219084   2.188   4.661   4.851 -0.7362 -1.6424  0.6811
 5804SOL     OW19085   3.348   5.117   7.665  0.3463  0.0112  0.1315
 5804SOL    HW119086   3.293   5.146   7.737  1.2401  0.6047  0.6049
 5804SOL    HW219087   3.293   5.128   7.587  0.3433  2.2944  0.3803
 5805SOL     OW19088   1.427   8.599   7.848  0.0933 -0.2779  0.1562
 5805SOL    HW119089   1.474   8.527   7.805  0.9102 -0.6599  1.6175
 5805SOL    HW219090   1.346   8.609   7.797  2.1552  1.1325 -3.1379
 5806SOL     OW19091   4.306   4.531   8.157  0.9729 -0.3997 -0.0219
 5806SOL    HW119092   4.249   4.608   8.160  0.9484 -0.1855 -2.8663
 5806SOL    HW219093   4.246   4.457   8.142  1.1612 -0.6990  0.6678
 5807SOL     OW19094   4.841   6.565   7.411  0.1420  0.7216 -0.4461
 5807SOL    HW119095   4.838   6.580   7.506 -1.1760 -0.1061 -0.3228
 5807SOL    HW219096   4.925   6.602   7.383  0.3318  1.4213  0.9612
 5808SOL     OW19097   6.826   5.745   8.859  0.1901  0.3668  0.1231
 5808SOL    HW119098   6.901   5.804   8.855  1.2049 -0.9429 -0.8863
 5808SOL    HW219099   6.811   5.716   8.769  0.9641 -2.3570  0.7529
 5809SOL     OW19100   1.813   7.935   1.083 -0.2457 -0.7010  0.1749
 5809SOL    HW119101   1.845   7.956   1.171 -0.1726  0.8026 -0.1768
 5809SOL    HW219102   1.758   7.858   1.094  0.3719 -0.9774  1.4163
 5810SOL     OW19103   3.850   8.455   7.192  0.5894  0.2280 -0.2411
 5810SOL    HW119104   3.938   8.419   7.188 -0.4526 -2.5423 -0.5990
 5810SOL    HW219105   3.846   8.499   7.277  1.6084 -1.7262  0.8887
 5811SOL     OW19106   1.058   3.828   8.583  0.3374 -0.5667 -0.4525
 5811SOL    HW119107   1.067   3.912   8.538 -2.5506  0.0060 -0.1533
 5811SOL    HW219108   1.077   3.762   8.515  1.4796  0.2787 -0.9900
 5812SOL     OW19109   5.790   2.940   9.537  0.1396 -0.0033  0.0169
 5812SOL    HW119110   5.816   2.982   9.455  0.4641  0.9666  0.5964
 5812SOL    HW219111   5.695   2.952   9.540  0.3954  2.2718  0.9747
 5813SOL     OW19112   6.008   5.178   2.911 -0.7411 -0.0238  0.0199
 5813SOL    HW119113   6.003   5.263   2.956  1.5431  0.7703 -1.0730
 5813SOL    HW219114   6.077   5.131   2.957 -0.3758 -0.3441 -0.8400
 5814SOL     OW19115   8.163   1.454   5.507  0.6626  0.0640 -0.1789
 5814SOL    HW119116   8.258   1.463   5.514  0.7195 -0.0818 -0.7173
 5814SOL    HW219117   8.151   1.369   5.465  0.3545  0.9617 -1.9638
 5815SOL     OW19118   1.750   4.609   2.596 -0.6248 -0.7645  1.3124
 5815SOL    HW119119   1.663   4.636   2.627 -0.0877 -0.4920  2.6503
 5815SOL    HW219120   1.811   4.649   2.658  0.5004 -0.4967  0.0832
 5816SOL     OW19121   5.800   1.477   4.703  0.3456 -0.1724  0.1857
 5816SOL    HW119122   5.837   1.389   4.709  1.4478  0.3706  2.0725
 5816SOL    HW219123   5.856   1.531   4.759 -2.3988  0.9802  2.0411
 5817SOL     OW19124   6.186   8.202   2.528  0.7488 -0.0586  0.1069
 5817SOL    HW119125   6.220   8.288   2.506  0.0090  0.8574  2.3157
 5817SOL    HW219126   6.259   8.142   2.513  1.3348  0.9591 -1.2344
 5818SOL     OW19127   2.274   3.310   6.978 -0.0987  0.2711  0.1358
 5818SOL    HW119128   2.218   3.302   7.055  0.1421 -0.6333  0.2266
 5818SOL    HW219129   2.340   3.243   6.990  0.9977  1.2916  0.0126
 5819SOL     OW19130   6.764   1.668   4.372 -0.2691  0.2661  0.2257
 5819SOL    HW119131   6.807   1.684   4.288  0.0725  0.6586  0.4717
 5819SOL    HW219132   6.674   1.647   4.349  0.3216 -1.8580 -0.3801
 5820SOL     OW19133   2.339   6.410   7.031 -0.3651  0.1397  0.6040
 5820SOL    HW119134   2.332   6.314   7.026 -1.1639  0.1918  0.7092
 5820SOL    HW219135   2.357   6.428   7.124  1.1490  0.0189  0.3626
 5821SOL     OW19136   8.209   8.902   3.649  0.0825  0.4664 -0.5802
 5821SOL    HW119137   8.268   8.976   3.665 -0.9316  1.3639 -0.8855
 5821SOL    HW219138   8.244   8.831   3.703  0.8720  1.2741 -0.0101
 5822SOL     OW19139   6.947   6.784   3.433 -0.0238  0.6833  0.2730
 5822SOL    HW119140   6.994   6.701   3.423  0.1139  0.7797  0.1120
 5822SOL    HW219141   7.000   6.847   3.385  0.3470  1.0436  1.1375
 5823SOL     OW19142   6.047   3.789   3.450  0.1328 -0.2653 -0.4621
 5823SOL    HW119143   5.986   3.785   3.376 -0.0347 -2.1879 -0.2869
 5823SOL    HW219144   6.133   3.800   3.410 -0.1517  0.7528 -0.8104
 5824SOL     OW19145   4.005   5.801   9.099  0.3363  0.0704 -0.3499
 5824SOL    HW119146   4.030   5.892   9.116 -0.3693  0.0691  0.7425
 5824SOL    HW219147   3.911   5.805   9.082  0.2461 -0.4983  0.0195
 5825SOL     OW19148   1.796   2.756   5.619 -0.5555  0.9473  0.6121
 5825SOL    HW119149   1.788   2.724   5.529  2.6623  0.1018  0.4684
 5825SOL    HW219150   1.770   2.681   5.673 -0.5278  0.7479  0.3548
 5826SOL     OW19151   4.607   5.557   0.448  0.5324  0.3994 -0.0798
 5826SOL    HW119152   4.693   5.599   0.452  0.4444  0.6650 -0.7466
 5826SOL    HW219153   4.626   5.463   0.450  1.1427  0.3114 -3.5703
 5827SOL     OW19154   4.273   8.483   2.179 -0.3619 -0.4328 -0.0776
 5827SOL    HW119155   4.317   8.565   2.154 -0.5021 -0.0205  0.9899
 5827SOL    HW219156   4.343   8.419   2.184 -0.1233 -0.1746 -0.0559
 5828SOL     OW19157   5.823   5.250   1.445 -0.0888 -0.0346 -0.3892
 5828SOL    HW119158   5.912   5.214   1.441 -1.0965 -3.3435  2.4232
 5828SOL    HW219159   5.828   5.318   1.513  0.1126 -1.0290  0.6209
 5829SOL     OW19160   2.795   6.307   5.462  0.1433  0.6475 -0.0565
 5829SOL    HW119161   2.755   6.366   5.527  0.4651 -0.0562  0.8040
 5829SOL    HW219162   2.869   6.268   5.508 -0.7783 -1.3718 -0.1663
 5830SOL     OW19163   5.605   3.883   6.677  0.2477 -0.4186  0.2420
 5830SOL    HW119164   5.565   3.970   6.679  1.2327  0.0469  0.2172
 5830SOL    HW219165   5.698   3.899   6.692  0.3463 -1.5363  0.9214
 5831SOL     OW19166   9.530   9.354   3.539 -1.6384  0.4579 -0.5171
 5831SOL    HW119167   9.536   9.405   3.458  2.1651 -0.7647 -1.2431
 5831SOL    HW219168   9.540   9.263   3.510 -2.3491 -0.1986  1.1826
 5832SOL     OW19169   7.123   1.334   0.839 -0.3520  0.3052 -0.1506
 5832SOL    HW119170   7.169   1.417   0.847 -0.5415  0.3307  0.7562
 5832SOL    HW219171   7.097   1.330   0.747  2.2220 -0.1332 -0.9380
 5833SOL     OW19172   9.078   6.449   4.867 -0.3437 -0.2108  0.2839
 5833SOL    HW119173   9.000   6.408   4.904 -1.5743  1.2133 -0.5732
 5833SOL    HW219174   9.054   6.542   4.858  0.5704 -0.1338 -2.1844
 5834SOL     OW19175   6.624   3.279   2.305  0.2380 -0.2772 -0.5616
 5834SOL    HW119176   6.635   3.278   2.401 -1.3822 -0.7417 -0.3532
 5834SOL    HW219177   6.660   3.195   2.276 -0.1526 -0.5724 -0.2232
 5835SOL     OW19178   6.252   6.443   8.578  0.7505  0.4623  0.5096
 5835SOL    HW119179   6.161   6.414   8.573  1.1508 -1.0170  1.1690
 5835SOL    HW219180   6.254   6.505   8.651  0.4334 -0.2450  1.1330
 5836SOL     OW19181   4.117   3.942   3.352 -0.1271  0.5998  0.3041
 5836SOL    HW119182   4.132   3.981   3.266 -0.4351 -0.1395 -0.0979
 5836SOL    HW219183   4.205   3.921   3.384 -0.0616 -0.1842 -0.3486
 5837SOL     OW19184   9.557   0.994   4.354 -0.2469  0.3196 -0.3009
 5837SOL    HW119185   9.492   1.013   4.422 -1.1151  0.3759 -1.1220
 5837SOL    HW219186   9.641   1.000   4.399 -0.8620 -1.7654  1.2668
 5838SOL     OW19187   6.786   8.171   1.201 -0.1043  0.2323  0.0563
 5838SOL    HW119188   6.799   8.200   1.291  1.2765 -0.4572  0.1191
 5838SOL    HW219189   6.846   8.225   1.149 -1.2033  0.9269 -0.5309
 5839SOL     OW19190   2.319   0.834   1.188  0.2932  0.0075 -0.1086
 5839SOL    HW119191   2.375   0.909   1.168  1.1742 -0.5281  0.3137
 5839SOL    HW219192   2.285   0.853   1.276  0.1981  0.0915 -0.1623
 5840SOL     OW19193   5.321   0.098   5.704  0.0872  0.1250 -0.1319
 5840SOL    HW119194   5.277   0.053   5.632 -1.1980  0.6912  0.2657
 5840SOL    HW219195   5.252   0.149   5.746  0.7536 -0.3337  1.6122
 5841SOL     OW19196   6.365   1.003   3.270  0.0146  0.7287  0.0885
 5841SOL    HW119197   6.372   1.056   3.350  0.5007 -0.8626  1.1458
 5841SOL    HW219198   6.455   0.994   3.239 -0.0897  0.7264 -0.2093
 5842SOL     OW19199   5.986   3.226   5.862 -0.5116  0.3686 -0.8065
 5842SOL    HW119200   5.894   3.231   5.888 -0.7105 -0.0133 -1.3994
 5842SOL    HW219201   6.017   3.316   5.867 -1.2615  0.6998 -1.7624
 5843SOL     OW19202   0.444   0.154   5.045 -0.2327  0.0960 -0.6267
 5843SOL    HW119203   0.396   0.236   5.053 -0.4832 -0.1705  0.8744
 5843SOL    HW219204   0.534   0.177   5.066  0.1331  0.3725 -2.3265
 5844SOL     OW19205   1.414   7.381   3.413 -0.3903 -0.2188  0.0991
 5844SOL    HW119206   1.369   7.372   3.328 -0.6601 -0.4400  0.2630
 5844SOL    HW219207   1.498   7.421   3.391 -0.8424  0.6178 -0.1641
 5845SOL     OW19208   1.117   2.310   0.964  0.0070 -0.0533 -0.5894
 5845SOL    HW119209   1.033   2.316   1.010 -0.5733 -1.4356 -1.3887
 5845SOL    HW219210   1.096   2.263   0.883  1.2803  0.9681 -1.5439
 5846SOL     OW19211   9.171   3.898   7.874 -0.2797 -1.3140  0.1429
 5846SOL    HW119212   9.150   3.972   7.817 -0.7193 -0.4639  1.3767
 5846SOL    HW219213   9.267   3.896   7.874 -0.0755  1.3202  2.5417
 5847SOL     OW19214   9.230   0.990   2.162 -0.4925 -0.2089 -0.3393
 5847SOL    HW119215   9.225   1.037   2.079  2.0150 -0.5783 -0.8049
 5847SOL    HW219216   9.142   0.956   2.176 -1.4060  1.3090 -1.9565
 5848SOL     OW19217   0.364   2.119   5.283  0.0148  0.0100 -0.2454
 5848SOL    HW119218   0.294   2.181   5.262  0.8182  1.1039  0.2050
 5848SOL    HW219219   0.390   2.141   5.372  0.1567 -1.1497  0.0153
 5849SOL     OW19220   0.546   4.853   2.041  0.3109 -0.4343  0.2547
 5849SOL    HW119221   0.627   4.852   2.091  0.2322  1.2707  0.4650
 5849SOL    HW219222   0.546   4.770   1.993  2.3640 -0.3071 -0.0431
 5850SOL     OW19223   1.801   0.188   0.114 -0.3236  0.1855  0.1535
 5850SOL    HW119224   1.816   0.246   0.040 -0.4344  0.6238  0.4664
 5850SOL    HW219225   1.880   0.195   0.167 -0.1677 -0.2697 -0.0155
 5851SOL     OW19226   9.202   5.880   5.339 -0.5648  0.5146  0.1480
 5851SOL    HW119227   9.170   5.836   5.260  3.0827  0.0628 -1.2895
 5851SOL    HW219228   9.176   5.823   5.411 -2.0150 -0.2640 -0.9318
 5852SOL     OW19229   0.608   3.337   3.583 -0.5059 -0.1457  0.4431
 5852SOL    HW119230   0.606   3.380   3.497  2.6704  2.1788  1.3216
 5852SOL    HW219231   0.531   3.370   3.629 -0.4776  1.2282 -0.4365
 5853SOL     OW19232   1.259   7.196   1.987  0.3444  0.0711  0.4498
 5853SOL    HW119233   1.219   7.202   1.900 -0.8423 -3.9118  0.5035
 5853SOL    HW219234   1.209   7.259   2.040  0.6561  2.1062 -1.5088
 5854SOL     OW19235   2.996   8.277   5.959  0.1595 -0.7220  0.6621
 5854SOL    HW119236   2.903   8.255   5.955  0.2490 -0.9798 -2.2100
 5854SOL    HW219237   3.041   8.192   5.960  0.3498 -0.6798 -0.9673
 5855SOL     OW19238   8.121   3.729   2.442  0.7411 -0.0778  0.4799
 5855SOL    HW119239   8.181   3.685   2.503  0.7644 -1.5922 -0.5683
 5855SOL    HW219240   8.178   3.784   2.389  1.1646 -1.1319 -0.1857
 5856SOL     OW19241   9.456   3.166   5.372  0.3471 -0.5372  0.0061
 5856SOL    HW119242   9.427   3.253   5.344 -0.9599 -1.2310 -0.8825
 5856SOL    HW219243   9.377   3.113   5.371  1.2315 -1.9030 -0.0890
 5857SOL     OW19244   0.843   9.672   9.376  0.4044  0.0829  0.9965
 5857SOL    HW119245   0.848   9.697   9.284  0.1121  2.5521  1.5699
 5857SOL    HW219246   0.794   9.590   9.376  1.7872 -0.8214 -1.1374
 5858SOL     OW19247   4.143   6.411   7.498  0.4624  0.3304 -0.1706
 5858SOL    HW119248   4.080   6.352   7.537 -0.7504  0.5476 -1.7234
 5858SOL    HW219249   4.115   6.421   7.407  0.6071  3.2754  0.0099
 5859SOL     OW19250   0.748   8.416   6.870  0.6624 -0.1276 -0.3808
 5859SOL    HW119251   0.844   8.422   6.860  0.6975  1.2349  0.5286
 5859SOL    HW219252   0.735   8.343   6.930  1.0851 -0.8200 -1.1171
 5860SOL     OW19253   7.967   3.993   8.139  0.2224  0.1353 -0.1810
 5860SOL    HW119254   7.922   3.996   8.224  1.1500  0.6746  0.3073
 5860SOL    HW219255   7.987   4.084   8.119  1.1170 -0.0905 -0.3624
 5861SOL     OW19256   3.460   8.652   5.265 -0.0018  0.3657  0.1534
 5861SOL    HW119257   3.453   8.563   5.228  0.2556  1.0695 -1.6950
 5861SOL    HW219258   3.382   8.660   5.320 -0.6982 -0.5829 -0.6390
 5862SOL     OW19259   9.230   4.012   6.249 -0.0375 -0.0088  1.3714
 5862SOL    HW119260   9.137   3.998   6.269  0.2229 -0.3710  2.3961
 5862SOL    HW219261   9.233   4.095   6.201 -0.8940 -0.0337  1.2666
 5863SOL     OW19262   7.262   1.929   4.475  0.2473 -0.3683  0.3647
 5863SOL    HW119263   7.169   1.928   4.452  0.3917 -1.7150 -0.2209
 5863SOL    HW219264   7.271   1.861   4.542  0.5933  0.6479  1.3922
 5864SOL     OW19265   6.530   1.747   8.076 -0.4574 -0.0814  0.0721
 5864SOL    HW119266   6.456   1.700   8.114 -1.0303  0.4917 -0.3165
 5864SOL    HW219267   6.597   1.680   8.061 -0.5987 -0.4771  1.1491
 5865SOL     OW19268   0.572   8.036   1.897 -0.0829 -0.2632  0.4590
 5865SOL    HW119269   0.579   8.131   1.912 -2.1650  0.2953 -1.5033
 5865SOL    HW219270   0.499   8.009   1.952  0.9397 -0.9073  1.5338
 5866SOL     OW19271   1.434   1.721   5.539 -0.0276  0.0349 -0.0498
 5866SOL    HW119272   1.488   1.642   5.535 -1.1682 -0.8135  0.8808
 5866SOL    HW219273   1.402   1.732   5.449  2.1753  0.9604 -0.8079
 5867SOL     OW19274   8.892   4.050   0.484  0.0003 -0.0753  0.8259
 5867SOL    HW119275   8.944   3.992   0.428 -0.2655  0.6045 -0.1691
 5867SOL    HW219276   8.840   4.102   0.422 -0.8835  0.1776  1.7447
 5868SOL     OW19277   7.274   5.285   5.484  0.0164  1.0973 -0.1364
 5868SOL    HW119278   7.182   5.307   5.465  0.1663  0.6749 -1.4042
 5868SOL    HW219279   7.309   5.365   5.524 -0.6256  1.6324 -0.6124
 5869SOL     OW19280   9.318   0.118   2.350  0.3683 -0.2810  0.5239
 5869SOL    HW119281   9.226   0.099   2.333  0.5058  0.3675 -1.1324
 5869SOL    HW219282   9.343   0.179   2.281  2.3838 -1.4553  0.1273
 5870SOL     OW19283   3.014   4.519   5.275  0.7107  0.2455 -0.0936
 5870SOL    HW119284   2.984   4.571   5.200  0.8454 -0.1473 -0.4263
 5870SOL    HW219285   2.981   4.431   5.257 -2.5976  0.8450  2.1793
 5871SOL     OW19286   7.976   3.311   5.698 -0.0301 -0.2268 -0.1116
 5871SOL    HW119287   7.945   3.226   5.728  1.3115 -0.8061 -0.3069
 5871SOL    HW219288   8.002   3.297   5.607 -1.0156  0.7199 -0.5598
 5872SOL     OW19289   9.520   3.244   7.445 -0.1883 -0.3963 -0.3678
 5872SOL    HW119290   9.503   3.275   7.534  0.6787  0.4793 -0.4956
 5872SOL    HW219291   9.454   3.289   7.391 -1.6773 -2.0498 -0.0007
 5873SOL     OW19292   0.340   5.537   6.396  0.1772 -0.3279  0.1683
 5873SOL    HW119293   0.314   5.495   6.314  1.4905 -0.7099 -0.0736
 5873SOL    HW219294   0.382   5.618   6.368  0.4835 -0.3811  0.4782
 5874SOL     OW19295   5.586   9.159   2.447 -0.2600  0.2685  0.6517
 5874SOL    HW119296   5.578   9.221   2.374 -0.3275  2.2621  2.2763
 5874SOL    HW219297   5.497   9.132   2.465 -0.5525  1.7182  1.5488
 5875SOL     OW19298   4.928   6.978   7.112 -0.5297  0.0633 -0.5859
 5875SOL    HW119299   4.894   6.889   7.114 -0.9557  0.2033  2.0099
 5875SOL    HW219300   4.960   6.994   7.201  1.3874  1.8356 -1.4921
 5876SOL     OW19301   7.999   2.465   8.979 -0.5009 -0.1966 -0.0605
 5876SOL    HW119302   8.091   2.486   8.992 -0.4474 -0.7119  0.4514
 5876SOL    HW219303   7.965   2.535   8.923  0.2194 -0.0523 -0.3169
 5877SOL     OW19304   1.315   8.923   6.734  0.1140  0.2098  0.0414
 5877SOL    HW119305   1.362   8.990   6.684  0.2683 -1.4359 -2.1207
 5877SOL    HW219306   1.384   8.877   6.782  0.3569 -0.1306 -0.6158
 5878SOL     OW19307   4.668   5.462   6.780 -0.6050  0.0706 -0.5255
 5878SOL    HW119308   4.688   5.420   6.863 -1.0281 -0.5966 -0.7445
 5878SOL    HW219309   4.682   5.555   6.795  0.2257 -0.1358  0.0172
 5879SOL     OW19310   5.082   4.149   0.647  0.4033  0.2579 -0.0628
 5879SOL    HW119311   4.992   4.153   0.614  0.5068  2.1869 -0.2376
 5879SOL    HW219312   5.112   4.061   0.626 -1.8174 -0.8312  1.0218
 5880SOL     OW19313   8.564   8.751   2.945 -0.5525  0.8947  0.3439
 5880SOL    HW119314   8.532   8.753   2.855 -1.2714 -1.2290  0.5042
 5880SOL    HW219315   8.487   8.765   2.999 -0.5604 -0.3194  0.6637
 5881SOL     OW19316   4.518   4.916   0.817  0.4670  0.0153 -0.1576
 5881SOL    HW119317   4.500   4.971   0.893 -0.7503 -2.4741  1.4883
 5881SOL    HW219318   4.434   4.909   0.772  0.4922 -0.8715 -0.0749
 5882SOL     OW19319   6.251   2.776   2.191 -0.5643  0.6263 -0.3828
 5882SOL    HW119320   6.299   2.714   2.247  0.7866 -0.8188 -2.9691
 5882SOL    HW219321   6.249   2.857   2.242  0.2322 -0.6943  1.8961
 5883SOL     OW19322   9.117   5.379   3.809 -0.0572 -0.3858  0.1334
 5883SOL    HW119323   9.045   5.389   3.747  0.2200 -0.0181 -0.1434
 5883SOL    HW219324   9.174   5.313   3.769  0.2350  0.0143 -0.1196
 5884SOL     OW19325   0.473   3.281   2.292 -0.2321  0.0168  0.0309
 5884SOL    HW119326   0.406   3.250   2.231  1.1155 -2.4455 -0.3144
 5884SOL    HW219327   0.508   3.202   2.332 -0.0508  1.4615  2.9930
 5885SOL     OW19328   0.198   6.504   4.465 -0.1875 -0.1393  0.1224
 5885SOL    HW119329   0.214   6.478   4.375 -0.7357 -2.0579  0.5273
 5885SOL    HW219330   0.255   6.580   4.480  1.5185 -1.1118 -1.1790
 5886SOL     OW19331   7.759   0.827   4.335  0.1839  0.2764 -0.2038
 5886SOL    HW119332   7.789   0.744   4.374 -0.3288 -0.2114 -0.8277
 5886SOL    HW219333   7.759   0.810   4.241  2.4368  1.7656 -0.5686
 5887SOL     OW19334   9.672   1.527   5.139  0.4538 -0.6057  0.7112
 5887SOL    HW119335   9.711   1.542   5.053  3.0974 -0.2429  1.8880
 5887SOL    HW219336   9.741   1.548   5.201 -0.9583 -2.0574  2.9322
 5888SOL     OW19337   9.363   0.475   0.832 -0.5800  0.2632 -0.3288
 5888SOL    HW119338   9.354   0.526   0.913  1.5126  1.3008 -0.6570
 5888SOL    HW219339   9.360   0.541   0.763  0.0630 -0.3108 -0.9173
 5889SOL     OW19340   7.942   9.196   8.833  0.2418  0.0812  0.3754
 5889SOL    HW119341   8.017   9.138   8.847  0.6497  0.8251  1.3745
 5889SOL    HW219342   7.882   9.145   8.777  0.4210 -1.4206  1.4958
 5890SOL     OW19343   5.647   5.449   1.251 -0.0904  0.7037 -0.1165
 5890SOL    HW119344   5.616   5.450   1.342 -0.5610  0.8575 -0.2792
 5890SOL    HW219345   5.571   5.423   1.200  0.3068  0.1156 -0.4249
 5891SOL     OW19346   0.438   4.178   0.990  0.0627 -0.6153 -0.2322
 5891SOL    HW119347   0.386   4.175   1.070 -0.7981  0.6258 -0.7203
 5891SOL    HW219348   0.488   4.260   0.998  0.3977 -0.7705 -0.7077
 5892SOL     OW19349   1.845   6.034   3.918 -0.0956 -0.3356  0.1233
 5892SOL    HW119350   1.786   6.036   3.842  0.5257 -1.0941 -0.3913
 5892SOL    HW219351   1.859   5.941   3.935 -1.6369 -0.2344  2.3157
 5893SOL     OW19352   0.784   8.723   5.094  0.1503  0.2115  0.4019
 5893SOL    HW119353   0.849   8.658   5.068  0.1993 -0.0583  1.1684
 5893SOL    HW219354   0.814   8.805   5.054 -0.0900 -0.2972 -0.8420
 5894SOL     OW19355   8.998   3.079   5.012 -0.4521  0.0677 -0.3502
 5894SOL    HW119356   8.913   3.113   5.041 -0.6703 -0.3366 -0.4955
 5894SOL    HW219357   9.012   3.001   5.065 -1.2712 -1.1759 -1.8941
 5895SOL     OW19358   4.364   1.232   1.826 -0.1689  0.0245 -0.3372
 5895SOL    HW119359   4.428   1.165   1.847  0.6338  0.9387  0.2367
 5895SOL    HW219360   4.396   1.271   1.744 -0.0266  0.4177 -0.0999
 5896SOL     OW19361   2.708   7.465   4.427 -0.0317  0.1984  0.0072
 5896SOL    HW119362   2.687   7.548   4.470  0.1406 -1.0505  2.7473
 5896SOL    HW219363   2.650   7.461   4.351  0.8139  3.3167 -0.9327
 5897SOL     OW19364   2.079   6.640   8.352  0.6859 -0.0573  0.0222
 5897SOL    HW119365   2.139   6.593   8.294 -0.1316 -0.2115 -0.7063
 5897SOL    HW219366   2.017   6.684   8.294 -0.9317 -1.2390  0.7778
 5898SOL     OW19367   1.017   5.585   7.485  0.2813  0.4857 -0.2901
 5898SOL    HW119368   1.074   5.549   7.553  0.1642  0.0938 -0.3933
 5898SOL    HW219369   1.074   5.596   7.409 -0.1352 -1.6811 -0.9942
 5899SOL     OW19370   9.426   6.779   8.038 -0.5573  0.0902 -0.7016
 5899SOL    HW119371   9.486   6.716   7.997  0.9324  0.5570  0.6597
 5899SOL    HW219372   9.483   6.851   8.065 -1.7648  0.5963  0.5565
 5900SOL     OW19373   9.327   5.459   4.134  0.0441  0.1431 -0.0700
 5900SOL    HW119374   9.273   5.504   4.199  1.1452 -1.4271  2.0496
 5900SOL    HW219375   9.331   5.369   4.165  1.5443 -0.4130 -1.7504
 5901SOL     OW19376   1.622   7.990   0.287 -0.4249  0.0972 -0.6152
 5901SOL    HW119377   1.705   8.006   0.242  1.1905 -1.0811  1.7555
 5901SOL    HW219378   1.575   8.074   0.281  1.6294  1.3167 -0.6576
 5902SOL     OW19379   6.516   0.755   5.388  0.0026  0.1183  0.0805
 5902SOL    HW119380   6.521   0.666   5.351  1.7547  0.3874 -0.4280
 5902SOL    HW219381   6.599   0.766   5.434  0.2143  1.8175 -0.6448
 5903SOL     OW19382   4.312   5.627   0.041 -0.8484  0.3826 -0.4545
 5903SOL    HW119383   4.366   5.642  -0.036 -0.7350  0.0852 -0.4363
 5903SOL    HW219384   4.350   5.549   0.081 -3.1421 -1.7064 -2.0972
 5904SOL     OW19385   7.092   5.031   8.092  0.1331  0.1786 -0.1247
 5904SOL    HW119386   7.037   4.958   8.062  0.6847  0.6950 -2.5921
 5904SOL    HW219387   7.109   5.082   8.013  0.6584  2.4045  1.3483
 5905SOL     OW19388   1.801   3.547   9.082  0.1004 -0.3544  0.0072
 5905SOL    HW119389   1.768   3.481   9.021  0.3733  0.7757 -1.4058
 5905SOL    HW219390   1.881   3.509   9.118 -0.3674 -1.2682  0.1097
 5906SOL     OW19391   3.323   7.263   2.103  0.1938  0.1484 -0.2284
 5906SOL    HW119392   3.274   7.344   2.090 -1.6924 -0.8250  0.3380
 5906SOL    HW219393   3.326   7.222   2.017  2.0016  1.2308 -0.7158
 5907SOL     OW19394   0.588   2.893   9.043  0.1337 -0.0567  0.5636
 5907SOL    HW119395   0.510   2.869   8.992 -1.6118  1.2508  2.4799
 5907SOL    HW219396   0.661   2.856   8.993 -1.7839 -2.6545 -0.5431
 5908SOL     OW19397   7.137   5.175   9.158  0.1638  0.4549 -0.0596
 5908SOL    HW119398   7.155   5.257   9.112  0.4986 -0.8297 -2.4090
 5908SOL    HW219399   7.185   5.109   9.108 -1.5326 -1.4226  0.6369
 5909SOL     OW19400   5.683   7.130   0.354  0.1905 -0.1227  0.2410
 5909SOL    HW119401   5.589   7.139   0.371  0.4006  0.6985  1.0244
 5909SOL    HW219402   5.692   7.041   0.320 -0.6107 -0.9489  2.0390
 5910SOL     OW19403   2.578   5.212   1.670  0.1100 -0.1551 -0.5907
 5910SOL    HW119404   2.631   5.136   1.695 -0.1453  0.1132  0.8482
 5910SOL    HW219405   2.641   5.283   1.660  0.3208 -0.4735 -1.6951
 5911SOL     OW19406   5.308   0.652   3.101  0.1593  0.1893  0.1229
 5911SOL    HW119407   5.336   0.684   3.016  1.3234  0.5001  0.6049
 5911SOL    HW219408   5.298   0.558   3.089  0.4616  0.2101 -0.3218
 5912SOL     OW19409   7.262   7.592   3.073  0.1515 -0.3173 -0.2364
 5912SOL    HW119410   7.169   7.570   3.083  0.3556 -1.1725 -0.1122
 5912SOL    HW219411   7.303   7.557   3.152  0.5653  0.1520 -0.2417
 5913SOL     OW19412   5.986   6.194   2.969  0.0811 -0.1413  0.3112
 5913SOL    HW119413   6.003   6.137   2.893 -1.5048 -1.9908  1.2483
 5913SOL    HW219414   6.068   6.240   2.983  0.8389 -0.7547 -1.6996
 5914SOL     OW19415   6.025   2.730   2.022  0.6731 -0.1715 -0.4827
 5914SOL    HW119416   6.078   2.651   2.010 -1.1494 -1.8056  1.3793
 5914SOL    HW219417   6.083   2.790   2.070  1.2317 -1.4667  0.5380
 5915SOL     OW19418   9.583   9.481   7.823  0.1602  0.4735  0.4791
 5915SOL    HW119419   9.626   9.513   7.744 -0.5039 -0.0472 -0.1038
 5915SOL    HW219420   9.559   9.560   7.872 -0.5506  0.8421 -0.4469
 5916SOL     OW19421   4.739   2.245   5.577 -0.1498 -0.1941  0.2856
 5916SOL    HW119422   4.725   2.333   5.613  1.8717  0.4937 -0.4283
 5916SOL    HW219423   4.824   2.218   5.614  0.1575 -1.0323 -0.9951
 5917SOL     OW19424   9.155   8.407   3.162  0.1280 -0.2283 -0.0509
 5917SOL    HW119425   9.177   8.372   3.248 -1.2731  1.4387  1.0602
 5917SOL    HW219426   9.189   8.343   3.100  1.7543 -1.1549  1.7069
 5918SOL     OW19427   0.300   6.068   5.777 -0.3250  0.2137  0.2186
 5918SOL    HW119428   0.311   5.975   5.797  0.5079  0.2054 -0.2302
 5918SOL    HW219429   0.348   6.114   5.846  0.2703  0.2671 -0.2233
 5919SOL     OW19430   0.451   2.123   3.059 -0.1657 -0.1710  0.3317
 5919SOL    HW119431   0.437   2.216   3.041  0.7109  0.0570  0.7227
 5919SOL    HW219432   0.527   2.122   3.118 -0.6322 -1.0912  0.9474
 5920SOL     OW19433   0.647   4.183   0.496 -0.4924 -0.2794 -0.1780
 5920SOL    HW119434   0.728   4.221   0.530 -0.3177 -0.5024 -0.3399
 5920SOL    HW219435   0.592   4.170   0.573 -2.1165  3.7942 -0.3877
 5921SOL     OW19436   3.265   3.893   4.090 -0.4939 -0.2597 -0.3182
 5921SOL    HW119437   3.323   3.968   4.078 -1.2791  0.4216  0.0489
 5921SOL    HW219438   3.177   3.928   4.077 -0.8641 -1.1483 -0.2931
 5922SOL     OW19439   5.112   3.131   2.876  1.1365 -0.3625 -0.1754
 5922SOL    HW119440   5.140   3.084   2.797  1.1744 -0.2297 -0.2403
 5922SOL    HW219441   5.193   3.168   2.911  0.9609  0.5432 -0.6998
 5923SOL     OW19442   9.142   1.655   1.138 -0.3588  0.1260  0.1320
 5923SOL    HW119443   9.090   1.706   1.076  1.3187  1.0426 -0.6075
 5923SOL    HW219444   9.088   1.648   1.216 -1.6926  0.7450 -0.7068
 5924SOL     OW19445   7.348   2.110   5.152 -0.0351  0.0773  0.0657
 5924SOL    HW119446   7.419   2.161   5.113  0.6296 -1.1504 -0.3706
 5924SOL    HW219447   7.352   2.025   5.108  0.5376 -1.2743  2.5503
 5925SOL     OW19448   8.438   0.736   5.802 -0.5882 -0.0487  0.1641
 5925SOL    HW119449   8.485   0.814   5.772  0.9925 -0.9877  0.0774
 5925SOL    HW219450   8.429   0.682   5.723 -1.2234 -0.1780  0.3229
 5926SOL     OW19451   1.878   5.734   4.918 -0.4957  0.6146  0.0309
 5926SOL    HW119452   1.907   5.687   4.996  0.0050 -0.7461 -0.9293
 5926SOL    HW219453   1.835   5.813   4.951 -1.8163 -0.7665  1.7135
 5927SOL     OW19454   1.671   0.712   2.471  0.4034  0.0136  0.2608
 5927SOL    HW119455   1.728   0.639   2.493 -0.0805 -0.1387  1.0314
 5927SOL    HW219456   1.621   0.681   2.395  1.1824  0.0758 -0.2911
 5928SOL     OW19457   1.646   0.550   4.023 -0.2611 -0.5739  0.1965
 5928SOL    HW119458   1.711   0.621   4.026 -1.2113  0.2933  1.0290
 5928SOL    HW219459   1.660   0.509   3.938  0.9926 -0.0401  0.1177
 5929SOL     OW19460   1.244   5.666   7.340 -0.5795 -0.3595 -0.4069
 5929SOL    HW119461   1.289   5.583   7.355 -1.5470 -0.5338  1.9296
 5929SOL    HW219462   1.303   5.732   7.375  0.6115  0.1264 -3.0991
 5930SOL     OW19463   2.584   7.919   2.623 -0.0495  0.1707  0.1685
 5930SOL    HW119464   2.572   8.013   2.607  1.7712  0.1279 -1.8487
 5930SOL    HW219465   2.580   7.911   2.719 -1.1694  2.1383  0.3463
 5931SOL     OW19466   0.132   1.832   3.991 -0.3327  1.1674  0.6784
 5931SOL    HW119467   0.124   1.768   3.920  0.4284  1.5485  0.2351
 5931SOL    HW219468   0.096   1.788   4.068 -1.2733  0.7872  0.0328
 5932SOL     OW19469   0.843   0.041   4.632  0.8738  0.6532 -0.0922
 5932SOL    HW119470   0.848   0.062   4.539  0.0303 -0.7792 -0.4996
 5932SOL    HW219471   0.756   0.071   4.659  0.7887  0.3069  0.0227
 5933SOL     OW19472   5.707   8.804   3.258 -0.0045 -0.0725 -0.1784
 5933SOL    HW119473   5.797   8.773   3.270 -0.5758 -2.1034 -0.6003
 5933SOL    HW219474   5.692   8.798   3.163 -1.0712 -1.4165  0.0356
 5934SOL     OW19475   8.410   3.842   0.999 -0.5683 -0.0257 -0.4618
 5934SOL    HW119476   8.365   3.918   0.963 -0.8724  0.7029  1.3678
 5934SOL    HW219477   8.361   3.820   1.079  0.8156 -0.7670  0.2220
 5935SOL     OW19478   9.333   9.181   5.164  0.2659  0.1859  0.4068
 5935SOL    HW119479   9.313   9.141   5.249  2.0596  1.1075  1.3241
 5935SOL    HW219480   9.268   9.250   5.155  1.3699  1.5812  2.1920
 5936SOL     OW19481   6.274   0.717   2.643  0.0520  0.2882  0.4445
 5936SOL    HW119482   6.215   0.754   2.708 -0.5265  1.9277 -0.9354
 5936SOL    HW219483   6.291   0.628   2.673 -3.0054 -0.2224  0.9823
 5937SOL     OW19484   7.125   3.855   9.171  0.6383  0.3365 -0.1288
 5937SOL    HW119485   7.215   3.888   9.166  0.6585  0.6839  1.8114
 5937SOL    HW219486   7.116   3.824   9.261 -0.7379 -1.0759 -0.7042
 5938SOL     OW19487   4.719   0.900   3.623  0.1374 -0.0745  0.2003
 5938SOL    HW119488   4.730   0.918   3.530 -1.6343  0.5972  0.0824
 5938SOL    HW219489   4.784   0.832   3.642  0.4887 -0.2708 -1.5171
 5939SOL     OW19490   7.322   1.050   4.788  0.5762  0.5044 -0.7364
 5939SOL    HW119491   7.242   1.091   4.757 -0.1769 -0.7532 -0.5173
 5939SOL    HW219492   7.292   0.976   4.842  1.7044  2.8548  3.6090
 5940SOL     OW19493   2.455   6.646   8.015  0.4037 -0.7050 -0.9191
 5940SOL    HW119494   2.529   6.616   8.067  0.2839  0.5754  0.0388
 5940SOL    HW219495   2.488   6.649   7.926  1.2054 -1.0624 -0.6450
 5941SOL     OW19496   8.109   1.195   2.768 -0.3135 -0.1222  0.2216
 5941SOL    HW119497   8.069   1.113   2.739  0.3811 -0.5028  0.2921
 5941SOL    HW219498   8.167   1.221   2.696  0.3609 -0.3337  0.6709
 5942SOL     OW19499   1.797   5.989   3.279 -0.3183  0.2493  0.3507
 5942SOL    HW119500   1.730   6.050   3.247 -1.2033 -0.8964 -0.0536
 5942SOL    HW219501   1.831   5.947   3.200  2.0075  1.8812  0.3943
 5943SOL     OW19502   3.232   2.193   0.887  0.2716 -0.8626  0.2342
 5943SOL    HW119503   3.292   2.172   0.958  0.6145 -1.7345 -0.2981
 5943SOL    HW219504   3.279   2.170   0.807 -0.4453 -0.7565 -0.2342
 5944SOL     OW19505   7.082   1.357   6.036  0.2417 -0.0895 -0.0845
 5944SOL    HW119506   7.169   1.352   5.996  0.7709 -2.3968  1.1847
 5944SOL    HW219507   7.035   1.282   5.999 -1.0735  0.8587 -0.3923
 5945SOL     OW19508   1.972   0.995   8.636  0.1367  0.0123  0.6279
 5945SOL    HW119509   1.906   1.049   8.678  1.2199  1.1799  0.8855
 5945SOL    HW219510   1.984   0.921   8.695 -0.2781  0.2639  1.0315
 5946SOL     OW19511   4.161   9.264   6.139  0.0376 -0.3887 -0.1845
 5946SOL    HW119512   4.084   9.223   6.099 -2.2124  1.7909  1.5899
 5946SOL    HW219513   4.125   9.330   6.198  3.2356 -0.7345  2.4598
 5947SOL     OW19514   8.298   4.441   0.003 -0.0434  0.4244 -0.2637
 5947SOL    HW119515   8.331   4.356  -0.023  0.3178  0.2605  0.6769
 5947SOL    HW219516   8.359   4.504  -0.035 -0.0051  0.2374 -0.5078
 5948SOL     OW19517   5.655   6.029   5.948 -0.1589 -0.0658  0.7761
 5948SOL    HW119518   5.722   5.969   5.916 -0.6580  0.3110 -1.1057
 5948SOL    HW219519   5.704   6.104   5.982  0.6235  2.2353 -4.4534
 5949SOL     OW19520   8.856   5.247   0.572  0.2851  0.0028 -0.2434
 5949SOL    HW119521   8.836   5.207   0.656 -1.4780  2.2715  0.5174
 5949SOL    HW219522   8.924   5.312   0.592 -0.5117  0.9181 -0.4381
 5950SOL     OW19523   2.883   8.207   0.686  0.4944 -0.4492  0.0014
 5950SOL    HW119524   2.860   8.217   0.594  1.2156  0.5980 -0.0869
 5950SOL    HW219525   2.799   8.214   0.733  0.2602  0.2491 -0.5028
 5951SOL     OW19526   1.856   8.531   6.163  0.1698 -0.1463 -0.3126
 5951SOL    HW119527   1.853   8.624   6.183  0.8443  0.3748 -2.3347
 5951SOL    HW219528   1.949   8.509   6.161  0.0347 -0.7631 -0.2215
 5952SOL     OW19529   0.038   5.103   2.954  0.8513  0.7285  0.1075
 5952SOL    HW119530   0.041   5.100   3.049  0.2786  1.3919  0.1533
 5952SOL    HW219531  -0.047   5.142   2.933 -0.0259 -1.4680 -0.7399
 5953SOL     OW19532   8.588   0.108   4.120 -0.0476  0.4615 -0.5332
 5953SOL    HW119533   8.535   0.184   4.097 -1.1649  0.1039  0.7349
 5953SOL    HW219534   8.664   0.144   4.165  0.3984  0.9233 -1.6102
 5954SOL     OW19535   5.956   2.124   5.236 -0.2617  0.2459  0.6150
 5954SOL    HW119536   5.946   2.038   5.278 -0.6206 -0.0871 -0.1303
 5954SOL    HW219537   5.897   2.181   5.286 -0.8827 -0.2035  0.4147
 5955SOL     OW19538   8.098   5.795   1.985  0.2886 -0.1170  0.1205
 5955SOL    HW119539   8.076   5.738   1.911 -0.0945 -0.3687  0.4262
 5955SOL    HW219540   8.049   5.875   1.970  0.2155 -0.1656  0.1014
 5956SOL     OW19541   4.875   0.362   0.561  0.2763  0.3620 -0.9304
 5956SOL    HW119542   4.788   0.368   0.601 -0.2175  0.6665 -2.0012
 5956SOL    HW219543   4.936   0.385   0.631 -0.5799  1.4111 -0.5027
 5957SOL     OW19544   3.131   1.582   2.487  0.1709 -0.0281 -0.3967
 5957SOL    HW119545   3.200   1.564   2.423  1.0068  0.9609  0.1850
 5957SOL    HW219546   3.076   1.504   2.486 -0.1968  0.1904 -2.7387
 5958SOL     OW19547   5.907   1.775   6.182 -0.2029 -0.0667  0.3999
 5958SOL    HW119548   5.903   1.780   6.086 -2.4999 -0.1778  0.4321
 5958SOL    HW219549   5.831   1.825   6.211  0.3865 -0.1467  2.1885
 5959SOL     OW19550   0.660   2.142   9.233 -0.3152 -0.0534  0.4986
 5959SOL    HW119551   0.572   2.163   9.203  0.5047  0.5061 -1.6627
 5959SOL    HW219552   0.710   2.223   9.224  0.8800 -0.8247 -0.1781
 5960SOL     OW19553   1.540   1.167   8.138  0.2247 -0.8106  0.3852
 5960SOL    HW119554   1.462   1.200   8.183  1.0374  1.3426  0.3548
 5960SOL    HW219555   1.507   1.103   8.076 -1.5067 -0.0453  0.4619
 5961SOL     OW19556   5.850   8.047   6.476 -0.1818 -0.2354  0.1889
 5961SOL    HW119557   5.808   8.080   6.396 -3.1969 -2.1615  0.8002
 5961SOL    HW219558   5.788   8.070   6.546  2.2730  1.2358  2.0704
 5962SOL     OW19559   9.107   9.402   6.227 -0.4132 -0.2341  0.4591
 5962SOL    HW119560   9.041   9.414   6.159  0.0959  0.4601  0.0823
 5962SOL    HW219561   9.083   9.466   6.295 -0.0767  0.0868  0.2783
 5963SOL     OW19562   1.992   6.344   4.826  0.3371 -0.0239  0.1139
 5963SOL    HW119563   1.950   6.273   4.777  1.0443  0.4833 -1.3124
 5963SOL    HW219564   1.953   6.340   4.913  0.2783 -2.0771  0.0377
 5964SOL     OW19565   7.445   3.691   8.047  0.2445  0.1051  0.0471
 5964SOL    HW119566   7.458   3.626   8.116 -0.6373  0.2170  0.3342
 5964SOL    HW219567   7.358   3.727   8.064 -0.1354 -0.1080 -1.3191
 5965SOL     OW19568   0.852   4.550   9.309  0.2859 -0.3970  0.1824
 5965SOL    HW119569   0.869   4.489   9.380 -1.0090  0.0319  0.8946
 5965SOL    HW219570   0.842   4.495   9.232  1.7055 -0.8647  0.3100
 5966SOL     OW19571   5.537   3.517   6.837  0.0133  0.4295  0.0386
 5966SOL    HW119572   5.452   3.545   6.803 -0.5398 -2.1445 -0.9574
 5966SOL    HW219573   5.596   3.520   6.762  0.0798 -0.3943  0.0427
 5967SOL     OW19574   6.982   7.808   4.373  0.0211  0.1453 -0.1118
 5967SOL    HW119575   6.900   7.830   4.329  0.5278  0.3590 -0.9899
 5967SOL    HW219576   6.979   7.855   4.456 -1.5895 -1.3940  0.7410
 5968SOL     OW19577   7.241   6.928   1.552  0.2204  0.3333  0.3679
 5968SOL    HW119578   7.215   6.969   1.470 -0.8300  1.2831  1.1464
 5968SOL    HW219579   7.159   6.897   1.590  0.3318  2.2099  2.2622
 5969SOL     OW19580   3.042   6.763   9.301 -0.2275 -0.1440 -0.2367
 5969SOL    HW119581   2.982   6.714   9.244  0.7603 -1.2399 -0.3542
 5969SOL    HW219582   3.082   6.697   9.357  0.1324  0.7069  0.5306
 5970SOL     OW19583   0.005   6.743   0.247  0.0165 -0.1084 -0.4205
 5970SOL    HW119584   0.006   6.800   0.171  1.6955 -1.0297 -1.1438
 5970SOL    HW219585  -0.066   6.777   0.302 -0.9775  0.8025 -2.1921
 5971SOL     OW19586   0.965   3.899   3.220 -0.0808 -0.0141  0.0783
 5971SOL    HW119587   0.932   3.947   3.296 -0.4554 -0.2877  0.0878
 5971SOL    HW219588   1.037   3.954   3.187 -1.3273  1.2256 -0.7016
 5972SOL     OW19589   6.707   0.004   3.629  0.0565 -0.2830 -0.3357
 5972SOL    HW119590   6.661   0.045   3.701 -1.1435  0.5121 -1.5225
 5972SOL    HW219591   6.778   0.065   3.607  1.1781 -1.0822  0.8965
 5973SOL     OW19592   1.172   3.933   7.358  0.1400 -0.0460 -0.2210
 5973SOL    HW119593   1.179   3.931   7.453  0.9730  0.2277 -0.2733
 5973SOL    HW219594   1.188   4.025   7.335  0.7180 -0.2629 -0.6846
 5974SOL     OW19595   2.366   5.210   5.577  0.4092  0.1706  0.0508
 5974SOL    HW119596   2.429   5.212   5.505  1.3508  0.9214  0.8623
 5974SOL    HW219597   2.419   5.228   5.655 -0.8257  0.8899  0.7474
 5975SOL     OW19598   2.950   6.282   2.214 -0.3412 -0.4126 -0.3204
 5975SOL    HW119599   3.028   6.326   2.179 -0.7631  1.0444  0.4626
 5975SOL    HW219600   2.891   6.354   2.237 -2.2473 -1.4870 -1.5782
 5976SOL     OW19601   0.349   8.431   3.475 -0.0954  0.3704 -0.7560
 5976SOL    HW119602   0.439   8.461   3.485 -0.4999  1.6894 -0.9188
 5976SOL    HW219603   0.346   8.348   3.523  0.9580  0.7901  0.0702
 5977SOL     OW19604   3.481   0.547   3.626  0.0249 -0.7649 -0.1086
 5977SOL    HW119605   3.552   0.506   3.675 -0.8260  1.1207  2.9268
 5977SOL    HW219606   3.499   0.640   3.631 -1.2674 -0.3902 -1.6346
 5978SOL     OW19607   2.544   1.460   7.759  0.0810 -0.2883 -0.0524
 5978SOL    HW119608   2.503   1.419   7.835  0.8991 -0.4918  0.2894
 5978SOL    HW219609   2.557   1.388   7.698  1.7260 -0.6237  0.6385
 5979SOL     OW19610   5.867   2.275   4.222 -0.3514 -1.4351  0.4554
 5979SOL    HW119611   5.818   2.340   4.272  0.8045 -1.4368  1.6749
 5979SOL    HW219612   5.803   2.208   4.199 -1.7415  0.4535 -1.4971
 5980SOL     OW19613   7.696   6.007   7.233 -0.1295  0.2752  0.0544
 5980SOL    HW119614   7.607   6.035   7.215  0.5485  0.5998 -3.5436
 5980SOL    HW219615   7.747   6.089   7.232  0.4488 -0.0773  0.1719
 5981SOL     OW19616   0.821   5.410   7.998 -0.2541  0.3832 -0.0010
 5981SOL    HW119617   0.897   5.352   8.005 -0.5083  0.1131  0.5785
 5981SOL    HW219618   0.747   5.356   8.025 -0.5616  0.8411  0.0897
 5982SOL     OW19619   6.360   5.038   7.573 -0.5350 -0.1099  0.2355
 5982SOL    HW119620   6.298   5.085   7.629 -0.2806 -0.7167  1.0411
 5982SOL    HW219621   6.399   5.106   7.518 -0.2458  0.6066  1.3110
 5983SOL     OW19622   0.747   7.244   3.485  0.1963  0.1312 -0.0277
 5983SOL    HW119623   0.730   7.252   3.578  0.5419  0.0491  0.0431
 5983SOL    HW219624   0.668   7.278   3.443 -0.8241 -1.7299  0.2998
 5984SOL     OW19625   5.438   7.103   0.861  0.1205 -0.2648 -0.5716
 5984SOL    HW119626   5.500   7.138   0.797 -0.1653  1.3049 -0.0414
 5984SOL    HW219627   5.493   7.070   0.932  0.4549 -2.3413 -1.7220
 5985SOL     OW19628   1.007   2.786   5.876  0.5327  0.5978  0.3703
 5985SOL    HW119629   0.955   2.810   5.953 -0.5126 -1.6706  0.4496
 5985SOL    HW219630   1.003   2.863   5.820 -2.6899  0.6895  0.5395
 5986SOL     OW19631   4.372   8.176   6.564 -0.2343 -0.0706  0.1993
 5986SOL    HW119632   4.401   8.122   6.491 -2.0298 -0.0226 -0.5865
 5986SOL    HW219633   4.424   8.256   6.556  2.3448 -1.4995  1.2796
 5987SOL     OW19634   5.630   1.134   5.192  0.2767 -0.6984  0.3467
 5987SOL    HW119635   5.548   1.137   5.240 -0.9342  1.2335 -1.6970
 5987SOL    HW219636   5.687   1.196   5.237 -0.8592  1.1217 -0.5875
 5988SOL     OW19637   7.840   5.308   6.258  0.0326 -0.7078  0.1942
 5988SOL    HW119638   7.756   5.337   6.221  0.5509  0.6381  0.0192
 5988SOL    HW219639   7.904   5.369   6.222  0.9722 -1.1954  1.0017
 5989SOL     OW19640   5.999   3.665   1.811 -0.2558 -0.0739  0.0808
 5989SOL    HW119641   5.925   3.706   1.855  0.6621  0.2791  1.3482
 5989SOL    HW219642   6.011   3.582   1.856 -0.2201 -0.3660 -0.4677
 5990SOL     OW19643   5.781   0.701   4.677 -0.6548  0.1622  0.5121
 5990SOL    HW119644   5.721   0.656   4.737 -0.2589 -1.6065 -0.3590
 5990SOL    HW219645   5.775   0.651   4.595  0.2843  1.3524 -0.3184
 5991SOL     OW19646   0.316   6.764   4.502 -0.1000  0.2223  0.1631
 5991SOL    HW119647   0.405   6.798   4.498  0.8162 -1.4952  3.0626
 5991SOL    HW219648   0.305   6.736   4.593 -3.3139 -0.4463 -0.3031
 5992SOL     OW19649   2.073   1.602   9.633 -0.4490  0.5309  0.2274
 5992SOL    HW119650   2.152   1.554   9.609 -0.4365  0.6037  0.1198
 5992SOL    HW219651   2.018   1.597   9.555  0.0371  1.6982 -0.2147
 5993SOL     OW19652   4.582   9.572   2.018 -0.6555 -0.4145 -0.3180
 5993SOL    HW119653   4.656   9.599   2.073 -0.6566  0.5916 -0.7812
 5993SOL    HW219654   4.534   9.509   2.072 -1.0889  1.1090  1.1944
 5994SOL     OW19655   1.746   1.462   1.384  0.5018  0.5274 -0.2262
 5994SOL    HW119656   1.692   1.541   1.390 -0.7795 -0.4148  1.7683
 5994SOL    HW219657   1.825   1.483   1.434 -0.0982  0.3896  0.8114
 5995SOL     OW19658   8.529   1.942   0.243  0.2426  0.0296  0.2980
 5995SOL    HW119659   8.581   1.928   0.322 -0.6120 -1.7342  0.6051
 5995SOL    HW219660   8.452   1.991   0.273  0.9046  1.1944  0.1459
 5996SOL     OW19661   6.113   4.565   0.122 -0.6265  0.1530  0.1623
 5996SOL    HW119662   6.043   4.599   0.178 -0.2571 -1.3884  1.6316
 5996SOL    HW219663   6.179   4.635   0.121 -0.9796  0.5096  1.0364
 5997SOL     OW19664   9.232   8.377   7.167 -0.1624  0.1493  0.0387
 5997SOL    HW119665   9.218   8.465   7.133 -1.7815 -0.1736 -0.1939
 5997SOL    HW219666   9.250   8.390   7.260 -1.2705  0.6825  0.1915
 5998SOL     OW19667   1.050   9.186   0.456  0.7742  0.0240  0.0034
 5998SOL    HW119668   1.010   9.262   0.498 -0.3386  0.1367 -1.1817
 5998SOL    HW219669   1.074   9.128   0.528 -3.3059 -0.9314  0.8281
 5999SOL     OW19670   2.569   4.292   6.175  0.0273  0.0452  0.4947
 5999SOL    HW119671   2.475   4.290   6.193 -0.1620  1.5977 -0.1773
 5999SOL    HW219672   2.608   4.243   6.247 -1.3913 -1.8831  0.0222
 6000SOL     OW19673   3.444   8.083   3.775 -0.1408 -0.2797 -0.2056
 6000SOL    HW119674   3.535   8.092   3.748 -0.2818 -0.0544 -0.6125
 6000SOL    HW219675   3.399   8.048   3.698 -1.2186  3.5346 -1.5524
 6001SOL     OW19676   0.882   4.552   4.846  0.1860  0.2620 -0.1567
 6001SOL    HW119677   0.950   4.513   4.792 -0.4801 -0.7076 -0.3071
 6001SOL    HW219678   0.929   4.611   4.905  1.1546 -0.4152 -0.2371
 6002SOL     OW19679   0.255   0.080   3.064  0.4265  0.7810  0.3488
 6002SOL    HW119680   0.264   0.135   3.142 -3.8547  0.9542  0.9857
 6002SOL    HW219681   0.206   0.004   3.094 -0.2052  0.2226 -1.9093
 6003SOL     OW19682   4.062   6.601   4.216  0.0244 -0.1133 -0.0440
 6003SOL    HW119683   3.995   6.670   4.222  2.0740  2.2149 -1.6628
 6003SOL    HW219684   4.114   6.612   4.296 -0.7359 -1.0807  0.6016
 6004SOL     OW19685   8.628   4.589   7.808 -0.5631 -0.6436  0.5087
 6004SOL    HW119686   8.644   4.527   7.737 -1.0496 -0.4179  0.1973
 6004SOL    HW219687   8.698   4.654   7.799  0.4119 -1.5480  1.3083
 6005SOL     OW19688   5.692   5.691   1.149 -0.3976 -0.2204 -0.6864
 6005SOL    HW119689   5.672   5.603   1.181  1.5618 -0.8725 -1.1357
 6005SOL    HW219690   5.709   5.742   1.228 -0.8227 -0.4192 -0.4618
 6006SOL     OW19691   5.359   0.966   8.519  1.1543  0.2214  0.1914
 6006SOL    HW119692   5.283   0.961   8.461  0.4513 -2.9423  1.1741
 6006SOL    HW219693   5.346   1.046   8.569 -1.5366 -0.1668  0.2665
 6007SOL     OW19694   7.485   1.547   8.980 -0.0001  0.6091  0.2042
 6007SOL    HW119695   7.549   1.613   9.005 -1.4586  2.6872 -1.1454
 6007SOL    HW219696   7.414   1.557   9.044 -0.7223  1.1957 -0.6575
 6008SOL     OW19697   8.162   8.151   9.202  0.5186  0.0615 -0.1696
 6008SOL    HW119698   8.234   8.132   9.142 -1.2538 -0.6628 -2.1698
 6008SOL    HW219699   8.085   8.159   9.146 -1.2310 -0.5664  2.0072
 6009SOL     OW19700   3.046   2.805   8.852  0.1760 -0.5776  0.5310
 6009SOL    HW119701   3.006   2.753   8.922 -0.3920 -1.1931 -0.2318
 6009SOL    HW219702   3.027   2.756   8.772  0.6408  0.2146 -0.0781
 6010SOL     OW19703   5.792   0.007   1.600 -0.0040  0.2438  0.1515
 6010SOL    HW119704   5.807  -0.082   1.633 -1.3427  0.0012  0.1547
 6010SOL    HW219705   5.773  -0.004   1.507  0.0755  0.5571  0.0955
 6011SOL     OW19706   3.706   6.473   0.747  0.3342 -0.3116  0.7167
 6011SOL    HW119707   3.662   6.455   0.831 -0.5989  0.9648  0.5233
 6011SOL    HW219708   3.694   6.567   0.733  2.7174 -0.0034  0.3830
 6012SOL     OW19709   3.905   8.388   6.231  0.0912 -0.3166 -0.6510
 6012SOL    HW119710   3.818   8.380   6.193  0.3476 -1.0092 -1.0963
 6012SOL    HW219711   3.964   8.353   6.164  0.8662  1.4895 -0.9814
 6013SOL     OW19712   2.527   0.203   2.471  0.2735  0.6405 -0.3609
 6013SOL    HW119713   2.513   0.296   2.489 -0.5541  0.8139 -1.7529
 6013SOL    HW219714   2.551   0.200   2.378 -0.3688 -0.5941 -0.4979
 6014SOL     OW19715   7.315   8.191   8.644  0.0439 -0.2992 -0.0933
 6014SOL    HW119716   7.377   8.205   8.716  0.0535 -0.4483 -0.0720
 6014SOL    HW219717   7.366   8.144   8.578 -0.4763 -1.9248  0.5936
 6015SOL     OW19718   2.198   0.524   1.397 -0.2846  0.7354 -0.0163
 6015SOL    HW119719   2.236   0.511   1.311  0.5048  1.4686  0.2078
 6015SOL    HW219720   2.134   0.454   1.406  1.0639 -0.5834 -0.3702
 6016SOL     OW19721   5.036   8.663   2.279 -0.4524  0.1839  0.0795
 6016SOL    HW119722   5.000   8.750   2.299 -1.2150  0.1806 -1.1348
 6016SOL    HW219723   5.022   8.654   2.184 -1.4255 -1.7449  0.3778
 6017SOL     OW19724   0.969   3.148   4.074  0.0799  0.2105 -0.3584
 6017SOL    HW119725   0.928   3.184   4.153  1.3348 -1.0185  0.9216
 6017SOL    HW219726   1.051   3.109   4.106  0.5793 -0.3915 -2.2708
 6018SOL     OW19727   0.020   5.111   9.543  0.0856 -0.0728  0.4888
 6018SOL    HW119728  -0.056   5.057   9.565  0.8303 -1.7985 -0.8926
 6018SOL    HW219729  -0.016   5.189   9.502 -0.9887  0.1039  1.6912
 6019SOL     OW19730   5.287   6.906   3.110 -0.1305  0.7653 -0.3150
 6019SOL    HW119731   5.338   6.904   3.191 -1.0351 -0.8885  0.2587
 6019SOL    HW219732   5.276   6.814   3.087  1.1091  1.1909 -3.0015
 6020SOL     OW19733   0.807   8.204   1.594  0.2034 -0.2060 -0.5038
 6020SOL    HW119734   0.900   8.193   1.577  0.0266 -0.2949 -1.4459
 6020SOL    HW219735   0.798   8.295   1.623  0.4444  0.1197 -1.4367
 6021SOL     OW19736   1.231   4.877   2.825 -0.4254  0.2395 -0.2885
 6021SOL    HW119737   1.303   4.864   2.887  0.3829 -0.5857 -1.3571
 6021SOL    HW219738   1.254   4.958   2.779 -0.7529  0.5628  0.1057
 6022SOL     OW19739   2.750   7.053   2.353  0.2859 -0.1035  0.2816
 6022SOL    HW119740   2.774   7.028   2.443 -0.7309  2.5238  1.3820
 6022SOL    HW219741   2.670   7.004   2.336 -0.0765  0.1203  1.2354
 6023SOL     OW19742   2.283   4.980   7.451  0.5488 -0.0453  0.7175
 6023SOL    HW119743   2.275   5.003   7.358  1.5594  1.7867  1.0289
 6023SOL    HW219744   2.203   4.932   7.471 -0.0517  0.2106 -0.9174
 6024SOL     OW19745   3.905   3.946   0.087  0.2896 -0.9795 -1.1081
 6024SOL    HW119746   3.909   3.955  -0.009  1.3268 -0.7301 -1.0557
 6024SOL    HW219747   3.853   4.020   0.116 -0.1033 -1.1015 -1.4832
 6025SOL     OW19748   5.389   4.998   8.159 -0.3827 -0.1411 -0.2680
 6025SOL    HW119749   5.419   4.988   8.069 -0.5410 -1.3701 -0.1983
 6025SOL    HW219750   5.305   4.953   8.163 -0.5714  0.2439  0.3999
 6026SOL     OW19751   2.726   6.704   5.399 -0.6722  0.1622  0.1299
 6026SOL    HW119752   2.733   6.635   5.465  1.2009 -0.5989 -0.7873
 6026SOL    HW219753   2.705   6.658   5.318  3.1031  0.1773 -1.0583
 6027SOL     OW19754   6.557   0.837   6.212 -0.5312 -0.1472 -0.1122
 6027SOL    HW119755   6.608   0.915   6.237 -1.6859  0.1973  1.2797
 6027SOL    HW219756   6.545   0.846   6.118  0.4863  0.6609 -0.1866
 6028SOL     OW19757   9.518   7.538   3.670  0.3397  0.2074 -0.1028
 6028SOL    HW119758   9.533   7.462   3.614 -1.0339  1.6741 -2.6683
 6028SOL    HW219759   9.514   7.503   3.759 -1.1674 -2.8473 -1.2389
 6029SOL     OW19760   1.959   6.574   2.530  0.2714 -0.1841  0.5304
 6029SOL    HW119761   1.918   6.493   2.561  0.4368 -0.6333 -0.3879
 6029SOL    HW219762   2.029   6.591   2.593  1.1737 -1.5694 -0.0524
 6030SOL     OW19763   7.458   5.139   1.885 -0.0545  0.9609  0.2399
 6030SOL    HW119764   7.397   5.073   1.919 -0.5340 -0.7566 -3.4399
 6030SOL    HW219765   7.544   5.110   1.915 -0.4694 -0.1768  0.3940
 6031SOL     OW19766   2.295   7.752   9.340  0.3410 -0.4956  0.1202
 6031SOL    HW119767   2.258   7.730   9.254  1.3386 -0.3189 -0.3669
 6031SOL    HW219768   2.274   7.845   9.351 -1.9479 -1.0603  1.2014
 6032SOL     OW19769   1.790   4.236   5.786 -0.5127 -0.3223 -0.4025
 6032SOL    HW119770   1.865   4.190   5.824 -0.6541 -2.2060 -2.2158
 6032SOL    HW219771   1.714   4.197   5.830 -0.5390 -0.3773 -0.4956
 6033SOL     OW19772   3.200   6.972   8.972  0.0828  0.3778  0.1898
 6033SOL    HW119773   3.263   6.907   8.943  0.1872  0.4584  0.2330
 6033SOL    HW219774   3.187   7.030   8.897 -2.3317 -1.4136 -0.9243
 6034SOL     OW19775   6.169   0.190   6.426 -0.0086  0.0849 -0.2251
 6034SOL    HW119776   6.223   0.203   6.504 -0.2044 -0.3117 -0.0189
 6034SOL    HW219777   6.095   0.249   6.438  0.0283  0.1221 -0.1781
 6035SOL     OW19778   1.477   6.909   7.410  0.2220 -0.5457 -0.5962
 6035SOL    HW119779   1.482   6.883   7.502  1.3455  0.2508 -0.4217
 6035SOL    HW219780   1.438   6.997   7.412  1.6297  0.1052 -0.7465
 6036SOL     OW19781   8.847   5.544   3.870  0.5638 -0.2910  0.2424
 6036SOL    HW119782   8.901   5.549   3.950 -1.1425  0.8492  1.4017
 6036SOL    HW219783   8.759   5.568   3.899 -0.1212  0.1718 -2.0082
 6037SOL     OW19784   8.130   7.192   2.396 -0.0852 -0.1678 -0.2890
 6037SOL    HW119785   8.048   7.176   2.349 -0.2054  1.6872 -0.7983
 6037SOL    HW219786   8.187   7.119   2.372 -0.8109 -0.2762 -1.7661
 6038SOL     OW19787   0.017   8.079   0.790  0.3728 -0.2717 -0.1941
 6038SOL    HW119788   0.070   8.148   0.752  1.2832 -0.8796 -0.0553
 6038SOL    HW219789  -0.065   8.122   0.814  1.4688  1.0854  1.2533
 6039SOL     OW19790   3.522   3.955   5.001  0.5776  0.1878 -0.4050
 6039SOL    HW119791   3.460   3.885   5.022  0.5185  0.4079  0.1574
 6039SOL    HW219792   3.588   3.912   4.946 -0.7279  0.2272 -2.0710
 6040SOL     OW19793   7.240   2.840   4.762 -0.7920 -0.5659 -1.0600
 6040SOL    HW119794   7.276   2.790   4.689  1.1665  0.4318 -0.8646
 6040SOL    HW219795   7.278   2.798   4.840 -1.7399 -0.7588 -0.6927
 6041SOL     OW19796   4.275   9.171   2.287  0.3724  0.0496  0.0195
 6041SOL    HW119797   4.354   9.118   2.301 -0.3066 -0.7028  1.2087
 6041SOL    HW219798   4.272   9.230   2.363 -0.0992  0.1998 -0.1120
 6042SOL     OW19799   8.218   7.923   2.044 -0.1476  0.3768 -0.4042
 6042SOL    HW119800   8.163   7.904   2.120 -1.6524  0.7365 -1.3797
 6042SOL    HW219801   8.299   7.957   2.082 -1.3535  1.8085  1.0160
 6043SOL     OW19802   7.488   8.029   5.288  0.2497  0.7891  0.2558
 6043SOL    HW119803   7.469   8.063   5.375  0.9392  1.4184  0.1778
 6043SOL    HW219804   7.575   7.990   5.296  1.1367  2.4894 -0.5599
 6044SOL     OW19805   4.137   6.379   5.137 -0.4480  0.1756  0.7113
 6044SOL    HW119806   4.138   6.337   5.050  0.4826 -0.2280  0.9048
 6044SOL    HW219807   4.062   6.439   5.133  0.2028  0.9541 -0.7404
 6045SOL     OW19808   5.670   8.777   3.001  0.5427  0.3814  0.2875
 6045SOL    HW119809   5.608   8.806   2.934 -0.3464  0.7422  1.2398
 6045SOL    HW219810   5.756   8.783   2.959  0.0248  0.7590 -0.7546
 6046SOL     OW19811   7.011   1.908   0.776 -0.4110  0.2240 -0.2791
 6046SOL    HW119812   6.980   1.988   0.819 -0.9531  1.2394 -2.4220
 6046SOL    HW219813   7.098   1.894   0.812 -0.4762  1.5382  0.4567
 6047SOL     OW19814   0.542   8.985   2.206  0.4790  0.0797  0.4933
 6047SOL    HW119815   0.457   9.010   2.170  1.4182 -2.9784 -5.0729
 6047SOL    HW219816   0.604   9.047   2.169  1.0853  0.2949  1.7876
 6048SOL     OW19817   9.320   3.169   4.633 -0.0583 -0.2351 -0.0144
 6048SOL    HW119818   9.309   3.257   4.669 -0.3918 -0.1848 -0.2354
 6048SOL    HW219819   9.233   3.144   4.603  0.0593 -0.5937 -0.0629
 6049SOL     OW19820   8.338   8.118   0.923 -0.1671 -0.1694  0.6022
 6049SOL    HW119821   8.267   8.183   0.929  0.2172  0.2090  1.1419
 6049SOL    HW219822   8.319   8.070   0.843  0.0983  1.2602 -0.3478
 6050SOL     OW19823   6.662   2.643   7.998  0.3851  0.6455  0.4536
 6050SOL    HW119824   6.636   2.631   8.089 -0.4548  0.0669  0.1485
 6050SOL    HW219825   6.702   2.559   7.974  1.1302  0.9969  0.4596
 6051SOL     OW19826   0.967   9.377   5.763  0.5678 -0.3606 -0.2066
 6051SOL    HW119827   1.026   9.449   5.738 -1.0570  0.5337 -1.6933
 6051SOL    HW219828   0.968   9.318   5.688 -0.9658  0.0638 -0.5973
 6052SOL     OW19829   5.365   5.893   8.722  0.2010 -0.1403 -0.2548
 6052SOL    HW119830   5.447   5.919   8.761 -1.1708 -0.3460  3.0545
 6052SOL    HW219831   5.359   5.944   8.641  3.5951 -0.2980 -0.7308
 6053SOL     OW19832   5.598   4.057   5.751 -0.0688  0.3020  0.0872
 6053SOL    HW119833   5.625   3.976   5.793  1.0643  0.5702 -0.1079
 6053SOL    HW219834   5.652   4.125   5.791 -0.3127  0.8218 -0.4457
 6054SOL     OW19835   1.797   2.667   8.322 -0.0390 -0.2038 -0.3497
 6054SOL    HW119836   1.721   2.657   8.379  0.5864  2.9813  1.2755
 6054SOL    HW219837   1.847   2.586   8.334 -2.3332 -1.7252 -0.3055
 6055SOL     OW19838   6.733   1.068   7.775  0.2217  0.2914 -0.0705
 6055SOL    HW119839   6.806   1.047   7.717 -1.1870  1.6422 -2.4793
 6055SOL    HW219840   6.679   1.129   7.725 -2.3944 -0.3649  1.7378
 6056SOL     OW19841   5.364   8.691   0.355 -0.3727  0.3639  0.0542
 6056SOL    HW119842   5.413   8.667   0.276 -0.7640  0.9432 -0.3713
 6056SOL    HW219843   5.326   8.609   0.385 -0.1204  0.1156 -0.2963
 6057SOL     OW19844   0.853   1.253   6.566  0.0918 -0.3030 -0.3586
 6057SOL    HW119845   0.790   1.184   6.542  0.2851 -0.2601 -1.0004
 6057SOL    HW219846   0.911   1.260   6.490  0.3030  0.3090 -0.1432
 6058SOL     OW19847   4.773   7.832   8.914 -0.6873 -0.1656 -0.5332
 6058SOL    HW119848   4.849   7.889   8.918  0.1277 -1.2627  2.0627
 6058SOL    HW219849   4.809   7.745   8.894 -0.8702 -1.0752  2.5581
 6059SOL     OW19850   2.067   6.819   8.152  0.0590  0.6410 -0.3047
 6059SOL    HW119851   2.044   6.828   8.059  0.4876 -0.0360 -0.4825
 6059SOL    HW219852   2.161   6.836   8.155  0.4743 -1.3331 -0.3345
 6060SOL     OW19853   3.273   2.579   8.039 -0.4665  0.4713  0.3439
 6060SOL    HW119854   3.207   2.645   8.059 -0.2355  0.1149  2.5176
 6060SOL    HW219855   3.242   2.538   7.958 -0.6925  3.0648 -0.9868
 6061SOL     OW19856   3.843   2.050   5.765  0.5037  0.5964 -0.7410
 6061SOL    HW119857   3.799   2.044   5.849  0.2143 -2.0235 -0.9896
 6061SOL    HW219858   3.936   2.039   5.785  0.4305 -0.0765 -0.7471
 6062SOL     OW19859   3.458   5.145   8.521 -0.1645 -0.3962  0.3387
 6062SOL    HW119860   3.378   5.145   8.468 -0.8210  1.3527  1.2582
 6062SOL    HW219861   3.458   5.060   8.564 -2.1413 -0.0413  1.1634
 6063SOL     OW19862   6.340   9.240   8.018  0.6790  0.2626  0.3560
 6063SOL    HW119863   6.339   9.175   8.088  0.8929  0.4629  0.5471
 6063SOL    HW219864   6.261   9.222   7.967  0.9225 -0.3838  0.1895
 6064SOL     OW19865   5.559   3.317   0.270 -0.6613  0.1728  0.3993
 6064SOL    HW119866   5.606   3.323   0.354  2.6331 -1.6880 -1.1293
 6064SOL    HW219867   5.505   3.239   0.279 -0.2952 -0.0436  0.7784
 6065SOL     OW19868   7.009   1.053   6.250 -0.4285 -0.1027  0.7622
 6065SOL    HW119869   6.966   1.115   6.309 -0.7734  3.8712 -3.1038
 6065SOL    HW219870   7.100   1.083   6.246 -0.5549  0.1461 -1.0493
 6066SOL     OW19871   1.963   8.239   2.078  0.3271  0.0530 -0.1842
 6066SOL    HW119872   1.990   8.186   2.003 -0.7679  0.7538 -1.1039
 6066SOL    HW219873   2.000   8.194   2.154 -1.3297 -2.5279 -0.8140
 6067SOL     OW19874   5.510   3.998   1.530  0.1513 -0.0795  0.1312
 6067SOL    HW119875   5.449   4.028   1.597 -2.0019 -2.0645 -0.8053
 6067SOL    HW219876   5.539   4.079   1.486 -1.5242  0.9662  0.8598
 6068SOL     OW19877   7.893   5.328   5.304  0.0915  0.3039  0.4204
 6068SOL    HW119878   7.867   5.267   5.373  0.3974 -1.7665 -1.1950
 6068SOL    HW219879   7.889   5.276   5.224  1.7992  2.0135 -0.8622
 6069SOL     OW19880   7.756   4.453   7.415 -0.4247 -0.1970  0.1520
 6069SOL    HW119881   7.718   4.365   7.419  0.3917 -0.5418  0.3653
 6069SOL    HW219882   7.680   4.511   7.419 -0.9043 -0.8052  3.4086
 6070SOL     OW19883   2.920   1.136   6.949  0.0640  0.4792  0.8395
 6070SOL    HW119884   2.838   1.155   6.904  1.4684  1.3610 -1.5433
 6070SOL    HW219885   2.945   1.049   6.919  1.2627  1.2742 -0.6971
 6071SOL     OW19886   3.311   9.639   6.120 -0.6552  0.3172 -0.0797
 6071SOL    HW119887   3.238   9.670   6.067 -1.5923 -1.0420  0.3610
 6071SOL    HW219888   3.274   9.568   6.172  0.0441  1.9373  2.8395
 6072SOL     OW19889   6.518   8.833   5.398 -0.4360  0.1662  0.1573
 6072SOL    HW119890   6.439   8.850   5.347  0.2731 -0.2882 -1.1439
 6072SOL    HW219891   6.588   8.877   5.350  0.0412  1.0682  1.6088
 6073SOL     OW19892   7.342   4.101   1.967 -0.0384 -0.0087 -0.0086
 6073SOL    HW119893   7.386   4.168   2.020  0.5449  0.6270 -1.2365
 6073SOL    HW219894   7.262   4.081   2.015 -0.2064  1.5635  0.4239
 6074SOL     OW19895   3.552   8.204   3.087 -0.1698  0.5870 -0.5049
 6074SOL    HW119896   3.530   8.149   3.012 -1.5418 -0.4262  0.6006
 6074SOL    HW219897   3.636   8.171   3.118  0.1824  0.7172 -1.2909
 6075SOL     OW19898   5.153   4.599   7.880 -0.5865 -0.3080  0.1734
 6075SOL    HW119899   5.099   4.624   7.805 -1.4534  0.9414  1.1612
 6075SOL    HW219900   5.219   4.667   7.886 -0.6290 -0.3025  0.6303
 6076SOL     OW19901   0.642   1.104   4.140  0.3294  0.0444  0.6874
 6076SOL    HW119902   0.701   1.179   4.151  0.9643 -0.3477  0.1189
 6076SOL    HW219903   0.554   1.141   4.143  0.6248  0.7422  0.8948
 6077SOL     OW19904   3.085   4.065   2.651 -0.2040 -0.3218 -0.4811
 6077SOL    HW119905   3.084   4.143   2.706 -0.2828 -2.4945  2.9070
 6077SOL    HW219906   3.150   4.084   2.583 -0.1733  2.6141  0.2344
 6078SOL     OW19907   5.980   4.982   0.954  0.2271 -0.2925  0.0818
 6078SOL    HW119908   5.892   4.988   0.918  0.1934  0.3648  0.2544
 6078SOL    HW219909   5.995   4.888   0.965 -0.9915 -0.3880  1.3432
 6079SOL     OW19910   1.663   5.319   1.269  0.3811  0.0666  0.7574
 6079SOL    HW119911   1.740   5.315   1.213 -1.1258 -1.1100 -1.3924
 6079SOL    HW219912   1.659   5.411   1.297  2.6521  0.0938  1.1584
 6080SOL     OW19913   1.168   9.292   2.725  0.4488 -0.1579 -0.2379
 6080SOL    HW119914   1.158   9.365   2.663  0.5574 -0.7099 -0.9116
 6080SOL    HW219915   1.263   9.282   2.734  0.4445  0.5274  0.7567
 6081SOL     OW19916   8.270   5.004   7.982 -0.2978 -0.1294  0.2013
 6081SOL    HW119917   8.265   4.908   7.984  0.8326 -0.2253  3.3443
 6081SOL    HW219918   8.202   5.034   8.041  0.2178  0.9522  0.2746
 6082SOL     OW19919   3.270   2.558   7.152  0.4634  0.2447 -0.0242
 6082SOL    HW119920   3.231   2.490   7.208  0.5135  0.7772  0.6696
 6082SOL    HW219921   3.216   2.557   7.073  0.5716 -0.7203 -0.1008
 6083SOL     OW19922   9.550   8.863   5.091 -0.0270 -0.1694  0.1413
 6083SOL    HW119923   9.569   8.953   5.064 -0.3793  0.5345  2.1059
 6083SOL    HW219924   9.546   8.867   5.186  1.5022 -2.5866  0.3718
 6084SOL     OW19925   4.060   5.938   7.891 -0.2434  0.6347  0.1079
 6084SOL    HW119926   4.024   5.956   7.804  4.5717  0.1008 -2.3794
 6084SOL    HW219927   4.059   6.022   7.936  0.3521  1.8118 -1.9576
 6085SOL     OW19928   1.586   8.759   4.517  0.0219 -0.1521 -0.3613
 6085SOL    HW119929   1.526   8.833   4.528 -0.6980 -0.7003 -0.4900
 6085SOL    HW219930   1.598   8.725   4.606  2.6115  1.8111  0.1219
 6086SOL     OW19931   3.139   8.874   0.368 -0.1192 -0.0125 -0.1782
 6086SOL    HW119932   3.085   8.884   0.446 -0.5790 -1.7370 -0.2280
 6086SOL    HW219933   3.202   8.806   0.392  0.7908  0.5902 -0.7848
 6087SOL     OW19934   4.817   4.928   3.402 -0.4522 -0.1852  0.1747
 6087SOL    HW119935   4.875   4.992   3.444 -1.3688  0.8514 -0.0968
 6087SOL    HW219936   4.729   4.964   3.415 -0.7628  0.4878 -3.0975
 6088SOL     OW19937   9.319   7.496   6.676  0.4623 -0.1693  0.6529
 6088SOL    HW119938   9.243   7.546   6.703  0.3313  0.1881 -0.3446
 6088SOL    HW219939   9.392   7.535   6.723  0.3857  1.0830 -0.2326
 6089SOL     OW19940   2.554   3.351   5.270  0.4112  0.0167  0.7804
 6089SOL    HW119941   2.587   3.303   5.346 -1.4248 -1.0387  0.9586
 6089SOL    HW219942   2.630   3.356   5.211  1.5518 -0.1578  2.1575
 6090SOL     OW19943   3.431   7.087   3.217 -0.0714 -0.2765 -0.0551
 6090SOL    HW119944   3.480   7.090   3.134 -1.0354  0.8343 -0.6093
 6090SOL    HW219945   3.354   7.035   3.197 -0.2795 -0.0533  0.1701
 6091SOL     OW19946   7.638   1.741   5.482 -0.3913  0.5042  0.2160
 6091SOL    HW119947   7.698   1.808   5.516  0.3333  0.4821 -0.9458
 6091SOL    HW219948   7.584   1.717   5.557  0.3205  1.3291  1.0243
 6092SOL     OW19949   5.037   3.214   1.034  0.2583  0.2572  0.0706
 6092SOL    HW119950   5.083   3.266   1.100  0.9480 -0.3369  0.0668
 6092SOL    HW219951   4.972   3.165   1.084  0.8603 -0.2832  0.3353
 6093SOL     OW19952   7.074   1.105   3.558  0.0287 -0.5961  0.4572
 6093SOL    HW119953   7.147   1.167   3.563  1.7526 -2.4210 -0.3873
 6093SOL    HW219954   7.010   1.147   3.501  1.2385  0.3245 -0.2771
 6094SOL     OW19955   3.073   0.456   5.788  0.0953 -0.2193  0.7727
 6094SOL    HW119956   3.040   0.411   5.866 -0.2834  1.6556  1.7596
 6094SOL    HW219957   3.013   0.530   5.777  2.0919  1.4758  0.7172
 6095SOL     OW19958   3.877   6.345   8.140 -0.0490  0.3617  0.8173
 6095SOL    HW119959   3.907   6.435   8.154 -1.9970  1.1185  0.4129
 6095SOL    HW219960   3.901   6.300   8.221 -0.5484  1.6816  1.7463
 6096SOL     OW19961   8.268   7.043   5.119  0.1967  0.5790  0.3602
 6096SOL    HW119962   8.219   7.077   5.044 -1.6093  0.4431  1.4394
 6096SOL    HW219963   8.304   6.959   5.088 -0.8909  0.3163 -0.2262
 6097SOL     OW19964   0.026   0.356   3.876  0.0410 -0.1809 -1.1910
 6097SOL    HW119965   0.088   0.373   3.946  0.8340  0.0418 -1.9251
 6097SOL    HW219966   0.069   0.290   3.821 -0.2441  0.1687 -1.8565
 6098SOL     OW19967   3.633   3.436   4.315 -0.0786 -0.0400  0.0110
 6098SOL    HW119968   3.667   3.408   4.231  0.5111  0.7367 -0.0216
 6098SOL    HW219969   3.541   3.410   4.314  0.5316 -2.4038  0.2087
 6099SOL     OW19970   2.883   1.190   2.219  0.1109 -1.1514 -0.0473
 6099SOL    HW119971   2.940   1.128   2.173  0.8595 -1.5869  1.4218
 6099SOL    HW219972   2.798   1.182   2.174  0.9057 -1.2144 -1.6220
 6100SOL     OW19973   5.872   9.301   0.607 -0.0851 -0.0626  0.3237
 6100SOL    HW119974   5.916   9.226   0.569  2.8151  0.0507  3.0690
 6100SOL    HW219975   5.924   9.377   0.579  0.8819  0.2066  2.6151
 6101SOL     OW19976   2.624   8.483   4.060  0.3669 -0.2636  0.4924
 6101SOL    HW119977   2.557   8.418   4.081  1.0574 -2.8749 -3.9874
 6101SOL    HW219978   2.581   8.542   3.998  0.9315  0.9896  1.2695
 6102SOL     OW19979   5.068   4.365   2.480 -0.1512 -0.2097  0.4699
 6102SOL    HW119980   5.035   4.449   2.512 -0.5551 -0.6204  1.1423
 6102SOL    HW219981   5.007   4.300   2.514 -0.7905 -0.6601 -1.4012
 6103SOL     OW19982   0.357   8.853   9.275  0.1664  0.2250 -0.2494
 6103SOL    HW119983   0.414   8.891   9.342  0.5070  1.0325 -0.9778
 6103SOL    HW219984   0.351   8.921   9.207 -0.6354 -0.3508 -0.7708
 6104SOL     OW19985   7.165   2.586   1.769 -0.2322 -0.0140 -0.4261
 6104SOL    HW119986   7.174   2.625   1.856  0.6854  0.1234 -0.5691
 6104SOL    HW219987   7.218   2.642   1.712 -0.2175 -0.5334 -0.9373
 6105SOL     OW19988   8.058   6.169   6.152  0.3368 -0.0479 -0.5741
 6105SOL    HW119989   7.970   6.166   6.116 -0.0104  0.8072  0.1890
 6105SOL    HW219990   8.096   6.250   6.117  0.4885  0.0637 -0.1551
 6106SOL     OW19991   0.058   4.804   9.176 -0.6460  0.2382 -0.3643
 6106SOL    HW119992   0.118   4.865   9.132 -1.9042  1.4800 -0.4547
 6106SOL    HW219993   0.056   4.834   9.267 -0.7789 -0.0715 -0.2635
 6107SOL     OW19994   7.787   0.721   5.821 -0.0682  0.6140 -0.8802
 6107SOL    HW119995   7.800   0.744   5.913  2.4464 -2.6491 -0.2245
 6107SOL    HW219996   7.803   0.803   5.774  0.1024  2.0537  1.4960
 6108SOL     OW19997   2.047   8.600   8.031 -0.0507 -0.4578 -0.6301
 6108SOL    HW119998   2.067   8.682   7.984  0.5053 -1.3601 -2.0434
 6108SOL    HW219999   1.954   8.605   8.049 -0.3439 -0.1783 -2.1102
 6109SOL     OW20000   5.344   1.396   3.590  0.1349  0.3083 -0.2285
 6109SOL    HW120001   5.337   1.401   3.495  0.7900 -1.1378 -0.3766
 6109SOL    HW220002   5.255   1.375   3.619  0.1255 -0.2145 -0.6158
 6110SOL     OW20003   0.871   4.816   5.656 -0.0094  0.2453  0.0989
 6110SOL    HW120004   0.877   4.821   5.560 -0.1004  0.6699  0.1148
 6110SOL    HW220005   0.885   4.723   5.675 -1.5298 -0.1277 -0.4410
 6111SOL     OW20006   9.027   2.658   3.626  0.0009 -0.1871 -0.1231
 6111SOL    HW120007   9.109   2.707   3.618 -0.4297  0.4206 -0.9855
 6111SOL    HW220008   9.034   2.588   3.560  0.7955 -1.6009  1.3943
 6112SOL     OW20009   5.443   4.241   0.905  0.2555 -0.2035  0.4065
 6112SOL    HW120010   5.385   4.237   0.981  0.4711  0.2264  0.5965
 6112SOL    HW220011   5.465   4.334   0.897  0.7600 -0.3379  0.2179
 6113SOL     OW20012   7.678   5.862   5.008  0.2739 -0.1573  0.1584
 6113SOL    HW120013   7.610   5.795   5.021  1.6861 -1.5708  0.5571
 6113SOL    HW220014   7.692   5.865   4.914  1.7520 -2.1075  0.2540
 6114SOL     OW20015   4.661   4.587   0.171 -0.6925 -0.3618  0.3109
 6114SOL    HW120016   4.662   4.677   0.138  0.8597  0.4754  2.3719
 6114SOL    HW220017   4.736   4.546   0.129 -0.5700 -0.2528  0.4214
 6115SOL     OW20018   0.838   2.120   9.001  0.0443 -0.2306  0.3185
 6115SOL    HW120019   0.785   2.043   8.980 -1.6715  0.9132  0.3078
 6115SOL    HW220020   0.898   2.089   9.070  0.3538 -1.9153 -0.6443
 6116SOL     OW20021   3.834   6.510   8.746 -0.2259 -0.2822 -0.2885
 6116SOL    HW120022   3.762   6.544   8.692  0.2979  1.6256  0.1560
 6116SOL    HW220023   3.843   6.419   8.718 -3.2930 -0.8482  0.1418
 6117SOL     OW20024   8.229   8.916   7.741 -0.5203 -0.0772  0.3084
 6117SOL    HW120025   8.324   8.909   7.729 -0.6041 -0.7162 -0.0580
 6117SOL    HW220026   8.214   9.008   7.760  0.1927 -0.0012  0.5361
 6118SOL     OW20027   8.649   7.089   4.645 -0.0913  0.0156  0.3649
 6118SOL    HW120028   8.733   7.049   4.668 -1.3980 -4.0744 -1.2398
 6118SOL    HW220029   8.586   7.048   4.704 -1.2009  2.2635  0.8406
 6119SOL     OW20030   1.297   5.430   1.800 -0.3613  0.4298 -0.5710
 6119SOL    HW120031   1.339   5.374   1.865 -1.1383  0.6175  0.1193
 6119SOL    HW220032   1.208   5.394   1.791 -0.2578  0.3968 -1.5487
 6120SOL     OW20033   9.326   8.929   4.244  0.2585  0.0744  0.3291
 6120SOL    HW120034   9.416   8.960   4.255  0.3538 -0.3041  0.6069
 6120SOL    HW220035   9.316   8.919   4.149  1.3436 -2.3332  0.4100
 6121SOL     OW20036   5.304   4.913   9.054  0.4007  0.1362 -0.0036
 6121SOL    HW120037   5.298   4.930   9.147  0.5943  1.1553 -0.1711
 6121SOL    HW220038   5.234   4.966   9.015  1.8866  1.7008 -0.6612
 6122SOL     OW20039   4.223   3.796   2.027  0.5105  0.0716 -0.0935
 6122SOL    HW120040   4.134   3.826   2.047  0.4994  0.4604 -0.6960
 6122SOL    HW220041   4.225   3.790   1.932  0.7518 -1.1398 -0.0293
 6123SOL     OW20042   3.515   2.357   2.690  0.2829  0.3447  0.0310
 6123SOL    HW120043   3.424   2.335   2.712  0.0915  0.6594 -0.4262
 6123SOL    HW220044   3.555   2.378   2.775  0.3152 -1.1295  0.4116
 6124SOL     OW20045   1.818   6.026   4.939  0.6530 -0.2091 -0.2592
 6124SOL    HW120046   1.826   6.074   4.857  1.6004  0.4943  0.2235
 6124SOL    HW220047   1.908   5.998   4.959  0.6293  0.5751  1.0758
 6125SOL     OW20048   2.149   7.977   8.892  0.1458 -0.2451 -0.2727
 6125SOL    HW120049   2.118   8.053   8.941 -0.7325 -0.7689 -0.0003
 6125SOL    HW220050   2.085   7.967   8.821 -1.5442 -2.5283  1.4473
 6126SOL     OW20051   2.716   0.943   8.416 -0.9954 -0.1105 -0.3934
 6126SOL    HW120052   2.751   0.888   8.487  1.0311 -0.1338 -1.3368
 6126SOL    HW220053   2.684   1.021   8.461 -1.2385 -0.8066  0.6998
 6127SOL     OW20054   1.399   0.423   0.387  0.3696 -0.0090  0.1286
 6127SOL    HW120055   1.319   0.372   0.374  0.0893  0.5821 -0.5180
 6127SOL    HW220056   1.467   0.373   0.342  0.0580  0.2888 -0.6773
 6128SOL     OW20057   9.221   6.978   1.347  0.1113  0.4469 -0.4656
 6128SOL    HW120058   9.242   7.071   1.350  0.4721  0.3441  1.4705
 6128SOL    HW220059   9.194   6.962   1.257  0.4138  2.3369 -0.9252
 6129SOL     OW20060   8.166   4.891   0.320  0.6984  0.0935 -0.7333
 6129SOL    HW120061   8.122   4.808   0.307  0.2936  0.2581 -0.4551
 6129SOL    HW220062   8.097   4.951   0.349  1.2432  0.1523  0.5020
 6130SOL     OW20063   0.538   6.129   9.578  0.0742  0.1319  0.4648
 6130SOL    HW120064   0.602   6.131   9.507  1.7032 -1.3891  1.8138
 6130SOL    HW220065   0.455   6.155   9.536  1.4312  1.7862 -1.4220
 6131SOL     OW20066   5.327   7.754   8.794  0.0832  0.5332  0.5868
 6131SOL    HW120067   5.397   7.799   8.841  1.2902 -0.0956 -0.5576
 6131SOL    HW220068   5.312   7.807   8.716  0.9262 -0.5314 -0.3393
 6132SOL     OW20069   8.113   3.469   3.898 -0.5528 -0.0177 -0.0334
 6132SOL    HW120070   8.204   3.492   3.877 -0.6445  1.4478  0.9803
 6132SOL    HW220071   8.106   3.376   3.877  1.1262 -0.1182 -0.2986
 6133SOL     OW20072   2.731   5.487   0.298 -0.0659  0.2474  0.1833
 6133SOL    HW120073   2.755   5.395   0.289 -2.0396 -0.3973  0.9461
 6133SOL    HW220074   2.681   5.506   0.218  0.2445  0.6323  0.0790
 6134SOL     OW20075   8.128   8.086   9.456  0.4257  0.6519  0.0777
 6134SOL    HW120076   8.116   7.991   9.460 -1.4652  0.9049  1.7456
 6134SOL    HW220077   8.137   8.105   9.363 -0.7844 -0.9912 -0.4227
 6135SOL     OW20078   6.470   8.660   4.603 -0.0685 -0.3367 -0.3892
 6135SOL    HW120079   6.532   8.591   4.626  1.6642  0.7091 -1.6848
 6135SOL    HW220080   6.392   8.640   4.654  0.9450 -2.3176  0.4929
 6136SOL     OW20081   5.928   7.982   4.467 -0.4247  0.6120  0.0518
 6136SOL    HW120082   5.964   7.944   4.547 -0.6286  0.1839 -0.0557
 6136SOL    HW220083   5.994   8.045   4.439  0.4553 -0.4538 -0.3682
 6137SOL     OW20084   3.887   6.060   0.423  0.2569  0.0372  0.3819
 6137SOL    HW120085   3.908   6.147   0.457  1.0307 -0.2945  0.7989
 6137SOL    HW220086   3.961   6.038   0.367  0.2078 -0.4641  0.5098
 6138SOL     OW20087   8.023   8.691   5.032  0.3702 -0.0473  0.4661
 6138SOL    HW120088   7.989   8.613   5.077  0.9252 -0.3336  0.4025
 6138SOL    HW220089   8.035   8.755   5.102  0.6336 -0.2801  0.6377
 6139SOL     OW20090   4.679   2.916   5.778  0.6018  0.0343 -0.0436
 6139SOL    HW120091   4.698   2.834   5.732 -2.4894 -0.2170 -1.1629
 6139SOL    HW220092   4.759   2.968   5.770  1.4296 -1.4487 -2.6052
 6140SOL     OW20093   2.678   1.490   2.424  0.3914  0.1649  0.5050
 6140SOL    HW120094   2.678   1.536   2.340  2.7591  0.6260  0.6717
 6140SOL    HW220095   2.589   1.455   2.433 -0.1498  0.7888 -1.7927
 6141SOL     OW20096   7.614   3.946   1.355 -0.7303  0.0359 -0.2279
 6141SOL    HW120097   7.656   3.947   1.441  0.6565 -0.7388 -0.8611
 6141SOL    HW220098   7.585   3.855   1.343 -0.5515  0.0446 -0.7482
 6142SOL     OW20099   2.582   6.878   0.295  0.1861  0.2906 -0.6088
 6142SOL    HW120100   2.666   6.918   0.318  0.5765 -1.2352  0.7835
 6142SOL    HW220101   2.605   6.808   0.233  0.0857 -0.7381  0.4837
 6143SOL     OW20102   7.724   5.984   6.641 -0.0540 -0.0646  0.1817
 6143SOL    HW120103   7.709   6.017   6.730  1.7259  0.6129  0.2806
 6143SOL    HW220104   7.749   5.893   6.654  2.7070  0.6589  0.7064
 6144SOL     OW20105   0.267   7.390   1.445 -0.1062 -0.4626 -0.0689
 6144SOL    HW120106   0.196   7.426   1.499 -1.1346 -2.7605  0.2465
 6144SOL    HW220107   0.231   7.388   1.356  0.7423  1.1829 -0.4869
 6145SOL     OW20108   3.290   1.939   4.617  0.3296 -0.0234  0.2225
 6145SOL    HW120109   3.200   1.930   4.650  0.7982 -0.6600  1.3884
 6145SOL    HW220110   3.343   1.887   4.678  1.5943  0.9709  0.0084
 6146SOL     OW20111   2.752   4.905   5.969  0.0891  0.2107  0.5937
 6146SOL    HW120112   2.746   4.913   5.874 -0.4798 -0.1170  0.5929
 6146SOL    HW220113   2.736   4.994   6.002 -1.3375  0.0426  0.4264
 6147SOL     OW20114   6.581   3.265   1.850  0.4838 -0.1022 -0.1061
 6147SOL    HW120115   6.558   3.236   1.762  1.7693  1.4896 -1.0231
 6147SOL    HW220116   6.496   3.287   1.891 -0.0172  1.1039 -1.6954
 6148SOL     OW20117   7.785   5.918   0.612 -0.3131 -0.2108 -0.9672
 6148SOL    HW120118   7.700   5.882   0.636  0.8984 -1.7017  1.4850
 6148SOL    HW220119   7.833   5.845   0.574  1.0968 -0.4929  1.1559
 6149SOL     OW20120   6.969   0.314   9.251 -0.2683  0.3985 -0.3327
 6149SOL    HW120121   6.985   0.388   9.310  0.3568  0.3305 -0.4137
 6149SOL    HW220122   7.008   0.239   9.295 -0.4082  0.2208 -0.5099
 6150SOL     OW20123   5.678   1.798   2.168  0.0339 -0.5200 -0.1675
 6150SOL    HW120124   5.638   1.826   2.086  0.4938 -0.7967 -0.4934
 6150SOL    HW220125   5.719   1.714   2.147  1.5413  0.1551 -0.1013
 6151SOL     OW20126   4.309   2.912   9.185  0.2705 -0.1834 -0.2749
 6151SOL    HW120127   4.235   2.875   9.235 -0.4667  1.4941 -0.0593
 6151SOL    HW220128   4.292   3.006   9.183  2.0569  0.1645 -0.8449
 6152SOL     OW20129   1.764   1.885   9.090 -0.2164  0.2158  0.1292
 6152SOL    HW120130   1.764   1.981   9.085 -1.8781  0.2458  0.1379
 6152SOL    HW220131   1.840   1.859   9.038 -0.1810  1.5127 -0.5363
 6153SOL     OW20132   5.280   3.632   3.392  0.3993  0.0875 -0.1957
 6153SOL    HW120133   5.351   3.694   3.374  0.3774  0.4898  1.0441
 6153SOL    HW220134   5.200   3.683   3.379  0.2815 -0.5481 -2.2751
 6154SOL     OW20135   6.103   9.379   6.573  0.1006  0.3373  0.3539
 6154SOL    HW120136   6.145   9.318   6.513  0.2613 -0.4553  1.2482
 6154SOL    HW220137   6.164   9.453   6.578  1.5235 -0.8550  1.7421
 6155SOL     OW20138   3.727   7.245   8.835  0.4739  0.1208  0.0691
 6155SOL    HW120139   3.685   7.299   8.769  0.7802 -0.2683 -0.4530
 6155SOL    HW220140   3.814   7.227   8.800  0.0866 -1.4300 -0.1944
 6156SOL     OW20141   0.518   1.377   5.141 -0.1078 -0.4942  0.5643
 6156SOL    HW120142   0.590   1.378   5.079 -0.6232 -0.1563 -0.0317
 6156SOL    HW220143   0.453   1.436   5.104  0.0669  0.6661  2.0256
 6157SOL     OW20144   1.474   8.664   5.665 -0.2340  0.1957 -0.1416
 6157SOL    HW120145   1.431   8.723   5.603 -0.7393 -0.6021 -0.5620
 6157SOL    HW220146   1.549   8.628   5.617 -0.0059  0.3882  0.0678
 6158SOL     OW20147   2.073   4.403   1.166  0.0185  0.5703 -0.6808
 6158SOL    HW120148   2.093   4.339   1.097 -0.1802  0.2154 -0.4100
 6158SOL    HW220149   2.150   4.461   1.168  0.1009  0.4784 -1.0799
 6159SOL     OW20150   2.068   5.863   5.514  0.4202 -0.2222 -0.4884
 6159SOL    HW120151   2.129   5.805   5.560  0.1114 -1.4346 -1.5744
 6159SOL    HW220152   2.005   5.889   5.581  1.2428 -0.1628  0.2864
 6160SOL     OW20153   6.408   4.262   8.870 -0.2917  0.0818  0.4110
 6160SOL    HW120154   6.383   4.342   8.917  1.2988  2.1719 -2.0358
 6160SOL    HW220155   6.501   4.251   8.888 -0.5267 -1.3735  0.8551
 6161SOL     OW20156   9.162   9.180   9.226 -0.2838 -0.0374 -0.0974
 6161SOL    HW120157   9.134   9.124   9.153  1.5900 -0.8850 -0.2295
 6161SOL    HW220158   9.119   9.263   9.210 -2.4237 -1.1424 -0.4166
 6162SOL     OW20159   0.157   8.421   2.691 -0.1631  0.1422  0.0861
 6162SOL    HW120160   0.115   8.455   2.770 -1.7978  0.7633 -1.0010
 6162SOL    HW220161   0.163   8.497   2.633  3.1219  0.2698  0.3724
 6163SOL     OW20162   7.824   7.850   8.643 -0.0224 -0.2270 -0.4208
 6163SOL    HW120163   7.863   7.799   8.715  1.0380  2.0640  0.7263
 6163SOL    HW220164   7.734   7.867   8.673  0.8200  1.8864  1.1032
 6164SOL     OW20165   7.101   6.149   4.027 -0.0210  0.5925  0.2022
 6164SOL    HW120166   7.157   6.152   3.949  0.5068 -0.9265  0.4906
 6164SOL    HW220167   7.121   6.230   4.073  2.1962  0.0047  0.4245
 6165SOL     OW20168   3.591   9.080   5.884 -0.7191 -0.8037 -0.3353
 6165SOL    HW120169   3.619   8.989   5.874  1.2785 -0.1866 -0.6287
 6165SOL    HW220170   3.500   9.073   5.915 -0.6274 -2.8770 -0.3769
 6166SOL     OW20171   0.591   9.468   2.159 -0.0271  0.0737  0.2747
 6166SOL    HW120172   0.535   9.415   2.102  0.0266 -0.3471  0.6121
 6166SOL    HW220173   0.633   9.405   2.217  0.9525  0.3664 -0.1012
 6167SOL     OW20174   2.535   4.139   2.535  0.1603  0.1694  0.1749
 6167SOL    HW120175   2.533   4.048   2.503  1.6750  0.7825 -1.8492
 6167SOL    HW220176   2.450   4.174   2.509  0.6964  0.1458 -1.8489
 6168SOL     OW20177   3.142   5.524   8.600  0.3611 -0.3264  0.3806
 6168SOL    HW120178   3.197   5.507   8.677  1.3096  1.0045  0.0259
 6168SOL    HW220179   3.056   5.544   8.636  0.7998  0.2908  1.1126
 6169SOL     OW20180   5.527   7.961   2.472  0.0530  0.0084  0.5390
 6169SOL    HW120181   5.438   7.985   2.500 -1.2155 -0.6814 -2.4859
 6169SOL    HW220182   5.558   8.038   2.424 -0.0400 -0.7244 -0.7215
 6170SOL     OW20183   3.795   4.868   8.268 -0.0379 -0.1092  0.1427
 6170SOL    HW120184   3.869   4.921   8.298  0.5752 -1.1199  0.4924
 6170SOL    HW220185   3.771   4.905   8.183  1.8834 -0.7144 -0.7166
 6171SOL     OW20186   7.119   0.896   4.163 -0.2451  0.0885  0.4824
 6171SOL    HW120187   7.136   0.803   4.176 -3.0458 -0.6716 -0.4131
 6171SOL    HW220188   7.192   0.927   4.111  0.3265 -1.8459  0.0358
 6172SOL     OW20189   5.918   6.886   3.925 -0.5369  0.0298  0.2287
 6172SOL    HW120190   6.013   6.887   3.940 -0.6979 -1.7270  1.6937
 6172SOL    HW220191   5.885   6.955   3.982 -0.1313  0.8924 -0.5544
 6173SOL     OW20192   3.652   8.806   3.309 -0.1357 -0.5474 -0.2279
 6173SOL    HW120193   3.663   8.822   3.215 -0.0226 -2.2522 -0.5359
 6173SOL    HW220194   3.565   8.767   3.317 -0.1989 -0.2935  0.4055
 6174SOL     OW20195   9.251   2.745   7.956  0.6948 -0.1743 -0.1235
 6174SOL    HW120196   9.344   2.723   7.950  0.6745 -0.6968  1.2750
 6174SOL    HW220197   9.239   2.775   8.046 -0.7602 -1.4581  0.1466
 6175SOL     OW20198   8.612   2.853   8.227  0.2369 -0.5121  0.0349
 6175SOL    HW120199   8.593   2.851   8.133 -0.2301  1.9300  0.0277
 6175SOL    HW220200   8.532   2.821   8.269  0.5844 -1.9825 -0.3741
 6176SOL     OW20201   4.714   5.415   3.963 -0.1470 -0.4689 -0.3032
 6176SOL    HW120202   4.628   5.424   4.005 -0.0103 -0.0376 -0.1081
 6176SOL    HW220203   4.741   5.325   3.982  0.8012  0.2798  2.2516
 6177SOL     OW20204   2.908   2.147   0.623  0.0801  0.2388  0.5931
 6177SOL    HW120205   2.973   2.217   0.622 -0.0766  0.3879  0.8625
 6177SOL    HW220206   2.917   2.108   0.709  0.0823  0.0036  0.4874
 6178SOL     OW20207   7.383   4.850   8.479  0.3096 -0.5153  0.1298
 6178SOL    HW120208   7.396   4.813   8.392  1.2789  1.5287 -0.6378
 6178SOL    HW220209   7.462   4.900   8.496 -0.4030  0.1513  1.6757
 6179SOL     OW20210   1.431   4.890   9.348 -0.4047  0.1479 -0.0872
 6179SOL    HW120211   1.388   4.921   9.427 -1.7359 -2.6358  0.3849
 6179SOL    HW220212   1.521   4.871   9.376 -0.2907  1.0509  0.2120
 6180SOL     OW20213   2.895   7.385   0.297  0.1575 -0.3005  0.5015
 6180SOL    HW120214   2.820   7.329   0.278  1.1738 -1.5900  0.1381
 6180SOL    HW220215   2.917   7.366   0.388  1.2723 -1.4840  0.0159
 6181SOL     OW20216   1.229   4.863   5.218  0.4535 -0.6659 -0.4058
 6181SOL    HW120217   1.267   4.777   5.201 -1.4988 -1.8134  0.6794
 6181SOL    HW220218   1.194   4.891   5.133  0.7026 -1.1421 -0.6656
 6182SOL     OW20219   3.288   7.335   3.066 -0.1010 -0.3008 -0.3128
 6182SOL    HW120220   3.310   7.330   2.973 -2.1134  0.0945 -0.8580
 6182SOL    HW220221   3.209   7.282   3.074 -0.5057  0.4666  0.9791
 6183SOL     OW20222   8.509   7.396   7.434  0.4448 -0.1045 -0.4124
 6183SOL    HW120223   8.419   7.367   7.415  0.2693 -0.6496  1.1510
 6183SOL    HW220224   8.541   7.334   7.499  1.4239  0.9900  0.1863
 6184SOL     OW20225   0.289   5.364   2.473  0.1355 -0.0134  0.2780
 6184SOL    HW120226   0.291   5.429   2.403 -0.7781 -1.8292 -1.5297
 6184SOL    HW220227   0.209   5.385   2.522  0.1736  0.5989  0.0918
 6185SOL     OW20228   0.544   1.170   3.229 -0.6359  0.3506 -0.2617
 6185SOL    HW120229   0.459   1.167   3.186 -1.4072  0.9641  1.1557
 6185SOL    HW220230   0.607   1.183   3.158 -1.9232  2.0476 -1.1612
 6186SOL     OW20231   0.372   8.717   6.678 -0.1360  0.4115 -0.0060
 6186SOL    HW120232   0.447   8.697   6.733  0.7611 -1.4817 -1.7617
 6186SOL    HW220233   0.390   8.804   6.643 -0.4093  1.3600  2.0618
 6187SOL     OW20234   6.054   2.007   6.382  0.5963  1.0045  0.0372
 6187SOL    HW120235   6.079   2.095   6.354 -1.9120  1.3778 -1.2491
 6187SOL    HW220236   6.092   1.949   6.316 -1.8574  1.5895 -2.0704
 6188SOL     OW20237   2.443   0.380   3.087  0.3782  0.1931 -0.1270
 6188SOL    HW120238   2.520   0.323   3.077  1.0904  0.9168  0.9903
 6188SOL    HW220239   2.472   0.464   3.051 -1.3411 -0.5517 -3.8003
 6189SOL     OW20240   5.814   7.072   4.140 -0.4393  0.0607  0.0205
 6189SOL    HW120241   5.806   7.078   4.235  1.4846 -1.5205  0.3495
 6189SOL    HW220242   5.745   7.012   4.113  0.0628 -0.8227  0.6635
 6190SOL     OW20243   3.459   5.363   3.269  0.2952  0.6325  0.2706
 6190SOL    HW120244   3.493   5.352   3.358 -0.8708  0.7659  0.7486
 6190SOL    HW220245   3.533   5.396   3.219  0.6404  1.8102  1.4884
 6191SOL     OW20246   2.513   4.081   7.655 -0.3735  0.1338  0.0324
 6191SOL    HW120247   2.597   4.100   7.696 -0.0124 -1.7983  0.3197
 6191SOL    HW220248   2.452   4.072   7.728 -0.1977 -1.1826  0.0442
 6192SOL     OW20249   3.670   3.980   6.678 -1.0178  0.0352 -0.2546
 6192SOL    HW120250   3.755   3.954   6.642 -0.8483 -0.4714  0.4787
 6192SOL    HW220251   3.690   4.057   6.732 -1.0488  0.0083 -0.2053
 6193SOL     OW20252   3.471   1.955   8.219  0.1135  0.5140  0.3076
 6193SOL    HW120253   3.485   1.880   8.161  0.8381 -1.4615  2.8832
 6193SOL    HW220254   3.512   2.028   8.173 -0.1432 -0.7382 -2.0617
 6194SOL     OW20255   5.808   6.462   1.250 -0.1592 -0.0314 -0.8023
 6194SOL    HW120256   5.753   6.418   1.314 -0.4644  1.0997 -0.2700
 6194SOL    HW220257   5.751   6.472   1.173 -1.1912  2.3307  0.2006
 6195SOL     OW20258   3.313   7.310   6.535 -0.2984 -0.8495  0.2110
 6195SOL    HW120259   3.321   7.370   6.609 -0.1226 -0.7897  0.1429
 6195SOL    HW220260   3.403   7.290   6.510 -0.3487 -0.3008 -0.4485
 6196SOL     OW20261   2.378   4.724   0.254  0.3858  0.2817 -0.2665
 6196SOL    HW120262   2.300   4.690   0.299  0.8199  0.1614  0.4188
 6196SOL    HW220263   2.450   4.674   0.292  0.7858  0.3299 -0.9659
 6197SOL     OW20264   6.881   6.864   2.852 -0.0464 -0.2893 -0.4055
 6197SOL    HW120265   6.794   6.850   2.815 -0.7182  1.1500  0.5219
 6197SOL    HW220266   6.905   6.953   2.824  1.3956 -0.8718 -1.1291
 6198SOL     OW20267   4.326   1.743   8.627  0.3711 -0.4957 -0.4012
 6198SOL    HW120268   4.397   1.680   8.612  0.5295 -0.1568 -1.1814
 6198SOL    HW220269   4.310   1.781   8.540  0.0671  0.3064 -0.0048
 6199SOL     OW20270   1.576   2.669   2.573 -0.3885  0.2136 -0.0707
 6199SOL    HW120271   1.617   2.701   2.653  0.4217  1.0179 -0.7820
 6199SOL    HW220272   1.519   2.741   2.545 -1.0925 -0.2789  0.0667
 6200SOL     OW20273   8.764   8.735   6.396 -0.3704 -0.0816  0.2521
 6200SOL    HW120274   8.803   8.817   6.368  0.4199 -0.1929  0.9938
 6200SOL    HW220275   8.678   8.733   6.353 -0.3274  1.0428  0.0958
 6201SOL     OW20276   5.597   9.247   4.662 -0.5459 -0.6933  0.3542
 6201SOL    HW120277   5.631   9.251   4.751 -0.2760 -1.6714  0.3072
 6201SOL    HW220278   5.502   9.260   4.672 -0.3970  0.2136  0.6683
 6202SOL     OW20279   9.370   2.017   9.613  0.5390  0.1433 -0.0199
 6202SOL    HW120280   9.309   2.017   9.539  3.7734 -0.6405 -2.8842
 6202SOL    HW220281   9.422   2.096   9.600  1.8128 -0.5320  0.8630
 6203SOL     OW20282   5.612   2.560   9.438  0.0046  0.8045  0.0786
 6203SOL    HW120283   5.540   2.552   9.501  0.3572 -0.8752  0.3201
 6203SOL    HW220284   5.677   2.613   9.484  0.4367 -0.7433  1.3636
 6204SOL     OW20285   1.067   6.554   5.027  0.2914 -0.2232  0.6853
 6204SOL    HW120286   1.070   6.625   5.090 -0.9734 -1.4222  2.1618
 6204SOL    HW220287   1.101   6.478   5.074  0.7446 -0.8362 -0.5679
 6205SOL     OW20288   4.893   5.282   8.222 -0.4345  0.1959 -0.6470
 6205SOL    HW120289   4.872   5.325   8.305 -0.8084 -1.0471 -0.0801
 6205SOL    HW220290   4.988   5.273   8.224 -0.5026 -0.4385 -0.0422
 6206SOL     OW20291   1.150   2.701   6.421  0.3519 -0.5382  0.1807
 6206SOL    HW120292   1.219   2.705   6.355 -0.2593  0.3150 -0.4242
 6206SOL    HW220293   1.103   2.620   6.402  0.7275 -0.7483  0.1348
 6207SOL     OW20294   6.117   8.669   4.209 -0.3377 -0.6736  0.1272
 6207SOL    HW120295   6.103   8.699   4.298  0.1564 -0.9760  0.3130
 6207SOL    HW220296   6.030   8.643   4.178 -0.3317 -1.7505  0.9605
 6208SOL     OW20297   8.798   5.198   8.630 -0.8157 -0.0173  0.3750
 6208SOL    HW120298   8.742   5.227   8.701 -0.4720  0.1874  0.5661
 6208SOL    HW220299   8.746   5.211   8.551 -1.2828 -0.4633  0.6069
 6209SOL     OW20300   8.503   0.289   3.347  0.1035  0.0716 -0.1874
 6209SOL    HW120301   8.533   0.376   3.373  0.8828  0.3330 -1.8298
 6209SOL    HW220302   8.579   0.248   3.307 -0.8309 -0.5237 -1.4427
 6210SOL     OW20303   5.026   0.843   7.900 -0.0039  0.3328  0.4469
 6210SOL    HW120304   5.002   0.882   7.816  0.2680 -2.6856 -1.1630
 6210SOL    HW220305   4.948   0.853   7.954 -3.2562 -4.0225 -2.7177
 6211SOL     OW20306   3.098   0.809   7.135 -0.1063  0.5212 -0.3412
 6211SOL    HW120307   3.141   0.865   7.199 -0.4949 -0.6220  0.9495
 6211SOL    HW220308   3.014   0.786   7.175 -0.0394 -0.8238 -0.9370
 6212SOL     OW20309   3.070   9.212   9.499  0.0230 -0.2996  0.1627
 6212SOL    HW120310   3.070   9.205   9.404 -2.5477 -0.1686  0.0860
 6212SOL    HW220311   3.055   9.122   9.530  0.2845 -0.2577  0.4125
 6213SOL     OW20312   7.360   0.469   4.900  0.6403 -0.0455 -0.5383
 6213SOL    HW120313   7.391   0.560   4.898  0.4425  0.0456 -2.8913
 6213SOL    HW220314   7.356   0.447   4.992  1.8146  1.9581  0.0582
 6214SOL     OW20315   5.645   9.029   9.322 -0.1944  0.2333  0.4416
 6214SOL    HW120316   5.600   9.108   9.291  2.3347  1.4479 -0.4153
 6214SOL    HW220317   5.723   9.062   9.367  0.7983 -1.7827  0.3021
 6215SOL     OW20318   8.134   8.644   3.127 -0.2029 -0.3709 -0.0633
 6215SOL    HW120319   8.046   8.682   3.126 -0.7058 -1.4292 -2.1898
 6215SOL    HW220320   8.127   8.566   3.071  1.6314 -1.5870  1.2975
 6216SOL     OW20321   0.234   6.755   0.377  0.2263 -0.2892 -0.1012
 6216SOL    HW120322   0.303   6.700   0.341  2.1023  1.1632  1.0782
 6216SOL    HW220323   0.161   6.744   0.316  1.1297 -2.6037 -0.8898
 6217SOL     OW20324   6.188   4.693   8.799  0.1683  0.0916  0.1621
 6217SOL    HW120325   6.196   4.703   8.894  1.6207  0.4499  0.0316
 6217SOL    HW220326   6.105   4.736   8.778 -1.4486 -2.1574  1.5217
 6218SOL     OW20327   6.062   8.512   1.008 -0.2793  0.5867 -0.5296
 6218SOL    HW120328   6.137   8.561   1.041  0.1920 -0.4795  0.0190
 6218SOL    HW220329   5.986   8.551   1.052  0.1612  0.3721  0.4469
 6219SOL     OW20330   2.101   5.655   3.053  0.3171 -0.3939  0.0926
 6219SOL    HW120331   2.136   5.684   3.137  1.4439 -2.2902  0.3426
 6219SOL    HW220332   2.016   5.615   3.075  0.6235 -0.9134  0.3571
 6220SOL     OW20333   0.910   9.031   3.061 -0.1643 -0.0967 -0.2335
 6220SOL    HW120334   0.911   9.098   2.992  0.4234  0.1783  0.0395
 6220SOL    HW220335   0.869   9.074   3.136 -0.4038 -0.2605 -0.2678
 6221SOL     OW20336   9.414   6.739   4.221 -0.8696  0.4729 -0.5261
 6221SOL    HW120337   9.450   6.760   4.135  0.0641 -0.5957 -0.4083
 6221SOL    HW220338   9.474   6.674   4.258 -2.3047 -0.5402  0.1317
 6222SOL     OW20339   7.284   0.033   8.497 -0.2706 -0.1513  0.2553
 6222SOL    HW120340   7.244   0.007   8.414  2.2790 -1.5404 -0.6360
 6222SOL    HW220341   7.340   0.107   8.474  3.1727 -2.6431 -0.1782
 6223SOL     OW20342   2.369   7.633   3.755 -0.4428 -0.2488 -0.3378
 6223SOL    HW120343   2.465   7.633   3.766 -0.5259 -0.1466  0.4968
 6223SOL    HW220344   2.336   7.649   3.844 -1.2080  3.2185 -1.1098
 6224SOL     OW20345   9.656   0.400   5.057 -0.5816  0.1182 -0.0335
 6224SOL    HW120346   9.721   0.456   5.014  1.1265 -0.1649  2.0187
 6224SOL    HW220347   9.664   0.315   5.013 -0.2130  0.3339 -0.3892
 6225SOL     OW20348   7.839   6.509   2.503 -0.0352 -0.5102  0.0952
 6225SOL    HW120349   7.799   6.552   2.578 -3.8527 -1.1366 -1.3888
 6225SOL    HW220350   7.868   6.424   2.537 -2.3575 -1.0924  0.8272
 6226SOL     OW20351   2.568   4.757   9.067  0.0934  0.4886 -0.1765
 6226SOL    HW120352   2.478   4.778   9.045 -1.0390 -2.0345  1.5933
 6226SOL    HW220353   2.605   4.838   9.101 -1.9650  1.2102  0.4252
 6227SOL     OW20354   6.250   8.129   8.829  0.2240 -0.4329 -0.3358
 6227SOL    HW120355   6.269   8.130   8.923 -0.4378 -1.4340 -0.1828
 6227SOL    HW220356   6.336   8.115   8.787  0.3373 -1.3752  0.1854
 6228SOL     OW20357   3.971   4.856   0.094  0.3804 -0.3989 -0.6394
 6228SOL    HW120358   3.891   4.849   0.042  0.4178  0.3294 -0.7986
 6228SOL    HW220359   4.026   4.917   0.045  0.6330 -0.1187 -0.0102
 6229SOL     OW20360   1.810   7.453   4.710  0.2081 -0.1680 -0.4367
 6229SOL    HW120361   1.904   7.460   4.725  0.1620 -0.0749 -0.1846
 6229SOL    HW220362   1.780   7.544   4.704  0.2664 -0.2037 -1.3732
 6230SOL     OW20363   4.523   6.941   5.189 -0.2113  0.9897 -0.1085
 6230SOL    HW120364   4.584   7.015   5.193 -0.0738  1.0348 -1.8781
 6230SOL    HW220365   4.579   6.864   5.181 -0.2948  0.4209  3.4734
 6231SOL     OW20366   2.438   1.728   9.542 -0.2080 -0.4393  0.4934
 6231SOL    HW120367   2.428   1.807   9.595 -0.5528 -0.4812  0.4920
 6231SOL    HW220368   2.400   1.751   9.457 -2.3130 -1.2829  1.1454
 6232SOL     OW20369   0.436   2.638   3.957  0.6805 -0.4047  0.2039
 6232SOL    HW120370   0.438   2.600   4.045  1.3425 -1.2434 -0.1750
 6232SOL    HW220371   0.411   2.566   3.900  1.3061 -0.1191 -0.4382
 6233SOL     OW20372   3.459   4.309   5.349  0.5730  0.7431 -0.2543
 6233SOL    HW120373   3.505   4.292   5.431 -0.9937 -1.3228  0.2864
 6233SOL    HW220374   3.508   4.261   5.282  0.8990  1.0404 -0.2286
 6234SOL     OW20375   1.590   2.707   1.864 -0.1406 -0.2495  0.1482
 6234SOL    HW120376   1.582   2.613   1.876  0.0061 -0.4816 -1.3516
 6234SOL    HW220377   1.502   2.741   1.879 -0.2126 -0.6335  0.6050
 6235SOL     OW20378   9.267   3.678   0.745 -0.1099  0.5272 -0.0299
 6235SOL    HW120379   9.257   3.627   0.826 -1.3290  0.8914  0.0668
 6235SOL    HW220380   9.250   3.615   0.675  0.2320  0.3773  0.0203
 6236SOL     OW20381   1.477   4.368   7.944 -0.2720 -0.1597 -0.2274
 6236SOL    HW120382   1.530   4.401   7.871 -2.2772 -1.4252 -2.4033
 6236SOL    HW220383   1.396   4.417   7.938 -0.2195  0.2209  1.6818
 6237SOL     OW20384   3.282   7.999   5.089 -0.3389  0.0100 -0.2976
 6237SOL    HW120385   3.364   8.048   5.085  0.3981 -1.1225  0.2298
 6237SOL    HW220386   3.222   8.047   5.032  0.2622  1.6257  0.3738
 6238SOL     OW20387   6.312   3.779   3.355  0.1049 -0.2619 -0.2209
 6238SOL    HW120388   6.311   3.694   3.311 -0.6894 -1.0577  1.2501
 6238SOL    HW220389   6.405   3.802   3.360  0.4698 -1.8109  0.7348
 6239SOL     OW20390   2.487   3.824   2.174  0.4593 -0.2860 -0.5964
 6239SOL    HW120391   2.501   3.788   2.087  0.3237  0.7189 -1.0468
 6239SOL    HW220392   2.546   3.899   2.179 -0.9032  0.8237 -0.5543
 6240SOL     OW20393   8.608   8.524   9.393  0.6398  0.1222  0.6645
 6240SOL    HW120394   8.606   8.456   9.325  1.3225  1.5811 -0.8932
 6240SOL    HW220395   8.535   8.581   9.371 -1.2087 -1.1172  3.1565
 6241SOL     OW20396   7.437   8.812   1.337 -0.1904  0.0044  0.7411
 6241SOL    HW120397   7.353   8.826   1.293  0.3480 -1.0029 -0.6797
 6241SOL    HW220398   7.444   8.717   1.346  1.4208 -0.0385 -0.5022
 6242SOL     OW20399   0.140   2.097   3.979  0.4937 -0.4584  0.6056
 6242SOL    HW120400   0.218   2.132   4.022 -0.0779 -0.6139  1.8368
 6242SOL    HW220401   0.156   2.003   3.973  0.8838 -0.3510 -0.2310
 6243SOL     OW20402   1.422   9.589   4.776  0.3421 -0.2843 -0.0368
 6243SOL    HW120403   1.508   9.623   4.753  1.1508 -1.9652  0.3511
 6243SOL    HW220404   1.439   9.501   4.811 -1.6044 -1.0919 -0.9336
 6244SOL     OW20405   5.961   3.244   7.649  0.8700 -0.3937 -0.1147
 6244SOL    HW120406   6.040   3.196   7.675 -0.1065 -1.5059  0.9688
 6244SOL    HW220407   5.891   3.203   7.700 -0.2863  1.1159 -0.4214
 6245SOL     OW20408   7.047   0.361   5.975 -0.0343  0.1925 -0.1683
 6245SOL    HW120409   7.126   0.307   5.979  0.6024  1.0557 -0.8177
 6245SOL    HW220410   7.039   0.385   5.882 -0.1991  1.3620  0.1339
 6246SOL     OW20411   1.675   8.038   1.910 -0.1118  0.2852  0.0009
 6246SOL    HW120412   1.662   8.017   2.002  0.0259  1.0281  0.1962
 6246SOL    HW220413   1.651   8.131   1.903 -0.6315  0.0997 -0.8117
 6247SOL     OW20414   4.342   2.229   6.006  0.0586 -0.0562  0.0094
 6247SOL    HW120415   4.338   2.321   6.033  1.4722 -0.1858  0.7616
 6247SOL    HW220416   4.407   2.227   5.936  1.1444 -0.6884  1.0101
 6248SOL     OW20417   1.109   7.897   3.071  0.0038  0.2762 -0.8431
 6248SOL    HW120418   1.185   7.918   3.016  0.9313 -2.2019 -0.6264
 6248SOL    HW220419   1.033   7.923   3.019  0.9034 -0.5776 -2.6789
 6249SOL     OW20420   5.067   2.213   3.367  0.0826  0.5298  0.0132
 6249SOL    HW120421   5.153   2.217   3.407 -0.0057  0.0345  0.2704
 6249SOL    HW220422   5.023   2.141   3.412 -0.1879  0.2678 -0.6452
 6250SOL     OW20423   4.505   0.196   5.440 -0.6337  0.0289 -0.2617
 6250SOL    HW120424   4.440   0.178   5.508  0.9423  0.9289  1.5817
 6250SOL    HW220425   4.588   0.203   5.487  0.7920 -0.7733 -2.4906
 6251SOL     OW20426   6.843   3.689   3.888  0.5498  0.2499  0.3466
 6251SOL    HW120427   6.810   3.647   3.809  1.0082 -0.2705  0.4274
 6251SOL    HW220428   6.765   3.725   3.930  0.2909  0.4342 -0.2812
 6252SOL     OW20429   1.162   7.240   0.965 -0.2104  0.1470 -0.6858
 6252SOL    HW120430   1.191   7.211   1.052  0.8795 -0.5740 -1.2730
 6252SOL    HW220431   1.214   7.318   0.946  2.4461 -1.8382 -2.2631
 6253SOL     OW20432   1.219   4.169   5.266  0.6469 -0.3509 -0.3129
 6253SOL    HW120433   1.148   4.113   5.299 -1.0088  0.4985 -2.1968
 6253SOL    HW220434   1.271   4.190   5.343 -1.6355 -0.3595  1.3236
 6254SOL     OW20435   1.993   6.868   7.857  0.1908 -0.1332 -0.7079
 6254SOL    HW120436   1.920   6.852   7.798 -0.2637 -0.6032 -0.0301
 6254SOL    HW220437   2.069   6.875   7.800 -0.6574  2.4995 -1.6364
 6255SOL     OW20438   6.336   4.981   6.836 -0.5295  0.3353  0.5302
 6255SOL    HW120439   6.276   4.972   6.910 -0.7326 -2.4439  0.1305
 6255SOL    HW220440   6.378   5.066   6.849 -2.9504  1.4239  1.9887
 6256SOL     OW20441   0.329   4.731   2.263 -0.0044 -0.0915  0.0906
 6256SOL    HW120442   0.285   4.783   2.196  0.8532 -0.3596 -0.6900
 6256SOL    HW220443   0.388   4.673   2.215 -0.2915 -1.1712  1.0025
 6257SOL     OW20444   1.473   2.502   7.030  0.3340  0.5440 -0.2791
 6257SOL    HW120445   1.504   2.575   6.976  0.6297  0.6038 -0.0289
 6257SOL    HW220446   1.386   2.483   6.996 -0.3319  1.9417  0.5589
 6258SOL     OW20447   5.483   3.522   8.342  0.2358  0.0705 -0.6703
 6258SOL    HW120448   5.540   3.503   8.416 -0.1738  0.8128 -0.1573
 6258SOL    HW220449   5.395   3.528   8.379  0.1165  1.1336 -1.0914
 6259SOL     OW20450   7.983   0.904   9.558  0.3453 -0.5868 -0.0799
 6259SOL    HW120451   8.029   0.986   9.572 -1.0778  0.2610 -0.1100
 6259SOL    HW220452   7.966   0.901   9.464 -1.1180 -0.0134  0.1275
 6260SOL     OW20453   6.826   5.209   1.349  0.3590  0.1461  0.7353
 6260SOL    HW120454   6.826   5.210   1.254  2.9628  0.6945  0.6926
 6260SOL    HW220455   6.755   5.268   1.374  0.3706  0.8643 -0.8543
 6261SOL     OW20456   7.190   6.619   3.771 -0.0764  0.0076 -0.5457
 6261SOL    HW120457   7.189   6.710   3.799 -1.7214 -0.6245  1.7972
 6261SOL    HW220458   7.166   6.569   3.850  2.7880 -2.6755 -1.1284
 6262SOL     OW20459   6.724   2.571   2.222 -0.0229 -0.3078  0.1909
 6262SOL    HW120460   6.783   2.635   2.181 -0.4845  0.1536  0.2403
 6262SOL    HW220461   6.744   2.577   2.316 -0.1174 -0.1852  0.2028
 6263SOL     OW20462   0.815   7.779   5.165  0.1196 -0.1549 -0.6798
 6263SOL    HW120463   0.732   7.738   5.190 -1.0485  1.0438 -2.4358
 6263SOL    HW220464   0.864   7.785   5.248 -1.6925 -0.5037  0.4747
 6264SOL     OW20465   5.325   5.827   7.662  0.2271  0.4181  0.3059
 6264SOL    HW120466   5.303   5.903   7.715 -1.7163  0.5311 -0.6038
 6264SOL    HW220467   5.300   5.851   7.573  1.6347 -0.4907 -0.3797
 6265SOL     OW20468   5.333   5.305   8.878  0.1382 -0.0594 -0.0499
 6265SOL    HW120469   5.275   5.370   8.840 -1.0982 -0.8336  0.4447
 6265SOL    HW220470   5.394   5.283   8.808  0.6067  1.6240 -0.2136
 6266SOL     OW20471   1.577   2.683   5.016 -0.6075  0.2493  0.9058
 6266SOL    HW120472   1.577   2.758   4.957 -1.7485  0.3731  1.0480
 6266SOL    HW220473   1.670   2.669   5.037 -0.0479 -0.5302 -1.8172
 6267SOL     OW20474   1.159   2.908   0.364 -0.4113 -0.1359 -0.0452
 6267SOL    HW120475   1.095   2.840   0.342 -0.8270  0.5451 -0.9906
 6267SOL    HW220476   1.116   2.962   0.430  0.2610 -1.2871  1.3922
 6268SOL     OW20477   3.669   5.491   4.206 -0.0053  0.7237  0.1682
 6268SOL    HW120478   3.751   5.540   4.218 -0.8756  2.0564  0.9716
 6268SOL    HW220479   3.602   5.559   4.203 -1.1093 -0.3615 -0.3004
 6269SOL     OW20480   7.016   3.032   4.447 -0.5339 -0.3620  0.1056
 6269SOL    HW120481   7.095   3.068   4.407 -0.3975 -0.8319 -0.0474
 6269SOL    HW220482   7.006   2.945   4.408 -0.2799 -0.9228  1.2425
 6270SOL     OW20483   9.516   3.536   8.137  0.5127 -0.2284  0.2621
 6270SOL    HW120484   9.583   3.505   8.198 -0.0686  0.0581  1.0636
 6270SOL    HW220485   9.451   3.580   8.192  0.9606  1.8543 -0.7599
 6271SOL     OW20486   3.402   1.011   0.529  0.0569 -0.1713 -0.1371
 6271SOL    HW120487   3.429   1.040   0.616 -0.2394 -2.3873  0.7571
 6271SOL    HW220488   3.478   1.028   0.473  1.0419 -0.6654  1.0112
 6272SOL     OW20489   0.983   4.713   3.326 -0.0834 -0.3320  0.1067
 6272SOL    HW120490   0.966   4.802   3.357 -0.8614 -0.9570  1.5943
 6272SOL    HW220491   1.003   4.723   3.233  2.7214  1.7021  0.7856
 6273SOL     OW20492   5.847   7.798   1.000  0.3297  0.4583  0.0586
 6273SOL    HW120493   5.875   7.755   1.080 -0.5373 -0.2303  0.0131
 6273SOL    HW220494   5.870   7.737   0.930 -0.0956  0.4608 -0.0900
 6274SOL     OW20495   9.602   8.465   6.889  0.0910 -0.6299  0.0704
 6274SOL    HW120496   9.542   8.539   6.900  1.5939  0.8369 -1.1560
 6274SOL    HW220497   9.624   8.439   6.979 -2.4895 -1.3869  0.5789
 6275SOL     OW20498   3.891   4.543   2.158 -0.3100  0.3276 -0.3461
 6275SOL    HW120499   3.796   4.535   2.143 -0.4939  1.0992  0.3431
 6275SOL    HW220500   3.927   4.462   2.122 -1.2334  0.0125 -0.6067
 6276SOL     OW20501   5.671   3.433   8.556  0.1609  0.1764 -0.3107
 6276SOL    HW120502   5.668   3.351   8.605  0.7508 -0.3833 -1.1823
 6276SOL    HW220503   5.765   3.453   8.548  0.0541  0.5291 -0.7398
 6277SOL     OW20504   2.343   0.808   8.840  0.7456  0.8877  0.3109
 6277SOL    HW120505   2.363   0.806   8.934  1.1159  2.2644  0.2750
 6277SOL    HW220506   2.249   0.790   8.835  0.3417  2.5827  1.0993
 6278SOL     OW20507   1.889   0.754   0.176  0.0186  0.3323  0.1868
 6278SOL    HW120508   1.796   0.757   0.156 -0.6225 -1.8681  2.3809
 6278SOL    HW220509   1.928   0.707   0.102 -0.8392 -0.0353 -0.0389
 6279SOL     OW20510   1.717   5.318   2.548 -0.4409 -0.0623 -0.2544
 6279SOL    HW120511   1.677   5.247   2.598  0.0870 -0.6311 -0.6222
 6279SOL    HW220512   1.650   5.344   2.485 -0.0032 -1.5423 -1.3938
 6280SOL     OW20513   7.508   0.483   6.194 -0.4080  0.9272  0.0950
 6280SOL    HW120514   7.525   0.513   6.104 -1.2568 -0.5152 -0.5726
 6280SOL    HW220515   7.433   0.536   6.222 -0.4334  1.0606 -0.2088
 6281SOL     OW20516   1.255   7.421   7.688 -0.3894  0.7801 -0.1861
 6281SOL    HW120517   1.306   7.501   7.705  1.5398 -0.6782  1.4540
 6281SOL    HW220518   1.321   7.352   7.677 -1.9956 -0.9551  0.4653
 6282SOL     OW20519   1.770   1.854   4.557  0.7174 -0.1433 -0.2573
 6282SOL    HW120520   1.833   1.868   4.628 -1.2677  0.1929  1.5287
 6282SOL    HW220521   1.712   1.930   4.560  0.0750 -0.5419 -1.7000
 6283SOL     OW20522   8.428   2.568   1.190 -0.4105 -0.1379  0.1245
 6283SOL    HW120523   8.372   2.604   1.122  1.3857  0.8329 -0.9323
 6283SOL    HW220524   8.383   2.588   1.272 -2.1377 -0.4488 -0.7247
 6284SOL     OW20525   7.213   6.052   6.516 -0.1142  0.2085  0.4385
 6284SOL    HW120526   7.140   6.007   6.558 -0.4089 -1.8581 -2.0315
 6284SOL    HW220527   7.174   6.099   6.443  0.9594 -1.1128 -1.0690
 6285SOL     OW20528   0.716   4.752   8.092 -0.1412  0.0847  0.5401
 6285SOL    HW120529   0.693   4.751   8.000 -1.1934  1.1275  0.7686
 6285SOL    HW220530   0.811   4.769   8.093  0.1695 -1.4547 -0.3484
 6286SOL     OW20531   3.523   2.022   3.276  0.3708  0.7097 -0.4940
 6286SOL    HW120532   3.508   1.938   3.233 -0.3320 -0.0986  1.2361
 6286SOL    HW220533   3.619   2.028   3.283  0.4946  0.7807 -1.9422
 6287SOL     OW20534   6.473   0.729   0.364  0.0764 -0.2322  0.3052
 6287SOL    HW120535   6.470   0.773   0.450  1.8649  0.1515  0.2160
 6287SOL    HW220536   6.566   0.721   0.345 -0.2773  0.6507 -2.0950
 6288SOL     OW20537   0.955   2.336   6.711  0.2071  0.3897 -0.2584
 6288SOL    HW120538   0.949   2.240   6.715  0.9906  0.3021 -0.9131
 6288SOL    HW220539   0.927   2.365   6.798 -0.1156 -0.4300 -0.0755
 6289SOL     OW20540   1.467   0.868   0.457  0.2710  0.5124 -0.2572
 6289SOL    HW120541   1.561   0.847   0.460  0.3169  0.7957  1.3340
 6289SOL    HW220542   1.428   0.807   0.520 -0.3077  1.7537  0.6295
 6290SOL     OW20543   2.665   6.807   4.634  0.0126 -0.3174  0.5074
 6290SOL    HW120544   2.634   6.898   4.636 -0.4576 -0.4865  0.8637
 6290SOL    HW220545   2.727   6.801   4.706  1.0553  0.0728 -0.3200
 6291SOL     OW20546   8.562   7.360   7.867  0.8292 -0.0494  0.3938
 6291SOL    HW120547   8.567   7.269   7.898  1.3137  0.4201  1.7571
 6291SOL    HW220548   8.625   7.364   7.795 -0.2169 -1.1312 -0.6258
 6292SOL     OW20549   6.674   7.149   0.975 -0.5715  0.1427  0.0124
 6292SOL    HW120550   6.604   7.215   0.974 -1.0447 -0.3482 -1.5157
 6292SOL    HW220551   6.734   7.177   0.905 -0.2516 -0.5013  0.0247
 6293SOL     OW20552   1.710   0.530   1.021 -0.0172  0.3552 -0.0168
 6293SOL    HW120553   1.697   0.458   0.959  3.6081 -1.9256  1.5535
 6293SOL    HW220554   1.660   0.504   1.098 -0.4366  0.6180 -0.1989
 6294SOL     OW20555   6.704   6.441   2.970 -0.2715  0.0327 -0.6686
 6294SOL    HW120556   6.771   6.468   3.033 -0.2924  1.0193 -1.0609
 6294SOL    HW220557   6.626   6.427   3.023  0.5428 -2.5753  0.0324
 6295SOL     OW20558   8.465   1.504   1.102  0.7707 -0.2004 -0.2700
 6295SOL    HW120559   8.419   1.549   1.030 -0.7279 -0.1547  0.6706
 6295SOL    HW220560   8.457   1.411   1.080 -2.4291 -0.4216  1.2791
 6296SOL     OW20561   1.718   7.248   1.964  0.3047  0.0387  0.2312
 6296SOL    HW120562   1.721   7.328   2.016 -0.9161  0.5815 -0.4890
 6296SOL    HW220563   1.715   7.177   2.028 -0.8496  0.6772  0.9115
 6297SOL     OW20564   1.997   3.419   7.918 -0.1471  0.1694  0.1177
 6297SOL    HW120565   1.998   3.464   8.003 -0.9531 -0.0830  0.2692
 6297SOL    HW220566   1.910   3.380   7.913  0.2468 -0.6574 -0.3928
 6298SOL     OW20567   7.936   7.912   1.932  0.0894  0.0002  0.0234
 6298SOL    HW120568   7.961   7.955   2.013  0.4940  2.8194 -1.4565
 6298SOL    HW220569   8.017   7.872   1.900  0.1899 -0.1380  0.4503
 6299SOL     OW20570   5.729   9.521   0.778  0.4701  0.3735 -0.4901
 6299SOL    HW120571   5.751   9.546   0.867 -2.0981  0.9766  0.0690
 6299SOL    HW220572   5.766   9.591   0.723  2.4094 -0.2085  0.0000
 6300SOL     OW20573   9.413   8.660   1.707  1.1499 -0.5260  0.0773
 6300SOL    HW120574   9.404   8.622   1.619 -0.6557  0.8080 -0.4008
 6300SOL    HW220575   9.346   8.615   1.759  2.5294 -1.6435  0.9331
 6301SOL     OW20576   8.635   6.192   0.418  0.1695 -0.0893  0.4196
 6301SOL    HW120577   8.584   6.118   0.384 -1.4867  1.4061 -0.4847
 6301SOL    HW220578   8.725   6.161   0.416 -0.3631 -1.7126 -0.9694
 6302SOL     OW20579   8.519   2.448   4.998  0.1409 -0.0356  0.0429
 6302SOL    HW120580   8.464   2.370   4.992  0.3715 -0.2256  0.4217
 6302SOL    HW220581   8.607   2.415   5.016  0.3960  0.2669 -0.5950
 6303SOL     OW20582   0.816   5.579   8.230  0.3972  0.1866  0.0447
 6303SOL    HW120583   0.818   5.553   8.138  0.2596 -2.4209  0.6952
 6303SOL    HW220584   0.768   5.661   8.231  0.4982  0.3304 -2.2101
 6304SOL     OW20585   1.794   4.864   5.766  0.4049 -0.0188 -0.1683
 6304SOL    HW120586   1.718   4.853   5.709 -0.0264 -0.7597  0.5390
 6304SOL    HW220587   1.862   4.808   5.727 -0.6798 -2.5889  1.4272
 6305SOL     OW20588   3.556   6.399   1.507 -0.4648 -0.2791  0.6532
 6305SOL    HW120589   3.549   6.313   1.466 -3.3624  0.9344 -1.7228
 6305SOL    HW220590   3.466   6.428   1.520  0.3951  2.5216  1.1125
 6306SOL     OW20591   7.042   2.537   4.624  0.1048 -0.1468  0.1695
 6306SOL    HW120592   7.118   2.482   4.640  1.7035  1.2354 -2.0151
 6306SOL    HW220593   7.039   2.546   4.529 -1.2333  1.9270  0.3374
 6307SOL     OW20594   5.514   7.532   4.410 -0.6239  0.6511  0.5119
 6307SOL    HW120595   5.599   7.505   4.376 -0.8278  1.8613 -1.0720
 6307SOL    HW220596   5.531   7.614   4.456 -0.9026  0.7587  0.4249
 6308SOL     OW20597   7.875   8.140   7.616  0.0529  0.2383  0.9749
 6308SOL    HW120598   7.961   8.159   7.580 -0.4519  1.0593  0.1564
 6308SOL    HW220599   7.892   8.112   7.706  1.1980 -0.1126  0.6640
 6309SOL     OW20600   5.923   1.616   6.788  0.0899 -0.1883  0.0724
 6309SOL    HW120601   5.944   1.696   6.740  1.1469 -1.2653 -1.3505
 6309SOL    HW220602   5.982   1.617   6.863  1.0600 -0.2492 -0.6610
 6310SOL     OW20603   8.010   8.528   8.983  0.3800 -0.3662  0.1276
 6310SOL    HW120604   8.089   8.566   8.944  0.3976  0.6202  1.0782
 6310SOL    HW220605   7.964   8.487   8.909  0.0270  2.0597 -1.1150
 6311SOL     OW20606   7.678   1.289   5.297  0.5621  0.3982  0.2124
 6311SOL    HW120607   7.755   1.232   5.296  0.6021  0.4188 -1.7762
 6311SOL    HW220608   7.609   1.236   5.258 -0.7793  0.0226  2.8417
 6312SOL     OW20609   0.491   6.199   3.799  0.6112  0.3579 -0.5637
 6312SOL    HW120610   0.569   6.208   3.855  0.8436  0.1283 -0.8492
 6312SOL    HW220611   0.504   6.264   3.730 -0.2042  1.4189  0.2443
 6313SOL     OW20612   2.775   3.647   1.108 -0.1759  0.0591 -0.3787
 6313SOL    HW120613   2.777   3.600   1.191 -2.7488  0.8250  0.1984
 6313SOL    HW220614   2.817   3.731   1.127 -1.0015  0.3400  0.2634
 6314SOL     OW20615   7.841   3.102   0.389  0.5831 -0.2376  0.1779
 6314SOL    HW120616   7.837   3.142   0.475  0.6031 -0.7088  0.4005
 6314SOL    HW220617   7.749   3.082   0.367  0.5918 -0.2585  0.1591
 6315SOL     OW20618   3.308   7.787   4.684  0.5033 -0.1840 -0.2329
 6315SOL    HW120619   3.293   7.872   4.644 -0.3996 -1.4472 -2.8146
 6315SOL    HW220620   3.356   7.737   4.618  1.3048 -1.5916  1.3354
 6316SOL     OW20621   9.171   6.707   0.466  0.7098 -0.3788  0.0283
 6316SOL    HW120622   9.101   6.681   0.406  2.0147  1.1893 -2.3600
 6316SOL    HW220623   9.133   6.777   0.519 -0.0191 -0.7225 -0.0368
 6317SOL     OW20624   6.836   3.979   7.181  0.0303 -0.1556 -0.3277
 6317SOL    HW120625   6.860   4.070   7.163 -0.7319 -0.3785 -2.6785
 6317SOL    HW220626   6.874   3.929   7.108 -1.8736 -1.3619 -0.5434
 6318SOL     OW20627   1.983   3.569   2.122 -0.1924 -0.2860 -0.4672
 6318SOL    HW120628   2.062   3.615   2.151 -0.1504 -0.2207 -0.6845
 6318SOL    HW220629   1.945   3.534   2.203 -0.8780  1.1515 -0.1367
 6319SOL     OW20630   2.735   4.061   9.236  0.2551  0.0055  0.1859
 6319SOL    HW120631   2.799   4.083   9.169 -0.6703 -0.0539 -0.7313
 6319SOL    HW220632   2.715   4.144   9.279  0.7034  0.0751  0.2607
 6320SOL     OW20633   8.922   6.644   0.337  0.0574  0.1515 -0.3426
 6320SOL    HW120634   8.929   6.555   0.301  1.4455  0.2793 -0.4100
 6320SOL    HW220635   8.890   6.697   0.265 -1.2164 -0.3483 -0.1845
 6321SOL     OW20636   1.127   1.061   1.777 -0.1575  0.1354 -0.3138
 6321SOL    HW120637   1.069   0.994   1.740  0.3728  0.2258 -1.3332
 6321SOL    HW220638   1.210   1.017   1.791 -0.0510  0.3724 -0.1913
 6322SOL     OW20639   7.696   0.635   5.353  1.1850 -0.2615  0.7001
 6322SOL    HW120640   7.725   0.573   5.420 -0.4949 -1.1396  0.6541
 6322SOL    HW220641   7.732   0.601   5.271  0.4739 -1.0685  0.7091
 6323SOL     OW20642   5.856   6.359   4.755 -0.4161 -0.0900 -0.3339
 6323SOL    HW120643   5.837   6.359   4.849 -1.0484 -2.6374 -0.3758
 6323SOL    HW220644   5.771   6.340   4.713 -0.8587  4.0938 -1.7457
 6324SOL     OW20645   0.977   2.969   2.751  0.3848  0.4152 -0.8911
 6324SOL    HW120646   0.944   2.961   2.661 -0.5182  1.6250 -0.7044
 6324SOL    HW220647   0.982   2.879   2.783 -1.2768  0.0676 -1.4863
 6325SOL     OW20648   9.048   7.888   1.288  0.5414 -0.0989  0.2006
 6325SOL    HW120649   9.048   7.806   1.337  1.2541  0.3603  1.0131
 6325SOL    HW220650   9.093   7.867   1.206 -0.0717 -0.7255  0.0237
 6326SOL     OW20651   6.554   7.876   8.858  0.8289 -0.1776 -0.2301
 6326SOL    HW120652   6.499   7.849   8.785  0.6544  0.4640 -0.3464
 6326SOL    HW220653   6.637   7.901   8.817  0.6878  0.3042 -0.2262
 6327SOL     OW20654   9.550   0.458   3.688  0.0384 -0.0351 -0.0441
 6327SOL    HW120655   9.463   0.494   3.697 -0.4030 -0.6394 -1.4888
 6327SOL    HW220656   9.558   0.394   3.759 -1.0409 -0.6030 -0.4106
 6328SOL     OW20657   1.828   9.296   5.506  0.2057 -0.6205 -0.3150
 6328SOL    HW120658   1.820   9.291   5.601 -0.2907  0.1912 -0.3075
 6328SOL    HW220659   1.804   9.386   5.484 -1.5209 -1.2913 -1.3923
 6329SOL     OW20660   7.123   5.373   0.000 -0.0810  0.1540  0.4033
 6329SOL    HW120661   7.044   5.384  -0.054 -0.4028  1.5101  1.0968
 6329SOL    HW220662   7.100   5.301   0.060  0.0615 -0.9613 -0.8310
 6330SOL     OW20663   6.463   8.269   8.178  0.6800 -0.1587 -0.2439
 6330SOL    HW120664   6.394   8.287   8.113  0.2438  1.5295  0.6370
 6330SOL    HW220665   6.494   8.356   8.204  2.1151 -0.8648  0.4821
 6331SOL     OW20666   6.636   1.376   3.041  0.1698  0.0522  0.0928
 6331SOL    HW120667   6.709   1.436   3.027 -0.3743  0.8439  0.6210
 6331SOL    HW220668   6.564   1.412   2.990 -0.5166  0.5388  1.3521
 6332SOL     OW20669   5.754   1.290   3.038 -0.0925 -0.1246 -0.6060
 6332SOL    HW120670   5.712   1.253   3.115  1.5833 -0.3731  0.2121
 6332SOL    HW220671   5.799   1.216   2.997  0.6523  0.3896 -0.7299
 6333SOL     OW20672   5.348   1.417   7.988  0.0369 -0.2170 -0.1887
 6333SOL    HW120673   5.395   1.456   8.062 -0.6284 -1.4136  0.9143
 6333SOL    HW220674   5.403   1.436   7.912  0.8784  0.8153  0.6473
 6334SOL     OW20675   6.920   3.163   3.845 -0.1038  0.6353 -0.2225
 6334SOL    HW120676   6.957   3.245   3.812  0.6596  0.2880 -0.2446
 6334SOL    HW220677   6.996   3.107   3.861 -0.3660  1.0332  2.8690
 6335SOL     OW20678   9.086   6.050   5.574  0.4061  0.5320  0.2392
 6335SOL    HW120679   9.090   5.993   5.650 -2.1818  0.3415  0.3150
 6335SOL    HW220680   9.163   6.026   5.522  0.3572 -1.7899  1.1179
 6336SOL     OW20681   7.642   5.652   1.691  0.2220  0.0442 -0.4210
 6336SOL    HW120682   7.629   5.603   1.773  0.9831 -0.5485 -0.6428
 6336SOL    HW220683   7.588   5.605   1.627 -0.1397  0.3312 -0.3303
 6337SOL     OW20684   7.128   2.384   6.685  0.3106  0.1073  0.0570
 6337SOL    HW120685   7.201   2.347   6.635  0.0516 -1.1323  0.5704
 6337SOL    HW220686   7.164   2.403   6.771  0.3804  0.8708 -0.1289
 6338SOL     OW20687   7.034   0.701   3.740 -0.8324 -0.0579 -0.1886
 6338SOL    HW120688   6.939   0.696   3.725 -0.7946 -0.4319 -0.3139
 6338SOL    HW220689   7.048   0.654   3.822 -0.6199 -0.9803 -0.7464
 6339SOL     OW20690   6.629   9.373   3.341  0.4257  0.1887  0.3694
 6339SOL    HW120691   6.642   9.356   3.434 -0.0326  2.2079  0.8551
 6339SOL    HW220692   6.582   9.456   3.338 -1.1134 -0.6572 -1.6331
 6340SOL     OW20693   5.206   0.047   9.001 -0.1926 -0.3773  0.0521
 6340SOL    HW120694   5.144   0.050   8.928 -0.0753  1.6070 -0.0349
 6340SOL    HW220695   5.291   0.035   8.961 -0.0639  1.2321 -0.2507
 6341SOL     OW20696   4.163   7.344   5.294  0.0693 -0.0963  0.5890
 6341SOL    HW120697   4.236   7.282   5.296 -0.1412 -0.4046 -0.6814
 6341SOL    HW220698   4.180   7.399   5.218 -1.0254 -0.1984  0.2506
 6342SOL     OW20699   6.298   6.946   2.057  0.1177  0.0397  0.4697
 6342SOL    HW120700   6.243   7.017   2.024 -0.8258 -1.3958 -1.2470
 6342SOL    HW220701   6.380   6.953   2.007 -0.8069 -1.3231 -1.3683
 6343SOL     OW20702   0.661   0.258   6.258 -0.2362  0.0420  0.0712
 6343SOL    HW120703   0.568   0.244   6.239 -0.5572  1.5457  0.3939
 6343SOL    HW220704   0.677   0.208   6.338 -1.0015  0.4542  0.4939
 6344SOL     OW20705   0.726   3.268   9.623 -0.3054 -0.1766  0.6923
 6344SOL    HW120706   0.796   3.286   9.560  0.4660 -0.1290  1.5382
 6344SOL    HW220707   0.647   3.303   9.582  0.1505 -0.2719 -0.3044
 6345SOL     OW20708   2.399   2.545   5.279 -0.4920 -0.3661  0.0287
 6345SOL    HW120709   2.471   2.507   5.329 -0.5448 -0.5010  0.0012
 6345SOL    HW220710   2.395   2.493   5.199 -0.9898 -0.7278  0.2836
 6346SOL     OW20711   6.003   0.570   4.780 -0.3874 -0.4769 -0.5151
 6346SOL    HW120712   5.943   0.612   4.719 -0.3253 -0.8289 -0.8192
 6346SOL    HW220713   6.054   0.642   4.817 -1.2731 -0.1189  0.0602
 6347SOL     OW20714   8.943   0.926   0.503 -0.2476 -0.0039 -0.1448
 6347SOL    HW120715   8.877   0.992   0.526  0.8651  0.0208  3.7134
 6347SOL    HW220716   8.907   0.844   0.536  1.0925 -0.1448  1.1238
 6348SOL     OW20717   2.692   3.395   8.533 -0.2172 -0.7429 -0.3102
 6348SOL    HW120718   2.660   3.368   8.619 -0.9801 -0.0745 -0.3617
 6348SOL    HW220719   2.681   3.318   8.477 -1.6032 -0.6072 -0.2726
 6349SOL     OW20720   9.198   2.251   6.097  0.0367  0.7038 -0.5185
 6349SOL    HW120721   9.192   2.283   6.007  2.1857 -0.4086 -1.1164
 6349SOL    HW220722   9.269   2.186   6.095 -0.6173 -0.1723  1.7458
 6350SOL     OW20723   2.693   5.915   3.066  0.0576 -0.3970 -0.0353
 6350SOL    HW120724   2.771   5.860   3.059 -1.1355 -2.3031  0.7924
 6350SOL    HW220725   2.719   5.999   3.029  3.0399 -0.3516  1.8926
 6351SOL     OW20726   3.282   2.223   5.321 -0.2631 -0.6239  0.4350
 6351SOL    HW120727   3.299   2.187   5.408  1.6773 -0.8964 -0.0197
 6351SOL    HW220728   3.348   2.184   5.265  0.2943  1.6474 -0.6128
 6352SOL     OW20729   6.960   1.578   3.443 -0.0943  0.7722 -0.0120
 6352SOL    HW120730   6.962   1.570   3.538 -0.5422 -0.6779 -0.1008
 6352SOL    HW220731   6.882   1.528   3.417  0.5948  0.2824 -1.1985
 6353SOL     OW20732   5.886   1.067   0.264 -0.3412  0.7646 -0.2978
 6353SOL    HW120733   5.844   1.098   0.344  0.2209  0.2761  0.2045
 6353SOL    HW220734   5.820   1.012   0.222  0.3350 -1.5602  1.4394
 6354SOL     OW20735   7.557   4.132   6.195 -0.0868 -0.0604  0.9186
 6354SOL    HW120736   7.587   4.103   6.109 -2.0811  2.0395 -0.6120
 6354SOL    HW220737   7.574   4.058   6.253  0.8681 -1.7432 -1.3579
 6355SOL     OW20738   3.072   7.220   4.369  0.3283 -0.1899 -0.1230
 6355SOL    HW120739   3.054   7.226   4.275  0.6672 -0.4365 -0.2053
 6355SOL    HW220740   2.986   7.225   4.410 -0.0297 -2.0486 -0.5448
 6356SOL     OW20741   2.098   6.045   5.034  0.8782  0.0093  0.3489
 6356SOL    HW120742   2.125   6.129   4.997  0.4124  0.0029 -0.0119
 6356SOL    HW220743   2.179   6.006   5.066  0.9579  1.0729  1.5235
 6357SOL     OW20744   5.417   5.081   0.727  0.4218 -0.0097 -0.4469
 6357SOL    HW120745   5.513   5.080   0.717  0.6314  1.5072  1.0476
 6357SOL    HW220746   5.389   5.157   0.675  0.5404  2.1396  2.4138
 6358SOL     OW20747   8.058   1.027   4.591  0.4503 -0.1032 -0.3660
 6358SOL    HW120748   8.044   1.089   4.520  2.1597  0.7174 -0.0281
 6358SOL    HW220749   8.061   0.941   4.547 -0.3010  0.1992 -1.0314
 6359SOL     OW20750   6.655   2.501   6.866  0.3493  0.5439 -0.3664
 6359SOL    HW120751   6.717   2.571   6.888  2.2881 -1.0819 -0.3759
 6359SOL    HW220752   6.683   2.471   6.780  0.4938 -1.2020  0.2542
 6360SOL     OW20753   7.355   1.891   8.654  0.5065 -0.1040  0.3213
 6360SOL    HW120754   7.400   1.884   8.739  2.4217 -0.4723 -0.6786
 6360SOL    HW220755   7.388   1.817   8.603  0.4137  0.8799 -1.2184
 6361SOL     OW20756   7.090   5.011   5.248  0.3542 -0.9390 -0.1351
 6361SOL    HW120757   7.098   4.949   5.176  2.0586  2.0583 -2.7723
 6361SOL    HW220758   7.060   5.093   5.207  0.4483  0.6612  2.7197
 6362SOL     OW20759   2.311   5.254   1.612 -0.4372  0.2016  0.5209
 6362SOL    HW120760   2.395   5.248   1.658 -0.6938  0.4365  1.0260
 6362SOL    HW220761   2.264   5.174   1.635 -0.4881  0.2264  0.5041
 6363SOL     OW20762   6.772   1.374   9.173  0.7847  0.4014  0.0878
 6363SOL    HW120763   6.731   1.456   9.201 -1.8695 -0.3197 -1.3985
 6363SOL    HW220764   6.762   1.315   9.247 -1.4291  0.0918 -0.4109
 6364SOL     OW20765   8.755   0.140   3.595  0.3019 -0.5509 -0.2805
 6364SOL    HW120766   8.808   0.126   3.516  1.6939 -1.1008  0.7049
 6364SOL    HW220767   8.818   0.172   3.660 -0.8626  0.1147  0.5541
 6365SOL     OW20768   4.135   9.663   1.947 -0.3250  0.7619 -0.1465
 6365SOL    HW120769   4.188   9.742   1.953  0.1294  0.7391 -2.6072
 6365SOL    HW220770   4.050   9.694   1.915 -0.1963  0.2926 -0.9664
 6366SOL     OW20771   1.199   7.831   3.584  0.2640  0.2040 -0.1838
 6366SOL    HW120772   1.175   7.875   3.502 -1.4776 -0.3676 -0.0038
 6366SOL    HW220773   1.120   7.786   3.611  1.4426 -1.3979  0.7092
 6367SOL     OW20774   6.667   7.334   0.197  0.1883  0.2158 -0.5334
 6367SOL    HW120775   6.586   7.312   0.244  1.1148 -1.8480  0.2263
 6367SOL    HW220776   6.720   7.382   0.261  1.4435 -2.5830  0.6648
 6368SOL     OW20777   7.768   0.135   2.122 -0.0270 -0.3061 -0.2418
 6368SOL    HW120778   7.830   0.206   2.136  1.8873 -1.4539 -2.3319
 6368SOL    HW220779   7.712   0.165   2.051 -0.4433 -0.1458  0.1525
 6369SOL     OW20780   1.194   9.553   8.920  0.0894 -0.3275  0.1206
 6369SOL    HW120781   1.217   9.533   9.010 -0.6012 -0.5806  0.2490
 6369SOL    HW220782   1.269   9.602   8.886 -0.2102  1.0113  1.2604
 6370SOL     OW20783   6.371   5.345   5.484 -0.2540  0.5322 -1.1344
 6370SOL    HW120784   6.465   5.345   5.499 -0.1691  0.5661 -1.6575
 6370SOL    HW220785   6.334   5.384   5.563  0.0714 -0.6990 -0.3424
 6371SOL     OW20786   1.285   3.849   5.473 -0.2270 -0.1937 -0.0940
 6371SOL    HW120787   1.318   3.835   5.384 -0.0219  2.7653 -0.5840
 6371SOL    HW220788   1.361   3.881   5.522 -0.3567 -1.6960  1.2107
 6372SOL     OW20789   7.185   8.588   8.072 -0.0327  0.3748  0.0272
 6372SOL    HW120790   7.101   8.566   8.112  0.0452 -0.8187 -0.4355
 6372SOL    HW220791   7.246   8.521   8.104  0.4185  0.4055 -0.7330
 6373SOL     OW20792   6.223   4.322   8.363 -0.5320 -0.0827 -0.1145
 6373SOL    HW120793   6.140   4.368   8.346 -0.3200 -0.0318 -1.0962
 6373SOL    HW220794   6.250   4.291   8.277  1.2440  1.2076 -0.0700
 6374SOL     OW20795   0.833   6.740   3.906 -0.0958  0.1060 -0.0896
 6374SOL    HW120796   0.807   6.803   3.974 -0.6750 -0.1889 -0.0290
 6374SOL    HW220797   0.925   6.758   3.891  0.0573  0.1396  0.8234
 6375SOL     OW20798   0.154   1.641   1.247 -0.1346  0.8778  0.5460
 6375SOL    HW120799   0.116   1.679   1.167 -0.9972 -0.0257  0.5009
 6375SOL    HW220800   0.115   1.690   1.318 -0.0386  1.1111  0.4380
 6376SOL     OW20801   6.415   8.272   2.288  0.0877 -0.3826 -0.1605
 6376SOL    HW120802   6.456   8.186   2.282 -2.2367 -1.4643 -1.7545
 6376SOL    HW220803   6.415   8.305   2.198  0.6826  1.2266  0.3781
 6377SOL     OW20804   2.283   6.590   6.845 -0.5541  0.1077 -0.2036
 6377SOL    HW120805   2.191   6.612   6.859  0.2055  3.2605  0.6667
 6377SOL    HW220806   2.302   6.522   6.910 -2.4760 -1.5113 -1.2200
 6378SOL     OW20807   6.884   8.432   0.291 -0.7571  0.0356 -0.0172
 6378SOL    HW120808   6.914   8.345   0.314  1.6548  0.2161 -2.0286
 6378SOL    HW220809   6.936   8.491   0.345 -0.6536  0.2576 -0.3520
 6379SOL     OW20810   3.047   2.360   6.995 -0.3077 -0.5114  0.4070
 6379SOL    HW120811   3.025   2.399   6.910  2.0294  0.2720  0.1031
 6379SOL    HW220812   3.022   2.269   6.986  0.0586 -0.4854 -1.2195
 6380SOL     OW20813   6.687   3.466   0.950 -0.2246 -0.5721 -0.2362
 6380SOL    HW120814   6.649   3.552   0.969  0.3522 -0.2928 -0.3003
 6380SOL    HW220815   6.713   3.472   0.858  1.3554 -0.2014  0.2047
 6381SOL     OW20816   7.364   7.251   8.369  0.8280 -0.6180 -0.0169
 6381SOL    HW120817   7.382   7.161   8.395 -0.4925 -0.6012  1.0750
 6381SOL    HW220818   7.420   7.304   8.426  0.4674 -0.7028  0.4214
 6382SOL     OW20819   7.590   3.236   7.270 -0.1987 -0.0353 -0.1059
 6382SOL    HW120820   7.517   3.209   7.214  0.5301  0.3263 -1.2533
 6382SOL    HW220821   7.644   3.292   7.214  1.8935 -1.6683  0.1405
 6383SOL     OW20822   1.975   3.676   2.425  0.1532  0.3851  0.4255
 6383SOL    HW120823   1.972   3.620   2.502  0.2804  0.2931  0.3635
 6383SOL    HW220824   2.065   3.708   2.421 -0.5154  2.6816  1.9377
 6384SOL     OW20825   8.858   5.039   7.700 -0.5289  0.1981 -0.5576
 6384SOL    HW120826   8.778   5.047   7.647 -1.0094 -0.3852  0.0623
 6384SOL    HW220827   8.922   5.093   7.654 -1.8698  2.5174  0.0612
 6385SOL     OW20828   3.050   5.476   1.335  0.1706  0.2434  0.1891
 6385SOL    HW120829   3.028   5.506   1.247 -0.2743 -2.0512 -0.5505
 6385SOL    HW220830   2.968   5.438   1.368  0.5130  0.4752  1.3306
 6386SOL     OW20831   5.979   8.423   3.022  0.1680  0.6009  0.1232
 6386SOL    HW120832   5.995   8.409   2.929  0.0874 -1.4725  0.3750
 6386SOL    HW220833   5.896   8.379   3.039  0.3685  0.6300  1.2532
 6387SOL     OW20834   7.046   3.483   3.988  0.2484  0.1157  0.1713
 6387SOL    HW120835   7.122   3.507   3.935  1.3487  1.4127  2.2131
 6387SOL    HW220836   6.983   3.553   3.972  0.3942  0.2577  0.2158
 6388SOL     OW20837   9.448   7.011   4.123 -0.0960 -0.3694 -0.2164
 6388SOL    HW120838   9.510   7.046   4.059 -2.1227  0.3889 -1.8502
 6388SOL    HW220839   9.503   6.985   4.197  2.1411  0.4131 -1.5040
 6389SOL     OW20840   6.644   4.866   0.109  0.0286  0.6480 -0.0832
 6389SOL    HW120841   6.630   4.798   0.043 -0.7444 -0.0086  0.7221
 6389SOL    HW220842   6.641   4.819   0.192 -1.1372  1.7396  0.5283
 6390SOL     OW20843   4.812   1.876   3.692  0.0457  0.2879  0.4139
 6390SOL    HW120844   4.824   1.924   3.774 -1.1215 -0.3278  0.9738
 6390SOL    HW220845   4.856   1.792   3.707 -1.2912 -0.3433  0.9242
 6391SOL     OW20846   7.655   4.176   4.207 -0.3492 -0.4018  0.3263
 6391SOL    HW120847   7.587   4.111   4.191 -1.0307  0.4233 -0.2547
 6391SOL    HW220848   7.640   4.206   4.297 -0.4957 -0.5218  0.3414
 6392SOL     OW20849   6.258   1.061   4.246 -0.2971  0.1615  0.3032
 6392SOL    HW120850   6.307   1.066   4.328 -0.1573  0.8920  0.1820
 6392SOL    HW220851   6.168   1.080   4.270 -0.4385 -0.6403  0.4404
 6393SOL     OW20852   2.737   0.972   7.965  0.5420 -0.1835 -0.2303
 6393SOL    HW120853   2.732   1.002   8.056 -0.0017 -0.0115 -0.3105
 6393SOL    HW220854   2.680   0.895   7.963 -1.0986  0.9973 -0.8737
 6394SOL     OW20855   2.163   8.183   8.079  0.6542  0.5083 -0.5361
 6394SOL    HW120856   2.223   8.110   8.060 -0.2365 -0.8334  1.4994
 6394SOL    HW220857   2.209   8.235   8.145  0.3527  0.5137 -0.3294
 6395SOL     OW20858   9.518   0.052   4.683  0.0385 -0.1701 -0.1586
 6395SOL    HW120859   9.551   0.092   4.603  2.4390 -1.3873  0.1033
 6395SOL    HW220860   9.588   0.067   4.747 -1.4504  0.0398  1.4805
 6396SOL     OW20861   1.709   0.009   4.395 -0.0086  0.9497 -0.9914
 6396SOL    HW120862   1.702   0.063   4.316 -0.8201  0.6655 -1.1275
 6396SOL    HW220863   1.783  -0.049   4.378 -0.7230  0.2768 -1.9446
 6397SOL     OW20864   8.985   4.855   4.671 -0.1423 -0.2174 -0.0370
 6397SOL    HW120865   9.047   4.880   4.739 -2.6498  0.4983  2.1676
 6397SOL    HW220866   8.989   4.759   4.669  0.7561 -0.1989  0.3277
 6398SOL     OW20867   8.218   6.895   9.086  0.0048  0.1888 -0.1514
 6398SOL    HW120868   8.261   6.858   9.163  0.9684 -1.3373 -1.3513
 6398SOL    HW220869   8.268   6.975   9.067  0.8022 -0.2943 -0.1307
 6399SOL     OW20870   1.826   5.490   3.965 -0.5222 -0.6616 -0.8699
 6399SOL    HW120871   1.844   5.457   3.877  2.1008 -0.3185 -0.5596
 6399SOL    HW220872   1.871   5.428   4.023  2.4804  1.9138 -0.1379
 6400SOL     OW20873   3.148   5.323   2.121  0.0120  0.0703  0.1670
 6400SOL    HW120874   3.109   5.404   2.087 -0.1778  0.9221  2.2670
 6400SOL    HW220875   3.224   5.353   2.172 -0.6657 -0.9568  1.8394
 6401SOL     OW20876   5.695   5.591   6.483  0.2920  0.3633 -0.4355
 6401SOL    HW120877   5.694   5.602   6.388 -0.4861  1.7978 -0.2978
 6401SOL    HW220878   5.677   5.679   6.517 -1.5700 -0.5033  0.9888
 6402SOL     OW20879   1.675   4.667   7.512  0.0982  0.4470  0.0293
 6402SOL    HW120880   1.744   4.733   7.514 -0.2450  0.7849  1.0460
 6402SOL    HW220881   1.617   4.695   7.442 -0.9513  2.1845  1.5121
 6403SOL     OW20882   2.182   2.000   8.756 -0.1511 -0.1328 -0.3716
 6403SOL    HW120883   2.181   1.904   8.755 -1.6395 -0.1398  0.1211
 6403SOL    HW220884   2.275   2.023   8.747  0.8314 -1.6752  3.5650
 6404SOL     OW20885   6.656   7.320   5.499  0.0333 -0.3702 -0.2896
 6404SOL    HW120886   6.718   7.284   5.563 -0.3390  0.5807  0.6319
 6404SOL    HW220887   6.662   7.415   5.510  0.5101 -0.1446 -2.2103
 6405SOL     OW20888   7.175   0.025   1.775 -0.0884  0.1408  0.3127
 6405SOL    HW120889   7.188  -0.042   1.707  0.8473  0.7795 -0.1497
 6405SOL    HW220890   7.245   0.088   1.761 -1.3851  1.6282  0.2842
 6406SOL     OW20891   0.604   0.568   2.345 -0.0796 -0.5174 -0.0012
 6406SOL    HW120892   0.578   0.484   2.307 -1.7981  1.0117 -2.4400
 6406SOL    HW220893   0.581   0.560   2.438 -1.1348 -2.3740 -0.3683
 6407SOL     OW20894   9.482   1.529   0.223  0.4616  0.1168 -0.7446
 6407SOL    HW120895   9.458   1.440   0.248  0.5397 -0.4774 -2.6362
 6407SOL    HW220896   9.411   1.558   0.166  0.0552  1.5759  0.4539
 6408SOL     OW20897   6.900   3.515   8.003  0.5393 -0.5519  0.1839
 6408SOL    HW120898   6.899   3.441   8.062  0.1330 -1.8141 -1.3354
 6408SOL    HW220899   6.817   3.510   7.956  0.4628  0.9246  0.1041
 6409SOL     OW20900   4.008   5.003   1.729 -0.6185  0.3742 -0.3998
 6409SOL    HW120901   3.996   5.097   1.712  0.2382  0.3902 -0.9567
 6409SOL    HW220902   3.969   4.960   1.653  1.4044  0.3870 -1.5240
 6410SOL     OW20903   5.672   1.808   5.828  0.7184  0.0004  0.2886
 6410SOL    HW120904   5.601   1.743   5.827 -0.2218  1.0074 -0.6130
 6410SOL    HW220905   5.744   1.764   5.874 -0.5201 -1.0156  1.3423
 6411SOL     OW20906   5.122   5.540   3.293 -0.0399  0.0492 -0.0902
 6411SOL    HW120907   5.064   5.548   3.369 -0.8331 -1.9464 -0.4246
 6411SOL    HW220908   5.066   5.562   3.219 -0.0368 -0.6545 -0.3067
 6412SOL     OW20909   6.103   0.151   9.342 -0.1167  0.8572  0.4839
 6412SOL    HW120910   6.099   0.056   9.337 -1.7961  0.8871  0.5937
 6412SOL    HW220911   6.172   0.169   9.406 -0.2956 -0.3117  1.0331
 6413SOL     OW20912   4.620   0.231   6.616  0.5540  0.1419 -0.1845
 6413SOL    HW120913   4.599   0.287   6.691 -2.2423 -0.9360 -0.0046
 6413SOL    HW220914   4.536   0.219   6.571  1.8423 -0.6000 -2.5539
 6414SOL     OW20915   7.683   4.826   3.406  0.4726 -0.1362  0.2739
 6414SOL    HW120916   7.594   4.861   3.400  0.7806  0.5024 -0.7189
 6414SOL    HW220917   7.709   4.809   3.316  1.2374 -0.6528  0.5782
 6415SOL     OW20918   6.102   8.210   2.147  0.3129  0.1306  0.3916
 6415SOL    HW120919   6.128   8.272   2.079 -0.7380  1.0340  0.7850
 6415SOL    HW220920   6.182   8.160   2.166  1.3120  1.6760  0.3951
 6416SOL     OW20921   6.653   9.675   1.041  0.0809  0.1957 -0.9106
 6416SOL    HW120922   6.695   9.761   1.041 -0.7414  0.6097 -1.6153
 6416SOL    HW220923   6.629   9.659   0.950 -1.1393 -0.0921 -0.5653
 6417SOL     OW20924   3.498   3.267   0.440  0.3123 -0.1111 -0.4073
 6417SOL    HW120925   3.585   3.270   0.400  0.4045 -0.1962 -0.2146
 6417SOL    HW220926   3.463   3.355   0.429  0.7075  0.1159  0.1524
 6418SOL     OW20927   6.065   0.560   5.763 -0.2452 -0.1996 -0.4659
 6418SOL    HW120928   6.064   0.475   5.720  1.5264 -0.6442  0.3075
 6418SOL    HW220929   6.010   0.550   5.840 -1.5160 -0.0769 -1.3175
 6419SOL     OW20930   2.772   9.382   0.348 -0.5260  0.6124  0.0392
 6419SOL    HW120931   2.740   9.455   0.402 -2.4987 -0.0497 -0.1496
 6419SOL    HW220932   2.765   9.306   0.406 -2.4424 -0.0668 -0.9933
 6420SOL     OW20933   9.572   9.501   6.587 -0.1111  0.5433  0.1735
 6420SOL    HW120934   9.513   9.558   6.636  2.3516  3.0796  0.5092
 6420SOL    HW220935   9.588   9.548   6.505  0.5717 -0.6191 -0.3905
 6421SOL     OW20936   0.578   3.460   6.093  0.3402  0.1924  0.2434
 6421SOL    HW120937   0.576   3.555   6.110  0.3773 -0.0199  1.5825
 6421SOL    HW220938   0.658   3.447   6.042  1.0315  0.7333  1.1484
 6422SOL     OW20939   8.241   1.549   8.194 -0.5131 -0.6582  0.0751
 6422SOL    HW120940   8.269   1.551   8.102 -2.6121 -0.9555 -0.6124
 6422SOL    HW220941   8.259   1.459   8.222 -0.9165 -0.8852 -0.3933
 6423SOL     OW20942   8.331   2.047   9.553 -0.5468 -0.2190 -0.1596
 6423SOL    HW120943   8.286   2.130   9.539  2.2854  1.9528  2.3126
 6423SOL    HW220944   8.271   1.995   9.607 -0.3677  2.5451  3.0278
 6424SOL     OW20945   1.645   3.341   5.504 -0.4780 -0.0269 -0.1849
 6424SOL    HW120946   1.563   3.379   5.537 -1.0402  0.8670 -2.3880
 6424SOL    HW220947   1.619   3.295   5.424  1.3579  2.0275 -2.1327
 6425SOL     OW20948   7.611   1.125   7.948  0.2440 -0.2649  0.0708
 6425SOL    HW120949   7.671   1.060   7.984 -0.7659 -0.5957  1.2139
 6425SOL    HW220950   7.603   1.103   7.856 -0.9143 -2.4695  0.6252
 6426SOL     OW20951   6.521   1.909   9.384 -0.7347  0.1811  0.0514
 6426SOL    HW120952   6.531   1.915   9.289 -0.2656 -0.7613  0.0293
 6426SOL    HW220953   6.427   1.892   9.397 -0.6000 -0.9305 -0.3276
 6427SOL     OW20954   3.750   2.393   3.573  0.3521  0.0115 -0.0865
 6427SOL    HW120955   3.718   2.424   3.658  0.1430 -2.4994  0.8540
 6427SOL    HW220956   3.673   2.353   3.532  0.8009 -0.1714 -0.7679
 6428SOL     OW20957   8.123   3.705   6.956  0.0248  0.4990 -0.5117
 6428SOL    HW120958   8.210   3.722   6.993  1.0120 -3.0554 -0.8826
 6428SOL    HW220959   8.139   3.651   6.879 -2.4944  0.7114 -1.2823
 6429SOL     OW20960   4.581   7.923   7.413 -0.5361 -0.3325 -0.4163
 6429SOL    HW120961   4.535   7.979   7.477  1.1781  0.3838  0.2466
 6429SOL    HW220962   4.622   7.855   7.466 -0.0297 -0.3933 -0.8798
 6430SOL     OW20963   0.241   8.245   2.317  0.4048 -0.1709 -0.4340
 6430SOL    HW120964   0.278   8.189   2.249 -0.8360 -2.9525  1.0306
 6430SOL    HW220965   0.295   8.228   2.395  1.2857  2.3317 -0.3847
 6431SOL     OW20966   5.371   4.316   0.421 -0.0547  0.3326  0.0019
 6431SOL    HW120967   5.411   4.344   0.338 -1.7678 -0.2274 -1.0695
 6431SOL    HW220968   5.342   4.398   0.462 -0.3574  0.5291 -0.5909
 6432SOL     OW20969   6.413   9.514   3.766 -0.2423  0.3323  0.6898
 6432SOL    HW120970   6.341   9.458   3.737  0.4491  0.5611 -1.6588
 6432SOL    HW220971   6.372   9.577   3.826 -2.2743  1.1268 -1.3723
 6433SOL     OW20972   3.516   2.174   7.357  0.0799  0.3414  0.4072
 6433SOL    HW120973   3.521   2.261   7.319  1.4892  0.2953  0.4089
 6433SOL    HW220974   3.450   2.181   7.426 -2.3292  0.5056 -1.7590
 6434SOL     OW20975   3.333   5.836   8.216  0.0617  0.1585 -0.3667
 6434SOL    HW120976   3.312   5.759   8.164  1.2666  0.4595 -1.3363
 6434SOL    HW220977   3.334   5.804   8.306  1.5665 -1.2213 -0.8338
 6435SOL     OW20978   1.440   4.838   3.641  0.4359  0.2829  0.2481
 6435SOL    HW120979   1.454   4.909   3.703  3.7869 -0.2151  0.2448
 6435SOL    HW220980   1.438   4.880   3.556 -0.5826  0.6108  0.4177
 6436SOL     OW20981   6.902   0.573   1.893 -0.2310  0.0886 -0.0694
 6436SOL    HW120982   6.992   0.567   1.860 -0.1256 -0.7854  0.3618
 6436SOL    HW220983   6.870   0.483   1.891  0.6298 -0.5840  4.5965
 6437SOL     OW20984   4.174   0.605   2.272  0.0565  0.1111  0.3147
 6437SOL    HW120985   4.178   0.686   2.223  0.0959  0.3358  0.6850
 6437SOL    HW220986   4.197   0.537   2.209 -1.5736  0.2008 -0.4289
 6438SOL     OW20987   5.659   2.745   7.135 -0.3190 -0.2244 -0.1028
 6438SOL    HW120988   5.730   2.787   7.184  0.2803 -1.8027  0.4587
 6438SOL    HW220989   5.688   2.746   7.044  0.0745 -0.1990  0.0224
 6439SOL     OW20990   5.967   9.574   3.413 -0.4675  0.7157  0.5098
 6439SOL    HW120991   5.971   9.619   3.497  1.9348  1.3044  0.1540
 6439SOL    HW220992   5.961   9.645   3.348  0.0816  0.3872  0.0916
 6440SOL     OW20993   3.683   5.440   3.130 -0.5304  0.3082 -0.4492
 6440SOL    HW120994   3.656   5.496   3.057  2.5788 -0.1000 -2.0537
 6440SOL    HW220995   3.678   5.351   3.095 -0.1366  0.0100  0.2396
 6441SOL     OW20996   6.557   4.138   9.155 -0.0414 -0.2124  0.3574
 6441SOL    HW120997   6.610   4.179   9.087  0.1961 -0.1944  0.5540
 6441SOL    HW220998   6.620   4.095   9.212 -0.2097  0.1821  0.8419
 6442SOL     OW20999   9.608   4.835   2.531  0.4189  0.4342  0.5906
 6442SOL    HW121000   9.594   4.924   2.564 -0.6755 -0.0697  1.5511
 6442SOL    HW221001   9.649   4.789   2.604  1.8343  0.3576 -0.2162
 6443SOL     OW21002   3.746   0.927   4.556  0.3488  0.1492 -0.9159
 6443SOL    HW121003   3.710   1.009   4.589  0.0243 -0.6397  0.7847
 6443SOL    HW221004   3.707   0.916   4.469 -0.3350  1.3094 -0.7673
 6444SOL     OW21005   0.293   9.118   8.808  0.9395  0.3254 -0.1094
 6444SOL    HW121006   0.356   9.126   8.736  0.4109 -0.0870 -0.6295
 6444SOL    HW221007   0.208   9.131   8.766  0.6432  0.3582  0.4972
 6445SOL     OW21008   7.110   2.646   1.037  0.0242  0.0152 -0.3159
 6445SOL    HW121009   7.036   2.607   0.990 -0.1624 -0.0057 -0.0095
 6445SOL    HW221010   7.089   2.634   1.130  0.4376 -0.0318 -0.2266
 6446SOL     OW21011   8.656   7.057   5.197  0.0593 -0.7097 -0.3671
 6446SOL    HW121012   8.744   7.094   5.197  0.4628 -1.6120  0.8674
 6446SOL    HW221013   8.617   7.088   5.115  1.5020 -0.2620 -0.9129
 6447SOL     OW21014   3.951   8.342   4.557 -0.6046  0.4758  0.6167
 6447SOL    HW121015   4.043   8.319   4.545 -0.8996 -0.4158  0.0684
 6447SOL    HW221016   3.945   8.432   4.523  0.1223  0.6601  0.9468
 6448SOL     OW21017   7.809   2.041   5.348  0.1648 -0.4496 -0.6154
 6448SOL    HW121018   7.724   2.004   5.323  0.6952 -2.2882  0.0926
 6448SOL    HW221019   7.826   2.110   5.284 -1.4313 -0.6780 -1.3174
 6449SOL     OW21020   4.592   5.691   1.172 -0.0003  0.3213 -0.5503
 6449SOL    HW121021   4.628   5.688   1.261 -3.1500  2.8789  1.0074
 6449SOL    HW221022   4.610   5.780   1.142 -1.3932  0.3571 -1.3329
 6450SOL     OW21023   7.662   3.456   2.793 -1.1816 -0.1366 -0.2653
 6450SOL    HW121024   7.627   3.501   2.870  0.1873  0.8700 -0.1946
 6450SOL    HW221025   7.741   3.505   2.771  0.5647 -2.6278 -0.0142
 6451SOL     OW21026   7.506   5.528   1.420  0.4120 -0.1653  0.7391
 6451SOL    HW121027   7.599   5.547   1.409  0.3920  0.2096  1.1548
 6451SOL    HW221028   7.503   5.466   1.493  0.2807  0.5681  1.3740
 6452SOL     OW21029   8.906   0.828   4.792 -0.5082 -0.2083 -0.1514
 6452SOL    HW121030   8.853   0.905   4.812 -0.9339 -0.5870  0.2085
 6452SOL    HW221031   8.856   0.781   4.726  0.2934  0.3946 -1.2137
 6453SOL     OW21032   0.899   7.139   1.562  0.2527 -0.0971 -0.6310
 6453SOL    HW121033   0.821   7.179   1.602  0.5376  0.0693 -0.2382
 6453SOL    HW221034   0.876   7.046   1.554  0.1171 -0.0988 -0.2501
 6454SOL     OW21035   8.982   5.711   3.559  0.3701  0.2498 -0.5204
 6454SOL    HW121036   8.928   5.731   3.482 -0.5760  1.2774  0.3775
 6454SOL    HW221037   8.979   5.616   3.566  0.1680  0.1677 -1.5313
 6455SOL     OW21038   6.302   7.205   6.986  0.1097  1.1134  0.3845
 6455SOL    HW121039   6.225   7.174   6.938  2.1610  1.3190 -3.5129
 6455SOL    HW221040   6.361   7.129   6.987  1.3714  2.0400 -0.4359
 6456SOL     OW21041   6.713   5.891   5.165  0.8043 -0.2530 -0.4400
 6456SOL    HW121042   6.804   5.908   5.142  0.4721  1.1661 -0.8024
 6456SOL    HW221043   6.685   5.824   5.103  1.6553 -0.8376 -0.2028
 6457SOL     OW21044   1.872   8.960   8.693 -0.3800 -0.2226 -0.3391
 6457SOL    HW121045   1.942   8.956   8.757 -1.2888  0.7943  0.7537
 6457SOL    HW221046   1.802   8.906   8.730 -1.0013  0.5624 -0.3444
 6458SOL     OW21047   5.410   7.479   3.841  0.4209  0.3948 -0.1940
 6458SOL    HW121048   5.398   7.396   3.797 -0.0006  0.9349 -1.1251
 6458SOL    HW221049   5.498   7.507   3.815  0.7331  0.0464  0.4653
 6459SOL     OW21050   8.165   2.135   4.877 -0.2164 -0.4752 -0.0571
 6459SOL    HW121051   8.194   2.172   4.961 -0.4334 -1.4719  0.4797
 6459SOL    HW221052   8.073   2.161   4.870 -0.1967 -0.3857  0.0101
 6460SOL     OW21053   8.232   4.888   4.223  0.4870  0.1348  0.4116
 6460SOL    HW121054   8.278   4.833   4.160  0.9843  0.4446  0.5019
 6460SOL    HW221055   8.147   4.905   4.182 -0.0797 -1.5189  0.8134
 6461SOL     OW21056   0.939   7.133   1.122 -0.0934  0.6486  0.3170
 6461SOL    HW121057   0.997   7.175   1.059  2.0170  1.1204  2.4146
 6461SOL    HW221058   0.935   7.194   1.196 -0.7881 -0.7313  1.4882
 6462SOL     OW21059   4.302   0.221   0.080 -0.0804 -0.1260 -0.1533
 6462SOL    HW121060   4.295   0.222   0.175  0.2995  0.5937 -0.1298
 6462SOL    HW221061   4.369   0.286   0.060  1.7895 -2.0888 -0.7447
 6463SOL     OW21062   3.279   4.634   4.396  0.4525 -0.1031  0.6544
 6463SOL    HW121063   3.344   4.587   4.344 -0.2141 -0.4627  0.1280
 6463SOL    HW221064   3.305   4.618   4.487  0.5104 -1.1070  0.4742
 6464SOL     OW21065   7.402   6.062   1.528  0.7100 -0.2697 -0.2244
 6464SOL    HW121066   7.394   6.019   1.613  1.2716 -0.6843 -0.3734
 6464SOL    HW221067   7.453   6.000   1.475 -2.3689 -1.5657 -1.9174
 6465SOL     OW21068   5.560   1.418   4.847 -0.4848  0.2386  0.3365
 6465SOL    HW121069   5.612   1.461   4.915  0.0806 -0.8979  0.6512
 6465SOL    HW221070   5.624   1.390   4.782 -0.5568 -1.8606  1.0918
 6466SOL     OW21071   5.330   0.700   1.358 -0.7792  0.6423  0.8762
 6466SOL    HW121072   5.414   0.719   1.316 -1.8633  2.2765 -0.6959
 6466SOL    HW221073   5.331   0.605   1.373  1.0735  0.5466  0.3105
 6467SOL     OW21074   7.032   8.084   0.880  0.2597 -0.1210 -0.2894
 6467SOL    HW121075   7.078   8.163   0.852  1.6003 -0.3216  1.2296
 6467SOL    HW221076   7.086   8.048   0.950 -0.3165 -2.4210 -0.9686
 6468SOL     OW21077   1.640   4.224   0.856  0.0576  0.0825 -0.1093
 6468SOL    HW121078   1.669   4.133   0.867  0.1260  0.1184  0.0033
 6468SOL    HW221079   1.546   4.221   0.875 -0.2290 -0.2242 -1.4599
 6469SOL     OW21080   0.996   2.000   9.196 -0.5585 -0.1887  0.2286
 6469SOL    HW121081   1.086   1.996   9.226 -0.8308 -2.3621  0.9254
 6469SOL    HW221082   0.944   2.007   9.277 -1.1546 -3.2202  0.2237
 6470SOL     OW21083   1.765   3.156   9.516  0.0842 -0.1232  1.3858
 6470SOL    HW121084   1.673   3.135   9.528  0.3063 -0.8885  1.8328
 6470SOL    HW221085   1.769   3.197   9.429 -0.3365 -2.3056  0.2766
 6471SOL     OW21086   0.778   0.256   0.908  0.0079 -0.5186  0.8598
 6471SOL    HW121087   0.839   0.263   0.981  0.6869  0.4522  0.2056
 6471SOL    HW221088   0.769   0.345   0.874  0.6207 -1.1202 -0.9794
 6472SOL     OW21089   0.418   3.153   9.596  0.0876 -0.0879  0.1639
 6472SOL    HW121090   0.376   3.145   9.511  2.3339 -0.0391 -1.0219
 6472SOL    HW221091   0.511   3.162   9.576  0.6742  0.0015  2.6322
 6473SOL     OW21092   3.245   7.518   2.009 -0.4075 -0.6507  0.2301
 6473SOL    HW121093   3.243   7.565   2.092  1.8426 -0.0041 -0.0180
 6473SOL    HW221094   3.182   7.566   1.954 -1.2140 -0.5113  1.2404
 6474SOL     OW21095   4.644   0.308   3.596  0.7026 -0.0924 -0.3101
 6474SOL    HW121096   4.712   0.264   3.647 -1.1733 -1.2145  1.3340
 6474SOL    HW221097   4.641   0.259   3.514  0.4180 -1.4416  0.4752
 6475SOL     OW21098   4.421   4.358   1.134  0.2362 -0.2322 -0.6083
 6475SOL    HW121099   4.431   4.312   1.217 -0.7823 -0.8436 -0.8096
 6475SOL    HW221100   4.510   4.378   1.106  0.5901  1.6627  1.5427
 6476SOL     OW21101   1.170   1.460   6.468  0.1404  0.2986 -0.2788
 6476SOL    HW121102   1.234   1.531   6.480  0.3673 -0.1240  1.1572
 6476SOL    HW221103   1.085   1.505   6.462  0.4331  0.7798 -0.9391
 6477SOL     OW21104   5.284   8.187   0.480  0.6502 -0.1615 -0.1297
 6477SOL    HW121105   5.194   8.156   0.494  0.3683  1.4981  2.3474
 6477SOL    HW221106   5.336   8.107   0.475 -0.3563 -1.2385  3.5475
 6478SOL     OW21107   5.072   6.859   4.755 -0.3454 -0.0162  0.0890
 6478SOL    HW121108   5.147   6.917   4.770  0.1200 -0.3133 -1.0367
 6478SOL    HW221109   5.014   6.876   4.829 -0.0601  1.6253 -0.0317
 6479SOL     OW21110   6.303   0.029   0.595 -0.1434  0.2521 -0.1179
 6479SOL    HW121111   6.310   0.049   0.502 -1.1039 -2.4659 -0.8615
 6479SOL    HW221112   6.246   0.098   0.630  0.6168  1.5873 -1.3912
 6480SOL     OW21113   2.954   4.741   1.034 -0.4435  0.0807  0.0018
 6480SOL    HW121114   2.934   4.762   1.126  0.6806  0.5303  0.1489
 6480SOL    HW221115   3.021   4.804   1.008 -0.2344 -0.4984 -0.9166
 6481SOL     OW21116   9.367   8.021   2.734  0.5429  0.0415  0.0782
 6481SOL    HW121117   9.454   8.028   2.774  0.8726 -1.4013 -0.3496
 6481SOL    HW221118   9.368   7.939   2.685 -2.1167 -1.8059  2.7317
 6482SOL     OW21119   5.127   6.755   0.031  0.3272 -0.1016 -0.1924
 6482SOL    HW121120   5.066   6.749   0.106 -2.1438 -1.3396 -2.1365
 6482SOL    HW221121   5.090   6.823  -0.024 -0.5490 -2.1602 -2.3353
 6483SOL     OW21122   7.582   4.109   3.021 -0.1894 -0.0229 -0.4971
 6483SOL    HW121123   7.599   4.052   2.946 -1.1876 -0.9570 -0.0510
 6483SOL    HW221124   7.486   4.115   3.025 -0.3374 -2.0090  2.1068
 6484SOL     OW21125   0.768   2.863   0.005  0.7051  0.1224 -0.7530
 6484SOL    HW121126   0.814   2.933   0.051  1.6717 -0.7802 -0.3114
 6484SOL    HW221127   0.696   2.907  -0.039  3.1781  1.9503 -3.2732
 6485SOL     OW21128   4.466   0.290   0.430  0.0190  0.9549  0.2855
 6485SOL    HW121129   4.373   0.280   0.408  0.5744 -2.5750 -0.9944
 6485SOL    HW221130   4.480   0.233   0.505  1.3203  0.7578 -0.0831
 6486SOL     OW21131   6.658   1.867   0.675  0.0404 -0.1555  0.0314
 6486SOL    HW121132   6.608   1.895   0.599  0.5510  3.2200  0.7951
 6486SOL    HW221133   6.740   1.915   0.670  0.8081 -1.1695  1.7981
 6487SOL     OW21134   8.422   4.673   0.843  0.1235  0.1247  0.1262
 6487SOL    HW121135   8.355   4.659   0.777 -0.4014  0.7311  0.5146
 6487SOL    HW221136   8.387   4.744   0.898  1.4183  0.9896 -0.1219
 6488SOL     OW21137   1.358   2.861   8.420  0.8808  0.5911 -0.0069
 6488SOL    HW121138   1.276   2.812   8.409  0.4737  1.6179 -1.7249
 6488SOL    HW221139   1.423   2.793   8.443 -0.0188 -0.5107 -0.6270
 6489SOL     OW21140   5.656   0.235   8.819 -0.1198  0.7158  0.2248
 6489SOL    HW121141   5.721   0.286   8.772  1.0889  0.9581  2.0584
 6489SOL    HW221142   5.706   0.165   8.863 -1.1381  0.5804  1.2306
 6490SOL     OW21143   6.316   2.280   5.266 -0.0483 -0.4859  0.1651
 6490SOL    HW121144   6.304   2.233   5.183 -0.1964  0.4689 -0.3728
 6490SOL    HW221145   6.298   2.214   5.333 -2.3096 -0.7041 -0.5734
 6491SOL     OW21146   9.449   2.497   3.877 -0.3317  0.0219  0.1902
 6491SOL    HW121147   9.513   2.450   3.931 -1.8079  0.6813  2.6622
 6491SOL    HW221148   9.415   2.431   3.817  1.0348 -0.8642  0.3481
 6492SOL     OW21149   8.758   3.761   2.750 -0.7861 -0.4789 -0.2282
 6492SOL    HW121150   8.784   3.677   2.714  1.9922 -0.0065  0.4916
 6492SOL    HW221151   8.701   3.739   2.824 -2.4940 -1.5600 -1.7816
 6493SOL     OW21152   1.510   1.186   4.206 -0.6162 -0.1626  0.2987
 6493SOL    HW121153   1.549   1.112   4.160 -0.1022  0.5425 -0.4330
 6493SOL    HW221154   1.462   1.234   4.138 -0.2030  0.6581  0.5638
 6494SOL     OW21155   2.323   2.114   4.800 -0.0948 -0.3411 -0.4914
 6494SOL    HW121156   2.380   2.125   4.877 -2.0277 -2.7290  1.4389
 6494SOL    HW221157   2.381   2.075   4.734  1.1508 -0.1075  0.4124
 6495SOL     OW21158   0.122   3.866   9.222 -0.4254 -0.0706  0.5145
 6495SOL    HW121159   0.117   3.878   9.127 -0.6684 -1.5467  0.3087
 6495SOL    HW221160   0.031   3.855   9.249 -0.3273 -0.0044  0.8689
 6496SOL     OW21161   3.347   9.009   7.931 -0.5153 -0.0385 -0.2586
 6496SOL    HW121162   3.367   9.081   7.990 -1.3247  1.2367 -1.4927
 6496SOL    HW221163   3.293   8.949   7.982  0.3705  0.0740  0.8503
 6497SOL     OW21164   6.741   1.065   3.795 -0.0746  0.3265 -0.2829
 6497SOL    HW121165   6.819   1.010   3.796  0.6770  1.3510  1.0702
 6497SOL    HW221166   6.669   1.006   3.818  0.4428 -0.4357 -0.5998
 6498SOL     OW21167   0.680   8.551   4.636  0.2057  0.3181 -0.2456
 6498SOL    HW121168   0.659   8.551   4.729 -1.2019 -1.5469 -0.4902
 6498SOL    HW221169   0.596   8.566   4.592 -0.0175 -2.8926 -1.2060
 6499SOL     OW21170   8.510   2.039   2.567 -0.9021 -0.0323 -0.1063
 6499SOL    HW121171   8.418   2.021   2.585 -0.9506  0.6583  0.3531
 6499SOL    HW221172   8.510   2.126   2.528 -0.3134  0.6563  1.3479
 6500SOL     OW21173   5.973   2.364   1.257  0.0633  0.0943 -0.0959
 6500SOL    HW121174   5.884   2.388   1.229  1.0161  0.1708 -3.4385
 6500SOL    HW221175   5.995   2.288   1.203  2.1330  0.2090  0.5254
 6501SOL     OW21176   1.891   8.631   4.120 -0.3370 -0.6040 -0.4764
 6501SOL    HW121177   1.822   8.573   4.152  0.3223 -1.2561 -0.2301
 6501SOL    HW221178   1.972   8.582   4.131  0.1917  0.2059 -0.6447
 6502SOL     OW21179   3.112   6.947   1.583 -0.6430 -0.6127  0.7151
 6502SOL    HW121180   3.203   6.978   1.590 -0.7363 -0.5968  2.0183
 6502SOL    HW221181   3.098   6.936   1.489  0.5009  0.0104  0.4533
 6503SOL     OW21182   5.420   7.707   3.262  0.3248 -0.4393  0.7962
 6503SOL    HW121183   5.345   7.662   3.223  0.6714  0.5437 -1.1203
 6503SOL    HW221184   5.494   7.685   3.204  0.3994  2.9729 -0.6470
 6504SOL     OW21185   1.864   3.782   3.477  0.6349  0.3689  0.4480
 6504SOL    HW121186   1.939   3.723   3.470 -0.7693 -1.3847 -0.5076
 6504SOL    HW221187   1.821   3.777   3.392 -1.7664 -0.3605  1.6264
 6505SOL     OW21188   4.290   9.475   3.286 -0.3387  0.2160  0.3036
 6505SOL    HW121189   4.348   9.405   3.314 -0.6162 -0.0465  0.2266
 6505SOL    HW221190   4.202   9.438   3.292 -0.3205 -0.7927 -3.4886
 6506SOL     OW21191   4.765   8.436   2.538 -0.3740 -0.0986 -0.3044
 6506SOL    HW121192   4.672   8.431   2.516 -0.3158 -1.7772 -0.2546
 6506SOL    HW221193   4.768   8.490   2.618 -1.7387 -3.0155  1.8999
 6507SOL     OW21194   4.648   8.172   6.300  0.3123  0.1663  0.1765
 6507SOL    HW121195   4.646   8.267   6.308  1.3130  0.1300  0.9875
 6507SOL    HW221196   4.740   8.149   6.304  0.1589 -0.7620 -1.1751
 6508SOL     OW21197   4.067   4.958   1.997 -0.3096  0.2472  0.2320
 6508SOL    HW121198   4.072   4.956   1.901 -0.5083  1.9987  0.1555
 6508SOL    HW221199   4.002   5.026   2.016 -0.8207 -0.5883  1.6182
 6509SOL     OW21200   0.434   3.733   6.553 -0.6041 -0.0301  0.2992
 6509SOL    HW121201   0.491   3.809   6.545 -0.8366  0.1779  0.6013
 6509SOL    HW221202   0.488   3.667   6.597 -0.5769  0.1421  0.5222
 6510SOL     OW21203   1.395   2.356   3.939  0.7162  0.0188 -0.2105
 6510SOL    HW121204   1.302   2.336   3.941  0.7789 -0.2353  0.7064
 6510SOL    HW221205   1.403   2.429   3.877 -0.4115  1.5637  1.3630
 6511SOL     OW21206   7.602   9.494   0.056  0.1480 -0.0213 -0.6029
 6511SOL    HW121207   7.688   9.515   0.092 -0.7656  1.4794  0.8139
 6511SOL    HW221208   7.576   9.414   0.101  0.8382 -0.5521 -1.1300
 6512SOL     OW21209   8.766   7.278   3.617 -0.3146  0.2053 -0.4647
 6512SOL    HW121210   8.701   7.306   3.682 -0.1619  1.4036 -0.8014
 6512SOL    HW221211   8.786   7.188   3.641 -1.8749 -0.1024 -0.1703
 6513SOL     OW21212   9.671   9.020   8.950 -0.0129  0.0713  0.0473
 6513SOL    HW121213   9.586   9.050   8.982 -0.7717  0.1184 -1.8582
 6513SOL    HW221214   9.679   9.059   8.863  1.5610 -0.6663 -0.1795
 6514SOL     OW21215   1.630   7.605   8.771 -0.4216 -0.2623  0.0434
 6514SOL    HW121216   1.545   7.561   8.762 -0.8860  0.7147 -0.4946
 6514SOL    HW221217   1.609   7.698   8.775  0.5553 -0.0601  1.0876
 6515SOL     OW21218   3.987   2.337   9.390 -0.3308  0.4003 -0.6010
 6515SOL    HW121219   4.046   2.263   9.371  0.2038  0.4786  0.6631
 6515SOL    HW221220   3.988   2.389   9.310 -0.4631 -0.7857 -1.4053
 6516SOL     OW21221   5.794   3.447   0.728  0.9044  0.3460 -0.1933
 6516SOL    HW121222   5.781   3.474   0.819 -1.6021  0.2673 -0.4488
 6516SOL    HW221223   5.848   3.368   0.733  0.0021 -0.2015  1.3223
 6517SOL     OW21224   6.649   5.825   1.910  0.9043 -0.0070  0.1353
 6517SOL    HW121225   6.644   5.828   1.814  0.5139  0.2467  0.1607
 6517SOL    HW221226   6.614   5.909   1.938  0.2100 -0.4246  0.5290
 6518SOL     OW21227   6.197   8.066   0.488 -0.0114 -0.2332  0.4979
 6518SOL    HW121228   6.192   8.071   0.393  2.7717  1.5466  0.3342
 6518SOL    HW221229   6.110   8.091   0.519  0.0550  2.9775 -1.5483
 6519SOL     OW21230   0.177   8.360   0.766  0.4221 -0.5334 -0.3094
 6519SOL    HW121231   0.185   8.351   0.671 -0.7737 -0.4800 -0.4322
 6519SOL    HW221232   0.216   8.445   0.785  1.2776 -0.8375 -0.6563
 6520SOL     OW21233   8.699   9.650   2.741  0.2327  0.1890  0.5513
 6520SOL    HW121234   8.719   9.557   2.744 -0.1583  0.0640  4.3500
 6520SOL    HW221235   8.670   9.666   2.652  1.5069 -3.0201 -0.5707
 6521SOL     OW21236   5.118   0.671   5.878  0.1665  0.1109  0.0671
 6521SOL    HW121237   5.097   0.593   5.826  1.2306 -1.8575  2.3741
 6521SOL    HW221238   5.207   0.655   5.910  0.4760  2.3948  0.4957
 6522SOL     OW21239   2.094   3.421   9.025 -0.4083 -0.1536  0.1988
 6522SOL    HW121240   2.179   3.455   9.054 -0.3575 -0.4863  0.4421
 6522SOL    HW221241   2.045   3.407   9.106  0.1898 -2.3126  0.2545
 6523SOL     OW21242   7.812   4.379   6.518  0.3524  0.8380 -0.1239
 6523SOL    HW121243   7.739   4.377   6.579 -1.3626 -1.1607 -2.0926
 6523SOL    HW221244   7.872   4.312   6.551 -0.9861 -0.8763 -1.0088
 6524SOL     OW21245   8.744   4.861   5.987 -0.0140  0.4219 -0.2553
 6524SOL    HW121246   8.689   4.866   6.066 -0.7124 -0.6509 -0.6588
 6524SOL    HW221247   8.831   4.889   6.017  0.0083 -1.0556  1.1828
 6525SOL     OW21248   4.847   8.630   8.739  0.6698 -0.2552  0.2391
 6525SOL    HW121249   4.886   8.711   8.709  0.5371 -0.1962  0.2223
 6525SOL    HW221250   4.914   8.588   8.792  2.0030 -1.7242 -2.3825
 6526SOL     OW21251   8.881   7.737   8.164 -0.4136  0.5401 -0.2829
 6526SOL    HW121252   8.931   7.775   8.237  0.0815  1.1966 -0.9375
 6526SOL    HW221253   8.909   7.646   8.161 -0.2615  0.5644  0.1932
 6527SOL     OW21254   2.625   8.868   9.361  0.2789  0.4970  0.0542
 6527SOL    HW121255   2.638   8.927   9.435  0.8274  0.9796 -0.4100
 6527SOL    HW221256   2.695   8.803   9.370  2.4917  2.4374 -1.8106
 6528SOL     OW21257   8.104   9.627   7.193  0.0700 -0.0563 -0.0172
 6528SOL    HW121258   8.196   9.646   7.214  0.5399 -0.2108 -1.7819
 6528SOL    HW221259   8.083   9.687   7.121 -0.5968 -1.3673 -0.9487
 6529SOL     OW21260   7.753   6.310   5.292 -0.1658 -0.0913 -0.0965
 6529SOL    HW121261   7.746   6.223   5.253 -1.7489 -0.0620  0.0488
 6529SOL    HW221262   7.824   6.352   5.244 -0.5752 -0.8339 -1.4138
 6530SOL     OW21263   5.767   9.625   2.204  0.5102  0.6024  0.0652
 6530SOL    HW121264   5.837   9.560   2.204  0.0501  0.1021  0.0146
 6530SOL    HW221265   5.697   9.585   2.254  0.0691  0.8930 -0.3140
 6531SOL     OW21266   5.649   4.853   7.136  0.2189 -0.4669 -0.1538
 6531SOL    HW121267   5.577   4.873   7.076  1.3847  0.7724 -1.2321
 6531SOL    HW221268   5.651   4.927   7.196  1.5980  0.4020 -1.1927
 6532SOL     OW21269   8.372   7.213   7.137 -0.3060 -0.2783 -0.2641
 6532SOL    HW121270   8.392   7.303   7.160 -0.4645 -0.6597  1.5323
 6532SOL    HW221271   8.282   7.199   7.169  0.4168 -1.6161  1.3795
 6533SOL     OW21272   8.849   7.158   8.595  0.0477 -0.1651 -0.3166
 6533SOL    HW121273   8.794   7.160   8.517  1.0897 -0.1347 -1.0677
 6533SOL    HW221274   8.910   7.231   8.584 -0.0636  0.1151  0.7443
 6534SOL     OW21275   8.770   6.640   2.028  0.4133  0.2010  0.1150
 6534SOL    HW121276   8.712   6.574   1.992 -0.7737  1.1865  0.1436
 6534SOL    HW221277   8.845   6.641   1.969 -0.7073  0.5736 -1.3655
 6535SOL     OW21278   6.168   1.813   5.853  0.2376 -0.1847 -0.2446
 6535SOL    HW121279   6.152   1.899   5.814  0.7484 -0.0610 -0.1880
 6535SOL    HW221280   6.182   1.832   5.946  0.1174 -0.3566 -0.1915
 6536SOL     OW21281   6.446   1.854   1.171  0.1331 -0.3723 -0.0593
 6536SOL    HW121282   6.514   1.920   1.158  1.4114 -1.8820 -1.4522
 6536SOL    HW221283   6.385   1.867   1.099  0.2731 -0.5651 -0.2145
 6537SOL     OW21284   4.618   7.159   6.806  0.6764 -0.1011  0.1381
 6537SOL    HW121285   4.608   7.079   6.857 -2.7652 -0.5311 -0.9492
 6537SOL    HW221286   4.660   7.131   6.724  0.8513 -0.4899  0.3613
 6538SOL     OW21287   2.266   8.775   8.254  0.1905  0.2108 -0.6738
 6538SOL    HW121288   2.203   8.709   8.283 -0.4292  1.2511  0.4820
 6538SOL    HW221289   2.277   8.759   8.160 -2.4960  0.5380 -1.1280
 6539SOL     OW21290   7.686   7.592   1.747 -0.3593 -0.1144 -0.0508
 6539SOL    HW121291   7.655   7.510   1.709  1.1300 -0.6445 -0.1804
 6539SOL    HW221292   7.619   7.616   1.811 -2.6307  0.4579 -2.4591
 6540SOL     OW21293   1.642   2.100   2.594 -0.0239  0.2204  0.5262
 6540SOL    HW121294   1.615   2.066   2.679  0.7849 -1.1734  0.2705
 6540SOL    HW221295   1.582   2.172   2.576 -0.8153 -0.0766  1.8403
 6541SOL     OW21296   0.080   6.328   2.737  0.6012  0.2940  0.3895
 6541SOL    HW121297   0.140   6.331   2.662  2.9290  0.9082  2.1770
 6541SOL    HW221298   0.008   6.387   2.712  1.4340  0.6755 -1.2589
 6542SOL     OW21299   1.602   2.519   4.215  0.4508 -0.7189  0.0089
 6542SOL    HW121300   1.597   2.425   4.197  1.4544 -0.6748 -0.6065
 6542SOL    HW221301   1.640   2.557   4.136 -0.0224  0.2231  0.2185
 6543SOL     OW21302   9.463   1.194   2.510  0.3255 -1.2057  0.7877
 6543SOL    HW121303   9.472   1.149   2.595  2.0545 -0.0648  1.2660
 6543SOL    HW221304   9.440   1.284   2.533 -2.8719 -1.6518 -0.1532
 6544SOL     OW21305   2.119   7.024   9.546 -0.4327 -0.4785 -0.0945
 6544SOL    HW121306   2.176   6.954   9.516 -2.3458 -1.0816 -2.6329
 6544SOL    HW221307   2.132   7.026   9.641  1.6940 -2.4014 -0.2658
 6545SOL     OW21308   7.409   8.003   8.415  0.5172 -0.7340 -0.0683
 6545SOL    HW121309   7.422   8.048   8.331  0.5744  0.6155  0.6258
 6545SOL    HW221310   7.359   7.925   8.393  1.9424 -1.2964 -1.5751
 6546SOL     OW21311   7.220   0.162   1.079 -0.1501 -0.1172  0.8696
 6546SOL    HW121312   7.279   0.125   1.013 -0.0635  1.1867  0.1819
 6546SOL    HW221313   7.267   0.151   1.162  1.5599  1.7311  0.2362
 6547SOL     OW21314   5.383   2.236   9.568  0.1490  0.0196 -0.0536
 6547SOL    HW121315   5.305   2.238   9.513 -0.8763 -1.8548  1.2390
 6547SOL    HW221316   5.401   2.329   9.585 -1.8469  0.5234 -0.3335
 6548SOL     OW21317   2.134   3.288   1.123 -0.9021 -0.3820  0.3388
 6548SOL    HW121318   2.192   3.227   1.077 -0.0873  0.7081 -0.1203
 6548SOL    HW221319   2.049   3.277   1.080 -0.3275  0.0884 -0.9634
 6549SOL     OW21320   3.354   2.382   4.338 -0.1446 -1.2198  0.1986
 6549SOL    HW121321   3.359   2.289   4.358  0.7423 -1.8202 -2.3655
 6549SOL    HW221322   3.432   2.420   4.377 -0.9803 -1.3181  2.0606
 6550SOL     OW21323   7.777   3.760   1.727  0.1522  0.6103 -0.4418
 6550SOL    HW121324   7.783   3.846   1.686  0.5265  0.7768 -0.0382
 6550SOL    HW221325   7.742   3.703   1.658  0.4083  0.9693 -0.8701
 6551SOL     OW21326   2.143   5.244   8.032  0.3394 -0.0391  0.6202
 6551SOL    HW121327   2.067   5.289   8.069 -0.3699 -0.6311 -0.1071
 6551SOL    HW221328   2.211   5.253   8.100 -0.6899 -0.4131  1.7228
 6552SOL     OW21329   1.816   4.713   6.284 -0.6386 -0.4594 -0.1537
 6552SOL    HW121330   1.738   4.745   6.328 -0.9485  0.7287 -1.4941
 6552SOL    HW221331   1.807   4.743   6.193  0.5009 -1.8566 -0.7769
 6553SOL     OW21332   2.424   8.367   4.819 -0.1943 -0.2424 -0.3099
 6553SOL    HW121333   2.484   8.360   4.893 -1.8511 -1.4838  0.9608
 6553SOL    HW221334   2.410   8.277   4.791 -0.6046  0.1223 -1.3250
 6554SOL     OW21335   8.378   0.282   0.621 -0.2853  0.6938 -0.1602
 6554SOL    HW121336   8.361   0.254   0.531 -0.2739 -0.1018  0.0752
 6554SOL    HW221337   8.314   0.352   0.637 -0.1217  1.0109 -0.8632
 6555SOL     OW21338   9.049   4.166   1.275  0.3070 -0.6342 -0.1278
 6555SOL    HW121339   8.971   4.174   1.329  0.0759 -0.1561 -0.5143
 6555SOL    HW221340   9.084   4.255   1.269 -0.2729 -0.4748 -1.6154
 6556SOL     OW21341   0.066   7.739   6.978  0.0488  0.0303  0.2258
 6556SOL    HW121342   0.050   7.826   6.941 -0.4896  0.1619  0.7639
 6556SOL    HW221343  -0.004   7.727   7.042 -0.5299 -1.2505 -0.6177
 6557SOL     OW21344   1.494   6.611   1.043  0.2198  0.0261 -0.1473
 6557SOL    HW121345   1.459   6.680   0.987  0.9569 -0.2995 -1.0178
 6557SOL    HW221346   1.580   6.642   1.070 -0.2778  0.3604  1.1619
 6558SOL     OW21347   0.559   8.429   5.350  0.1570 -0.2168 -0.3460
 6558SOL    HW121348   0.609   8.506   5.375  2.0245 -0.5642 -2.6283
 6558SOL    HW221349   0.582   8.362   5.414 -0.6397  0.7572  1.0063
 6559SOL     OW21350   1.437   6.705   6.161 -0.2838  0.1537 -0.0521
 6559SOL    HW121351   1.509   6.764   6.142  1.5601 -1.7991  0.5005
 6559SOL    HW221352   1.455   6.672   6.249 -0.7608 -1.8460 -0.6402
 6560SOL     OW21353   4.947   8.136   7.701  0.6117  0.2924  0.2520
 6560SOL    HW121354   5.004   8.144   7.625 -0.8356 -1.7408 -1.1407
 6560SOL    HW221355   4.990   8.070   7.756  1.1690  1.0712  0.7768
 6561SOL     OW21356   3.205   6.451   3.921  0.3167 -0.1005  0.2274
 6561SOL    HW121357   3.214   6.362   3.956 -1.5155 -0.3864  0.0773
 6561SOL    HW221358   3.240   6.446   3.833  0.1068 -0.7164  0.1735
 6562SOL     OW21359   1.542   0.618   3.325  0.0769  0.0995 -0.3735
 6562SOL    HW121360   1.486   0.675   3.377 -0.1711 -0.1529 -0.3580
 6562SOL    HW221361   1.628   0.658   3.329  0.1433 -0.1202  0.5496
 6563SOL     OW21362   4.830   8.368   7.488 -0.6208  0.0160 -0.0637
 6563SOL    HW121363   4.795   8.295   7.438  0.1239 -0.6712  0.4070
 6563SOL    HW221364   4.925   8.357   7.485 -0.5583 -0.2729  1.7954
 6564SOL     OW21365   6.849   7.417   7.351 -0.0767  0.2446  0.0345
 6564SOL    HW121366   6.757   7.393   7.359  0.2269 -2.5860 -2.8080
 6564SOL    HW221367   6.863   7.424   7.256  2.0474  3.5583  0.4335
 6565SOL     OW21368   6.655   7.639   0.561  0.3623 -0.9574 -0.2265
 6565SOL    HW121369   6.598   7.625   0.637  0.0640 -0.3288 -0.3280
 6565SOL    HW221370   6.732   7.684   0.597 -1.3904  2.8702 -0.7803
 6566SOL     OW21371   7.832   9.195   3.469 -0.0404 -0.0996  0.1867
 6566SOL    HW121372   7.863   9.283   3.450 -0.3505 -0.4027 -2.0112
 6566SOL    HW221373   7.904   9.138   3.444 -0.2091 -0.5380  0.6690
 6567SOL     OW21374   7.128   0.199   6.745 -0.0785 -0.3781  0.1532
 6567SOL    HW121375   7.050   0.221   6.796  0.9365 -1.2023  2.1996
 6567SOL    HW221376   7.106   0.118   6.699  0.2514 -1.9351  2.5794
 6568SOL     OW21377   7.439   3.207   5.454  0.1356  0.3795 -0.5142
 6568SOL    HW121378   7.527   3.173   5.441  0.1722  0.7253 -1.2109
 6568SOL    HW221379   7.406   3.160   5.531 -0.2444 -2.1093 -2.0793
 6569SOL     OW21380   3.987   8.961   5.388 -0.4825 -0.3763  0.0349
 6569SOL    HW121381   3.920   8.922   5.444 -0.3797 -0.2342  0.2570
 6569SOL    HW221382   3.977   8.916   5.304  2.7159 -4.3444  1.5045
 6570SOL     OW21383   6.292   7.791   6.578 -0.0444  0.1775 -0.1153
 6570SOL    HW121384   6.258   7.810   6.491  1.2137 -0.2863 -0.7302
 6570SOL    HW221385   6.383   7.819   6.575  0.5529 -1.5776  0.4391
 6571SOL     OW21386   8.473   2.639   5.524  0.3898 -0.3876  0.0882
 6571SOL    HW121387   8.495   2.718   5.573 -0.2540 -0.6379  0.8107
 6571SOL    HW221388   8.382   2.621   5.548 -1.1190  1.2106 -3.5429
 6572SOL     OW21389   2.290   8.831   0.880  0.4402 -0.0530  0.1258
 6572SOL    HW121390   2.326   8.745   0.904 -1.0133 -0.9867 -0.8723
 6572SOL    HW221391   2.228   8.812   0.810 -1.1899  1.6035  1.0430
 6573SOL     OW21392   2.606   4.701   0.766 -0.3445  0.1807 -0.2647
 6573SOL    HW121393   2.684   4.732   0.813 -0.8937 -0.2791  0.9857
 6573SOL    HW221394   2.550   4.778   0.758 -0.7377  0.0373  0.8744
 6574SOL     OW21395   0.769   8.525   7.977  0.0221 -0.2681  0.0886
 6574SOL    HW121396   0.700   8.492   7.919 -0.8458  2.3778 -0.5352
 6574SOL    HW221397   0.723   8.582   8.038  1.7086  2.4464 -1.0229
 6575SOL     OW21398   1.767   4.812   1.487  0.9424  0.1169  0.1108
 6575SOL    HW121399   1.681   4.771   1.502  1.5852 -1.4417 -0.2951
 6575SOL    HW221400   1.828   4.738   1.486  2.4257  1.2760  1.2705
 6576SOL     OW21401   1.260   0.192   6.861  0.5436  0.0427 -0.5711
 6576SOL    HW121402   1.327   0.155   6.918  2.3406 -1.0117 -3.1936
 6576SOL    HW221403   1.288   0.282   6.847 -0.2447  0.5020  0.6030
 6577SOL     OW21404   5.659   5.877   3.515  0.2646 -0.0845  0.0376
 6577SOL    HW121405   5.663   5.969   3.542  0.2259 -0.1808  0.3724
 6577SOL    HW221406   5.645   5.881   3.420 -2.6072  0.2942  0.3656
 6578SOL     OW21407   3.119   0.398   4.559  0.7318  0.5692 -0.2246
 6578SOL    HW121408   3.024   0.386   4.564  0.5495  1.1173 -1.7656
 6578SOL    HW221409   3.154   0.342   4.629 -0.6213 -1.0818 -0.7950
 6579SOL     OW21410   9.072   9.342   2.620 -0.0460  0.3181  0.0592
 6579SOL    HW121411   9.167   9.338   2.608 -0.2392 -0.3349 -1.5769
 6579SOL    HW221412   9.045   9.419   2.570 -0.6493 -1.1620 -2.0424
 6580SOL     OW21413   3.265   7.961   9.047  0.1799 -0.0499  0.2847
 6580SOL    HW121414   3.211   8.040   9.050 -0.9765 -0.8379  1.8549
 6580SOL    HW221415   3.261   7.933   8.956 -0.6619  0.8555  0.0260
 6581SOL     OW21416   6.950   1.152   5.897  0.1889 -0.3610 -0.4044
 6581SOL    HW121417   7.013   1.086   5.867  0.7017  0.0010 -0.1317
 6581SOL    HW221418   6.869   1.102   5.911  1.0980 -1.3850  1.8066
 6582SOL     OW21419   0.850   6.263   0.567  0.0781 -0.4322 -0.3679
 6582SOL    HW121420   0.888   6.270   0.655  1.2450  0.7258 -0.9390
 6582SOL    HW221421   0.923   6.232   0.513 -0.3774 -0.2360 -1.0958
 6583SOL     OW21422   2.744   8.049   3.903  0.1337 -0.0181 -0.3840
 6583SOL    HW121423   2.775   8.017   3.818  2.5937  1.4086 -0.1115
 6583SOL    HW221424   2.762   8.143   3.901  0.1405  0.0674  1.6603
 6584SOL     OW21425   2.219   3.520   5.914  0.1910  0.2537 -0.4323
 6584SOL    HW121426   2.187   3.433   5.889  1.6899 -0.4799  0.0292
 6584SOL    HW221427   2.288   3.539   5.849  2.3346 -0.5349  1.4623
 6585SOL     OW21428   6.598   9.350   7.879  0.3638 -0.4852  0.0517
 6585SOL    HW121429   6.683   9.332   7.838  0.9698  1.5028  0.3291
 6585SOL    HW221430   6.534   9.312   7.819  1.3737 -0.2856 -1.1971
 6586SOL     OW21431   7.007   8.917   5.125  0.5550 -0.6882  0.1311
 6586SOL    HW121432   7.092   8.884   5.154  0.8318  0.2207  0.3823
 6586SOL    HW221433   7.014   9.012   5.131  0.2964 -0.4758 -1.9994
 6587SOL     OW21434   3.158   5.637   6.142  0.3512  1.0075  0.2024
 6587SOL    HW121435   3.075   5.662   6.182  0.6726  1.4454  0.6040
 6587SOL    HW221436   3.154   5.542   6.135 -0.0370  0.9991  0.5419
 6588SOL     OW21437   5.267   4.358   6.054 -0.1631  0.3552 -0.1158
 6588SOL    HW121438   5.288   4.278   6.006  0.8936  1.2204 -1.1644
 6588SOL    HW221439   5.180   4.383   6.022 -0.0877  0.1428 -0.4895
 6589SOL     OW21440   6.983   2.629   5.842  0.9385 -0.5977  0.4634
 6589SOL    HW121441   7.005   2.683   5.918 -0.0426 -2.9988  2.5998
 6589SOL    HW221442   6.887   2.620   5.846  0.0465  2.9585 -3.8681
 6590SOL     OW21443   2.571   8.040   0.329  0.3986  0.6319 -0.1092
 6590SOL    HW121444   2.540   8.046   0.419  0.2414 -0.0947 -0.1102
 6590SOL    HW221445   2.546   8.123   0.289  0.9554  1.1817  0.6595
 6591SOL     OW21446   8.725   8.211   4.390  0.0291 -0.5258  0.0405
 6591SOL    HW121447   8.737   8.285   4.450 -0.2038 -0.4925  0.0493
 6591SOL    HW221448   8.731   8.250   4.303 -0.5176 -0.4231  0.0463
 6592SOL     OW21449   4.817   0.275   4.733  0.4734  0.0877  0.0470
 6592SOL    HW121450   4.740   0.223   4.757  0.5363  0.1024  0.2858
 6592SOL    HW221451   4.797   0.310   4.646 -1.0243  2.4445  1.2364
 6593SOL     OW21452   0.794   8.852   4.418 -0.3557  0.0710 -0.3842
 6593SOL    HW121453   0.701   8.834   4.427 -0.1353 -1.1394 -0.2666
 6593SOL    HW221454   0.833   8.766   4.403  1.0000  0.2455  1.7063
 6594SOL     OW21455   5.049   6.378   8.431 -0.1624  0.3216  0.6352
 6594SOL    HW121456   5.059   6.457   8.485  2.1444 -0.1637  1.0274
 6594SOL    HW221457   5.135   6.366   8.390 -0.7646 -1.4213 -0.2103
 6595SOL     OW21458   3.968   1.743   2.973 -0.5650 -0.0042  0.5212
 6595SOL    HW121459   3.894   1.683   2.973 -0.4058 -0.2036  0.6494
 6595SOL    HW221460   3.980   1.766   2.881  0.1322 -1.1262  0.3046
 6596SOL     OW21461   5.217   9.484   8.757  0.1597  0.2256 -0.4584
 6596SOL    HW121462   5.125   9.462   8.740  0.3504 -0.2869 -0.8433
 6596SOL    HW221463   5.220   9.579   8.749 -0.9806  0.6578  2.6980
 6597SOL     OW21464   4.325   6.729   8.713  0.0621  0.1540 -0.1991
 6597SOL    HW121465   4.257   6.682   8.762  1.9288  0.4746  3.0103
 6597SOL    HW221466   4.356   6.666   8.648 -2.0859 -0.5690 -0.6114
 6598SOL     OW21467   8.769   2.652   9.257  0.0070  0.2420 -0.1077
 6598SOL    HW121468   8.786   2.747   9.258 -0.5097  0.3523  1.9323
 6598SOL    HW221469   8.759   2.629   9.349 -1.4231 -1.5309 -0.6591
 6599SOL     OW21470   7.910   2.985   6.254  0.3240 -0.0149  0.0500
 6599SOL    HW121471   7.918   2.963   6.161  1.4880 -0.3405  0.2076
 6599SOL    HW221472   7.914   2.901   6.299 -2.1417 -0.0501  0.3452
 6600SOL     OW21473   1.416   7.391   1.618 -0.0241  0.4311 -0.0067
 6600SOL    HW121474   1.465   7.356   1.543 -0.4945  0.5272 -0.3652
 6600SOL    HW221475   1.389   7.314   1.668  0.8157  0.3947  0.4060
 6601SOL     OW21476   8.737   8.436   4.215  0.0907  0.6503 -0.1470
 6601SOL    HW121477   8.829   8.463   4.225  0.0642  0.9834 -0.7005
 6601SOL    HW221478   8.725   8.429   4.120 -0.7281  1.6025 -0.1349
 6602SOL     OW21479   7.795   4.670   4.682 -1.1169  0.2340  0.5085
 6602SOL    HW121480   7.720   4.725   4.658  0.0783  1.1953 -1.2818
 6602SOL    HW221481   7.814   4.693   4.773 -3.1039 -0.2186  1.0830
 6603SOL     OW21482   4.186   0.788   6.465 -0.1596  0.0463 -0.2357
 6603SOL    HW121483   4.225   0.864   6.423  0.3792  1.6487  2.9254
 6603SOL    HW221484   4.099   0.817   6.494 -0.1287 -0.6520  0.6281
 6604SOL     OW21485   1.925   6.836   0.521  0.1054  0.3103  0.0191
 6604SOL    HW121486   1.993   6.788   0.569  0.1154  2.9604  2.9297
 6604SOL    HW221487   1.856   6.771   0.507  0.7228 -1.0124  2.4358
 6605SOL     OW21488   5.639   6.292   0.919  0.0517  0.0032 -1.1016
 6605SOL    HW121489   5.691   6.226   0.872  3.8817  3.6511 -2.5858
 6605SOL    HW221490   5.581   6.329   0.853  0.8577  0.8016 -1.3867
 6606SOL     OW21491   1.070   0.726   5.301 -0.6718 -0.0088 -0.2888
 6606SOL    HW121492   1.064   0.674   5.381 -0.5097  0.5040  0.0645
 6606SOL    HW221493   0.991   0.780   5.303  0.0670  1.0980  0.3200
 6607SOL     OW21494   1.357   1.659   4.037  0.2339  0.4921 -0.1149
 6607SOL    HW121495   1.411   1.693   3.966  1.0537  0.7876  0.6312
 6607SOL    HW221496   1.402   1.687   4.117  0.2426 -1.2681  0.5408
 6608SOL     OW21497   0.857   1.163   3.201 -0.0202 -0.4167  0.2891
 6608SOL    HW121498   0.861   1.236   3.262 -2.7967 -1.4947  1.9030
 6608SOL    HW221499   0.812   1.198   3.124 -3.8706 -0.8792  2.0943
 6609SOL     OW21500   2.320   5.351   6.945  0.1561 -0.6929 -0.1336
 6609SOL    HW121501   2.397   5.392   6.906 -1.6592  1.8380 -1.3337
 6609SOL    HW221502   2.315   5.265   6.903  1.2935 -0.1782 -1.4185
 6610SOL     OW21503   9.472   1.681   1.983 -0.2719  0.2951 -0.0516
 6610SOL    HW121504   9.496   1.597   2.021 -0.5963  0.7338  1.1600
 6610SOL    HW221505   9.554   1.717   1.951 -0.2757 -0.9245 -1.5492
 6611SOL     OW21506   1.158   4.501   0.847 -0.7015  0.3113  0.2646
 6611SOL    HW121507   1.127   4.415   0.874 -1.3399  0.7635  1.0245
 6611SOL    HW221508   1.079   4.555   0.845 -0.0739  1.3496  1.6671
 6612SOL     OW21509   2.175   7.420   6.531 -0.5321  0.6013 -0.0177
 6612SOL    HW121510   2.141   7.504   6.499 -0.4649  0.2166 -1.1130
 6612SOL    HW221511   2.164   7.360   6.458 -2.1412 -0.7928  1.2816
 6613SOL     OW21512   8.368   5.868   1.985  0.0679 -0.9529 -0.1002
 6613SOL    HW121513   8.396   5.879   1.894  0.0205  1.2882  0.1065
 6613SOL    HW221514   8.275   5.848   1.979 -0.7936  2.5502 -0.5616
 6614SOL     OW21515   4.194   2.757   7.229 -0.1843  0.1561  0.0253
 6614SOL    HW121516   4.247   2.821   7.276 -0.0047  1.9283 -2.3593
 6614SOL    HW221517   4.258   2.703   7.183 -0.3440 -1.7625  1.9217
 6615SOL     OW21518   2.534   4.128   1.547 -0.0646 -0.1319 -0.2782
 6615SOL    HW121519   2.461   4.190   1.549 -0.2150 -0.2728  2.7194
 6615SOL    HW221520   2.493   4.043   1.558  0.5075 -0.2353  1.1978
 6616SOL     OW21521   1.068   2.578   1.388 -0.6261 -0.2739  0.2367
 6616SOL    HW121522   1.072   2.555   1.296  1.6825 -2.1164  0.6817
 6616SOL    HW221523   1.155   2.554   1.422 -1.9102 -1.1984  3.1993
 6617SOL     OW21524   3.581   3.559   7.139  0.0142 -0.4021 -0.2235
 6617SOL    HW121525   3.537   3.615   7.204 -0.6476  0.0639 -1.0546
 6617SOL    HW221526   3.633   3.499   7.192 -1.2689 -0.6819  0.8021
 6618SOL     OW21527   5.806   1.000   8.535  0.3099  0.5612 -0.2499
 6618SOL    HW121528   5.723   0.964   8.503  0.4446  1.3350 -1.5337
 6618SOL    HW221529   5.848   0.927   8.580 -0.1696 -0.4176 -1.3385
 6619SOL     OW21530   1.592   4.922   7.067  0.0402  0.2590 -0.2488
 6619SOL    HW121531   1.638   5.005   7.081  0.4471  0.0586 -0.3910
 6619SOL    HW221532   1.628   4.889   6.985  1.0170 -0.8054  0.5721
 6620SOL     OW21533   9.461   4.622   1.285 -0.1024  0.1065 -0.0746
 6620SOL    HW121534   9.479   4.646   1.376 -0.5338 -0.7332  0.2370
 6620SOL    HW221535   9.380   4.669   1.264  0.6579  1.2920 -0.4370
 6621SOL     OW21536   8.073   2.695   6.576 -0.2296  0.1258 -0.0606
 6621SOL    HW121537   8.093   2.613   6.621 -1.2816  0.0575  0.3077
 6621SOL    HW221538   8.137   2.758   6.610  0.1332 -0.3653  0.1746
 6622SOL     OW21539   2.371   7.975   0.835  0.3410  0.6608  0.3300
 6622SOL    HW121540   2.308   7.984   0.907  0.5824  0.4601  0.5700
 6622SOL    HW221541   2.324   8.007   0.758 -1.1990 -2.4045 -0.1382
 6623SOL     OW21542   7.466   0.743   8.512 -0.2799  0.1970  0.0751
 6623SOL    HW121543   7.380   0.712   8.541  0.6354 -1.2738  1.3466
 6623SOL    HW221544   7.450   0.832   8.480 -2.2409 -0.0082  0.3958
 6624SOL     OW21545   6.833   2.400   5.916  0.7500 -0.0866 -0.1295
 6624SOL    HW121546   6.740   2.401   5.938  0.6847 -0.1558 -0.3991
 6624SOL    HW221547   6.855   2.307   5.909  0.5449 -0.0643 -1.2808
 6625SOL     OW21548   1.068   5.982   9.289 -0.4740 -0.3589  0.3490
 6625SOL    HW121549   1.018   6.063   9.280 -1.3239 -0.6264  2.3310
 6625SOL    HW221550   1.027   5.922   9.227  0.4115  0.7578 -1.4444
 6626SOL     OW21551   6.514   0.807   7.135  0.1854 -0.8360  1.0367
 6626SOL    HW121552   6.430   0.799   7.090  0.7961 -1.7442  0.0004
 6626SOL    HW221553   6.579   0.784   7.069  1.6499  3.7492  0.5165
 6627SOL     OW21554   1.788   6.212   0.900  0.5061 -0.7257  0.3906
 6627SOL    HW121555   1.733   6.283   0.866 -1.5321 -1.7326  1.4462
 6627SOL    HW221556   1.777   6.141   0.836  0.4535 -0.9877  0.6903
 6628SOL     OW21557   6.104   3.240   2.222  0.0940  0.3864  0.0280
 6628SOL    HW121558   6.020   3.204   2.251  0.8310 -2.9226 -1.4455
 6628SOL    HW221559   6.087   3.275   2.135 -0.4558  3.1622  1.1683
 6629SOL     OW21560   8.029   9.230   7.226  0.2815 -0.3590  0.4389
 6629SOL    HW121561   7.990   9.316   7.239 -1.0638 -0.8833  0.0711
 6629SOL    HW221562   7.964   9.169   7.263  0.0303 -1.3552 -1.5469
 6630SOL     OW21563   2.630   1.904   7.242  0.4888  0.0122 -0.8265
 6630SOL    HW121564   2.590   1.837   7.297  0.3423  0.8279  0.0866
 6630SOL    HW221565   2.718   1.916   7.280  0.6278  0.1124 -1.1780
 6631SOL     OW21566   1.683   3.493   5.133 -0.3478  0.5532 -0.1771
 6631SOL    HW121567   1.640   3.418   5.091  2.0759 -0.9804 -0.0614
 6631SOL    HW221568   1.627   3.512   5.209 -1.6030 -0.3930 -0.8167
 6632SOL     OW21569   8.375   0.934   1.833  0.2937  0.2650  0.2228
 6632SOL    HW121570   8.437   0.861   1.831  0.1989  0.2068 -0.8405
 6632SOL    HW221571   8.360   0.949   1.927  0.8082 -0.6545  0.4693
 6633SOL     OW21572   1.922   2.849   8.643  0.4803  0.0562 -0.1098
 6633SOL    HW121573   1.996   2.789   8.641  0.2841 -0.1705 -0.7366
 6633SOL    HW221574   1.860   2.809   8.704 -0.1127 -0.9489 -1.3344
 6634SOL     OW21575   6.352   5.526   3.385 -0.1379 -0.2990 -0.4893
 6634SOL    HW121576   6.358   5.617   3.413  0.5915 -0.0339 -1.4641
 6634SOL    HW221577   6.370   5.528   3.291 -0.9384 -1.3552 -0.6798
 6635SOL     OW21578   9.241   3.790   5.983 -0.6491 -0.5526  0.1650
 6635SOL    HW121579   9.240   3.885   5.986  2.4179 -0.4599  2.0436
 6635SOL    HW221580   9.250   3.769   5.890 -1.9888  0.8945 -0.3448
 6636SOL     OW21581   1.685   8.958   0.688  0.2682 -0.3002  0.3080
 6636SOL    HW121582   1.678   9.023   0.757 -2.1793 -1.2221  1.0364
 6636SOL    HW221583   1.721   9.006   0.613 -1.2116  1.8270  0.8795
 6637SOL     OW21584   5.792   8.046   0.944  0.0270  0.0784  0.0165
 6637SOL    HW121585   5.788   7.955   0.975 -0.2176  0.2485  0.4998
 6637SOL    HW221586   5.876   8.079   0.977  1.8773 -1.0371 -3.2120
 6638SOL     OW21587   1.455   7.287   8.262 -0.2892  0.0173 -0.3740
 6638SOL    HW121588   1.539   7.279   8.308  0.1179  3.1527 -0.3550
 6638SOL    HW221589   1.401   7.217   8.299  1.4424 -0.4025  1.5824
 6639SOL     OW21590   6.657   2.754   3.312  0.1692  0.3439 -0.0265
 6639SOL    HW121591   6.680   2.735   3.403  0.4340  0.1345 -0.1357
 6639SOL    HW221592   6.562   2.757   3.312  0.0707 -1.5657 -0.1089
 6640SOL     OW21593   2.943   2.765   3.343  0.1947  0.1507 -0.1617
 6640SOL    HW121594   3.021   2.757   3.398 -0.9034  1.1376  1.6330
 6640SOL    HW221595   2.958   2.846   3.294  0.0754  0.6377  0.5901
 6641SOL     OW21596   5.503   0.458   0.978  0.5940  0.6089  0.0231
 6641SOL    HW121597   5.551   0.475   0.897 -1.2499  0.4239 -1.1540
 6641SOL    HW221598   5.427   0.515   0.974 -1.0634 -1.4775  0.2079
 6642SOL     OW21599   1.049   1.323   1.663  0.0562 -0.2938 -0.0808
 6642SOL    HW121600   0.958   1.352   1.667  0.0923 -0.1558 -0.2590
 6642SOL    HW221601   1.052   1.245   1.718  0.2320  0.7543  1.4557
 6643SOL     OW21602   7.050   3.503   6.445  0.0455 -0.3982 -0.5841
 6643SOL    HW121603   6.990   3.503   6.520 -0.1321  0.1362 -0.7160
 6643SOL    HW221604   7.122   3.559   6.472  0.1775 -0.5327 -0.6596
 6644SOL     OW21605   9.154   0.292   7.847 -0.1472  0.2999 -0.4761
 6644SOL    HW121606   9.114   0.223   7.900  0.6669  2.0902  2.7127
 6644SOL    HW221607   9.080   0.344   7.817 -0.5573  0.1962  0.3244
 6645SOL     OW21608   3.354   1.627   1.160 -0.0816 -0.3908  0.9617
 6645SOL    HW121609   3.350   1.599   1.251 -0.7811 -0.5169  0.8949
 6645SOL    HW221610   3.445   1.610   1.134  0.5591  1.0947  2.0813
 6646SOL     OW21611   8.571   5.063   5.262 -0.0932  0.7274 -0.4538
 6646SOL    HW121612   8.493   5.113   5.237 -0.0539  1.4375  0.7388
 6646SOL    HW221613   8.581   5.081   5.356  1.9381  1.2635 -0.7211
 6647SOL     OW21614   6.270   2.548   1.641  0.0965  0.3132 -0.4390
 6647SOL    HW121615   6.188   2.587   1.670  0.1714  0.6795 -0.7118
 6647SOL    HW221616   6.334   2.619   1.645  0.6841 -0.2510  0.9020
 6648SOL     OW21617   8.788   5.655   1.254  0.4310  0.8434  0.4965
 6648SOL    HW121618   8.755   5.598   1.324  1.2484 -0.7002 -0.3166
 6648SOL    HW221619   8.733   5.634   1.178  3.3115 -2.1374 -1.0260
 6649SOL     OW21620   6.500   4.421   3.418 -0.1640 -0.2391  0.0890
 6649SOL    HW121621   6.487   4.455   3.507 -2.2207  0.5855 -0.4759
 6649SOL    HW221622   6.592   4.439   3.399 -0.0627  0.9100  1.4979
 6650SOL     OW21623   3.428   1.267   8.477  0.0057 -0.6557  0.2379
 6650SOL    HW121624   3.390   1.254   8.390 -0.3388  0.7735  0.1529
 6650SOL    HW221625   3.416   1.360   8.495  1.6526 -0.5790  1.0847
 6651SOL     OW21626   0.356   2.360   2.945 -0.7134 -0.0141 -0.4716
 6651SOL    HW121627   0.293   2.411   2.995 -2.2175 -1.4853 -0.7707
 6651SOL    HW221628   0.390   2.420   2.880  0.0981  1.5001  1.2580
 6652SOL     OW21629   8.062   2.696   4.454  0.1002  0.1115 -0.0852
 6652SOL    HW121630   8.016   2.655   4.380  1.1655 -0.6755 -0.3234
 6652SOL    HW221631   7.992   2.723   4.513 -0.7911  0.8127 -1.3951
 6653SOL     OW21632   9.582   4.747   1.507  0.1873 -0.0743 -0.0765
 6653SOL    HW121633   9.539   4.829   1.534 -1.9037 -1.1148 -0.0339
 6653SOL    HW221634   9.656   4.775   1.454  0.0505  1.8647  0.6668
 6654SOL     OW21635   5.540   7.171   9.117  0.2551  0.5880  0.3039
 6654SOL    HW121636   5.459   7.208   9.152  0.8954  2.9753 -0.5088
 6654SOL    HW221637   5.603   7.176   9.189 -0.0502 -0.3874  0.6501
 6655SOL     OW21638   6.443   8.187   7.604 -1.2607  0.2534 -0.0808
 6655SOL    HW121639   6.474   8.100   7.579 -1.2944  0.4891 -1.0020
 6655SOL    HW221640   6.373   8.206   7.541 -0.5025  1.4051 -0.6026
 6656SOL     OW21641   3.998   0.793   1.979  0.1558 -0.1610  0.4854
 6656SOL    HW121642   3.967   0.710   1.943 -1.7473  0.8243 -0.3162
 6656SOL    HW221643   3.991   0.855   1.906  3.4859  0.3490  0.4499
 6657SOL     OW21644   2.546   7.287   4.177  0.3737 -0.7321  0.7681
 6657SOL    HW121645   2.497   7.206   4.161  0.3125 -0.8327  1.4327
 6657SOL    HW221646   2.483   7.345   4.220  0.2419 -0.1079 -0.2299
 6658SOL     OW21647   8.821   8.701   9.463 -0.1032 -0.8350 -0.2947
 6658SOL    HW121648   8.729   8.675   9.466  0.3265 -2.4813  0.0597
 6658SOL    HW221649   8.856   8.672   9.548  0.9339 -1.1034 -0.7997
 6659SOL     OW21650   4.561   1.408   0.961  0.6303  0.1619  0.1765
 6659SOL    HW121651   4.564   1.496   0.998  0.3186 -0.4329  1.6891
 6659SOL    HW221652   4.638   1.364   0.998 -0.1481 -0.7027  0.8017
 6660SOL     OW21653   3.265   7.365   4.983 -0.2630 -0.1680 -0.5098
 6660SOL    HW121654   3.227   7.290   5.028  0.1914 -0.0174  0.1527
 6660SOL    HW221655   3.200   7.435   4.994  0.3971  0.2540  1.1169
 6661SOL     OW21656   4.390   6.385   2.886 -0.1248 -0.3847  0.4512
 6661SOL    HW121657   4.334   6.307   2.891  0.3709 -0.8536 -0.9844
 6661SOL    HW221658   4.447   6.369   2.811 -0.7258  1.8273 -0.5586
 6662SOL     OW21659   7.473   6.195   4.111 -0.3782  0.2589  0.4435
 6662SOL    HW121660   7.481   6.260   4.041 -0.4788 -0.0547  0.1352
 6662SOL    HW221661   7.515   6.117   4.074 -1.7985 -0.3776  0.1361
 6663SOL     OW21662   2.270   5.629   0.382 -0.2439  0.1597  0.4831
 6663SOL    HW121663   2.179   5.616   0.407 -0.4125 -0.1145 -0.2468
 6663SOL    HW221664   2.294   5.548   0.336  0.7286 -0.2773  1.6824
 6664SOL     OW21665   1.292   2.131   1.655  0.4780  0.0512 -0.2002
 6664SOL    HW121666   1.312   2.221   1.680  0.4210  0.5756 -1.9564
 6664SOL    HW221667   1.244   2.096   1.730 -0.6473  1.8953  0.0069
 6665SOL     OW21668   6.720   2.709   1.540 -0.1270 -0.0705  0.5570
 6665SOL    HW121669   6.646   2.767   1.521  0.1420  0.5521  1.3796
 6665SOL    HW221670   6.684   2.621   1.528 -0.6848  0.2470 -0.1693
 6666SOL     OW21671   5.559   6.591   2.486 -0.2773 -0.0876  0.3117
 6666SOL    HW121672   5.536   6.501   2.509  0.0449 -0.3871 -0.5110
 6666SOL    HW221673   5.655   6.590   2.478 -0.3617 -0.0061 -1.0031
 6667SOL     OW21674   6.419   6.841   1.056  0.5066  0.5479 -0.2495
 6667SOL    HW121675   6.383   6.765   1.011 -0.3750 -0.1759  1.6055
 6667SOL    HW221676   6.499   6.862   1.007 -0.4446 -0.1012 -2.1902
 6668SOL     OW21677   5.276   8.681   6.297 -0.4366 -0.0173 -0.0392
 6668SOL    HW121678   5.246   8.768   6.272  0.2287  0.2191 -0.0302
 6668SOL    HW221679   5.371   8.691   6.310 -0.4154 -0.6584  0.3185
 6669SOL     OW21680   2.615   3.305   7.065 -0.5151 -0.5873  0.0630
 6669SOL    HW121681   2.529   3.282   7.102 -0.4983 -1.0023 -0.1438
 6669SOL    HW221682   2.607   3.397   7.041 -0.7273 -0.4797  0.5397
 6670SOL     OW21683   5.215   5.318   1.633  0.2858 -0.2623  0.0362
 6670SOL    HW121684   5.152   5.367   1.686 -0.2167 -1.0119  0.1442
 6670SOL    HW221685   5.299   5.330   1.677 -0.3361 -2.0664  1.8735
 6671SOL     OW21686   6.870   5.402   0.394  0.3228  0.0003 -0.3927
 6671SOL    HW121687   6.802   5.468   0.383  0.7898  0.6414  0.3815
 6671SOL    HW221688   6.825   5.329   0.438  0.0798  0.3318 -0.0761
 6672SOL     OW21689   6.731   5.270   4.500 -0.2629  0.3060 -0.3451
 6672SOL    HW121690   6.700   5.199   4.444  1.5704 -0.5713 -0.3154
 6672SOL    HW221691   6.735   5.231   4.588 -0.4720  0.8309 -0.0994
 6673SOL     OW21692   8.763   3.147   5.127 -0.0302  0.0546  0.0655
 6673SOL    HW121693   8.676   3.152   5.087  0.5015  0.4607 -1.0750
 6673SOL    HW221694   8.772   3.230   5.175 -1.3071 -1.0856  2.4870
 6674SOL     OW21695   0.082   1.007   3.999 -0.1749 -0.2811 -0.7858
 6674SOL    HW121696   0.016   0.941   4.017 -0.5035  0.1579 -0.3383
 6674SOL    HW221697   0.094   1.052   4.083 -1.4934  1.5987 -1.5347
 6675SOL     OW21698   8.852   4.819   8.789  0.3697 -0.2570 -0.3419
 6675SOL    HW121699   8.787   4.886   8.767 -0.6357 -1.0686  0.0385
 6675SOL    HW221700   8.809   4.766   8.857  1.0385 -1.4233 -0.7983
 6676SOL     OW21701   6.432   8.560   5.791  0.8610  0.2085 -0.2037
 6676SOL    HW121702   6.357   8.517   5.834  1.1539  0.1818  0.2855
 6676SOL    HW221703   6.392   8.625   5.733  0.4356 -0.2596 -0.4483
 6677SOL     OW21704   4.462   4.521   5.257  0.1846 -0.9445  0.2161
 6677SOL    HW121705   4.393   4.529   5.191  0.8924  1.2744 -0.3169
 6677SOL    HW221706   4.529   4.583   5.230  1.0241 -0.8071  2.4137
 6678SOL     OW21707   6.079   7.735   8.401  0.2985  0.4973 -0.0200
 6678SOL    HW121708   5.999   7.705   8.444 -0.5108  1.4862 -0.7683
 6678SOL    HW221709   6.142   7.745   8.472  0.0294 -1.1064  0.4774
 6679SOL     OW21710   1.964   3.608   3.827  0.0879 -0.1427 -0.5315
 6679SOL    HW121711   1.937   3.698   3.845 -0.8779 -0.4245 -0.5418
 6679SOL    HW221712   2.057   3.606   3.850 -0.1860  0.5187  0.6945
 6680SOL     OW21713   5.218   8.363   7.739  0.0767 -0.3132 -0.2779
 6680SOL    HW121714   5.210   8.368   7.834  0.0372 -0.7836 -0.2554
 6680SOL    HW221715   5.137   8.403   7.706 -0.3608 -1.0311 -0.1003
 6681SOL     OW21716   2.379   7.038   6.142 -0.6176 -0.5314 -0.7799
 6681SOL    HW121717   2.400   6.996   6.058  0.6230 -3.1678  0.7358
 6681SOL    HW221718   2.321   6.976   6.186 -0.9504  0.6281  0.4780
 6682SOL     OW21719   4.377   5.323   0.710 -0.2772  0.2715 -0.2960
 6682SOL    HW121720   4.432   5.275   0.771  0.7104  1.5045 -0.1761
 6682SOL    HW221721   4.309   5.362   0.765 -1.3988 -1.3617 -0.4627
 6683SOL     OW21722   2.911   3.675   4.609  0.3887  0.6576  0.1625
 6683SOL    HW121723   2.995   3.697   4.570  1.8079 -1.0262  2.0755
 6683SOL    HW221724   2.867   3.624   4.541  0.4837  2.2795 -1.1826
 6684SOL     OW21725   7.394   2.450   9.224  0.3201 -0.7003  0.3387
 6684SOL    HW121726   7.397   2.544   9.242 -0.4078 -0.6943  0.4862
 6684SOL    HW221727   7.483   2.419   9.241  0.8398  0.1382 -0.7334
 6685SOL     OW21728   2.971   2.298   7.663  0.2715 -0.0785 -0.1394
 6685SOL    HW121729   3.023   2.343   7.730 -0.5548  0.2923  0.2765
 6685SOL    HW221730   2.883   2.293   7.701 -0.2505  0.2641 -1.2608
 6686SOL     OW21731   6.202   6.730   3.742  0.1803 -0.3946 -0.0417
 6686SOL    HW121732   6.230   6.782   3.817 -0.9687 -1.4557  1.1575
 6686SOL    HW221733   6.168   6.649   3.779  1.9872 -2.0943 -1.8627
 6687SOL     OW21734   3.926   4.507   1.014 -0.5648 -0.4012 -0.1490
 6687SOL    HW121735   3.914   4.413   1.001  0.7763 -0.3321 -2.3745
 6687SOL    HW221736   4.021   4.519   1.012 -0.7557  1.1815 -1.6849
 6688SOL     OW21737   0.643   9.024   6.294  0.7052 -0.1814  0.2658
 6688SOL    HW121738   0.717   8.975   6.328  0.1943 -0.2747  1.2669
 6688SOL    HW221739   0.676   9.064   6.213  1.9698  0.1288  0.9061
 6689SOL     OW21740   5.807   3.529   0.107  0.6817  1.0950  0.0260
 6689SOL    HW121741   5.768   3.614   0.086 -1.0317  0.1114 -1.0597
 6689SOL    HW221742   5.735   3.467   0.096  1.6582 -0.4116  1.6558
 6690SOL     OW21743   4.415   3.445   1.810 -0.4442  0.5148  0.4523
 6690SOL    HW121744   4.395   3.415   1.721  0.6857  0.9331  0.0354
 6690SOL    HW221745   4.334   3.433   1.858 -0.6148 -1.3165 -0.2045
 6691SOL     OW21746   8.882   7.602   2.648 -0.6829 -0.5971  0.3036
 6691SOL    HW121747   8.819   7.530   2.642 -0.0528 -1.0532 -1.7526
 6691SOL    HW221748   8.936   7.580   2.723  1.1828 -3.8031 -1.7399
 6692SOL     OW21749   6.200   2.480   1.321 -0.4384  0.1116 -0.1992
 6692SOL    HW121750   6.183   2.497   1.414  2.2059 -3.6965  1.2019
 6692SOL    HW221751   6.121   2.435   1.290 -1.2472  1.2161  0.1757
 6693SOL     OW21752   4.601   2.848   9.246  0.1592  0.0927 -0.1456
 6693SOL    HW121753   4.532   2.898   9.203  1.1368 -0.2137 -2.2242
 6693SOL    HW221754   4.674   2.850   9.184  1.0526 -1.8880  0.7370
 6694SOL     OW21755   4.536   1.391   7.996 -0.2805 -0.4929 -0.2969
 6694SOL    HW121756   4.460   1.336   8.015 -0.0872 -0.3922  0.8133
 6694SOL    HW221757   4.517   1.474   8.041  0.8008 -0.7141  0.6104
 6695SOL     OW21758   7.294   6.765   9.149  0.4512 -0.1592  0.1121
 6695SOL    HW121759   7.209   6.746   9.110  0.2468  0.7875  0.0627
 6695SOL    HW221760   7.289   6.726   9.237  0.0538 -0.3135  0.0247
 6696SOL     OW21761   9.242   1.970   3.104  0.5298 -0.0238  0.5429
 6696SOL    HW121762   9.178   1.983   3.174  1.8950  2.8728  1.4346
 6696SOL    HW221763   9.320   1.937   3.149  0.9073  0.3133  0.1487
 6697SOL     OW21764   5.705   1.531   1.152  0.0524 -0.2561 -0.3134
 6697SOL    HW121765   5.770   1.477   1.109 -0.7724 -1.8244  0.3122
 6697SOL    HW221766   5.693   1.490   1.238  0.8110  2.0823  1.0147
 6698SOL     OW21767   7.553   7.890   9.579 -0.2481 -0.0564 -0.5235
 6698SOL    HW121768   7.602   7.856   9.504  1.7361 -1.7590  1.3928
 6698SOL    HW221769   7.599   7.969   9.605  0.0008 -0.2981 -0.2162
 6699SOL     OW21770   6.272   5.050   5.678 -0.7674  0.2659 -0.0049
 6699SOL    HW121771   6.214   5.126   5.683 -1.2885 -0.0257 -1.1868
 6699SOL    HW221772   6.357   5.082   5.708 -1.2189  1.0566  0.4515
 6700SOL     OW21773   7.024   8.591   9.393  0.3092  0.7437 -0.2818
 6700SOL    HW121774   7.055   8.556   9.477 -0.2557 -0.5782 -0.5927
 6700SOL    HW221775   6.966   8.663   9.418 -0.6822 -0.2904  0.5591
 6701SOL     OW21776   3.506   3.280   1.202 -0.0057  0.3119 -0.1664
 6701SOL    HW121777   3.509   3.341   1.128  0.8032  0.4390 -0.0320
 6701SOL    HW221778   3.413   3.262   1.214 -0.2737  1.6176 -0.1399
 6702SOL     OW21779   1.612   5.437   5.932 -0.4440  0.6709 -0.6485
 6702SOL    HW121780   1.659   5.354   5.947  0.0818  1.0151 -0.3543
 6702SOL    HW221781   1.524   5.420   5.966 -0.2681  0.3078 -0.3514
 6703SOL     OW21782   3.635   9.636   6.221  0.2878 -0.4303  0.3013
 6703SOL    HW121783   3.639   9.550   6.263  0.9261 -1.0565 -0.9977
 6703SOL    HW221784   3.587   9.690   6.284 -2.1041 -2.2729  0.2475
 6704SOL     OW21785   7.151   0.298   5.332 -0.4169  0.5733  0.2182
 6704SOL    HW121786   7.097   0.274   5.408  1.4751 -2.5808  0.7143
 6704SOL    HW221787   7.101   0.266   5.257  0.7222 -2.5743  0.6904
 6705SOL     OW21788   2.018   8.363   4.189 -0.6475 -0.1333  0.1975
 6705SOL    HW121789   2.012   8.271   4.216 -0.7691 -0.1271  0.1922
 6705SOL    HW221790   2.030   8.359   4.094  0.2816 -0.1681  0.3125
 6706SOL     OW21791   4.172   9.308   1.083  0.4696 -0.2761  0.3907
 6706SOL    HW121792   4.077   9.313   1.076  0.4012  0.5111  1.6470
 6706SOL    HW221793   4.192   9.215   1.068 -0.5026 -0.4723  0.2468
 6707SOL     OW21794   3.038   8.175   4.915 -0.8376  0.2646  0.5040
 6707SOL    HW121795   3.094   8.219   4.852 -1.1046  1.8020  1.2846
 6707SOL    HW221796   3.016   8.092   4.874 -0.9351  1.1682 -1.3792
 6708SOL     OW21797   4.388   0.869   0.475  0.1460 -0.0018  0.6189
 6708SOL    HW121798   4.319   0.804   0.464  0.9313 -0.7492  0.0430
 6708SOL    HW221799   4.465   0.819   0.500  0.7605  0.7082  0.1882
 6709SOL     OW21800   4.130   2.360   0.987 -0.5002 -0.5892  0.0096
 6709SOL    HW121801   4.222   2.344   0.966 -0.7178 -1.8345 -0.0642
 6709SOL    HW221802   4.082   2.331   0.909 -0.9713 -0.0962  0.1075
 6710SOL     OW21803   4.451   5.806   3.466  0.3757 -0.6490  0.6667
 6710SOL    HW121804   4.402   5.886   3.447 -1.2810 -1.7458  0.1294
 6710SOL    HW221805   4.392   5.753   3.519  1.4168 -1.5540  0.9623
 6711SOL     OW21806   1.077   9.395   7.114 -0.4704 -0.5611  0.0579
 6711SOL    HW121807   1.107   9.484   7.131 -0.2067 -0.6159 -0.1127
 6711SOL    HW221808   0.988   9.406   7.080 -0.1790 -0.3148 -0.6386
 6712SOL     OW21809   1.748   1.501   9.626  0.0579  0.1034 -0.3516
 6712SOL    HW121810   1.810   1.442   9.669  0.0834  0.8939  0.7315
 6712SOL    HW221811   1.781   1.508   9.536  0.6103 -0.7463 -0.2359
 6713SOL     OW21812   5.035   4.886   6.068  0.2055  0.4459 -0.1390
 6713SOL    HW121813   4.987   4.860   6.146 -0.0411  0.3954 -0.3063
 6713SOL    HW221814   5.112   4.830   6.067 -0.7889 -0.9534 -1.0026
 6714SOL     OW21815   4.450   8.364   1.699 -0.6534 -0.0468  0.1142
 6714SOL    HW121816   4.400   8.331   1.774  0.1158  0.1761  0.7331
 6714SOL    HW221817   4.383   8.396   1.638 -1.2653  0.3365  0.9692
 6715SOL     OW21818   6.688   4.561   5.570 -0.2948  0.3179  0.5530
 6715SOL    HW121819   6.628   4.528   5.504 -0.2487  0.3304  0.5044
 6715SOL    HW221820   6.772   4.519   5.550 -0.6458 -0.8932  1.5618
 6716SOL     OW21821   8.392   6.203   5.919 -0.2083  0.0608  0.3384
 6716SOL    HW121822   8.374   6.166   6.006  1.1177 -1.0893  0.1508
 6716SOL    HW221823   8.486   6.193   5.907 -0.2809  0.7353 -1.0140
 6717SOL     OW21824   7.573   6.399   3.675  0.2095 -0.0497 -0.3306
 6717SOL    HW121825   7.660   6.438   3.666  0.5846  0.1349  2.9934
 6717SOL    HW221826   7.513   6.467   3.645  1.1277  0.4821 -1.0096
 6718SOL     OW21827   7.126   5.215   3.904 -0.4345 -0.5943  0.5087
 6718SOL    HW121828   7.199   5.153   3.904 -0.0349 -0.1254  1.0276
 6718SOL    HW221829   7.166   5.300   3.922 -0.9035 -0.0819 -0.7237
 6719SOL     OW21830   3.761   7.675   2.079  0.0015  0.0871 -0.0254
 6719SOL    HW121831   3.839   7.671   2.133 -0.1522  0.4065  0.2230
 6719SOL    HW221832   3.715   7.753   2.109 -0.4391 -0.1269 -0.1344
 6720SOL     OW21833   0.200   7.097   5.621 -0.5282 -0.0441  0.2995
 6720SOL    HW121834   0.231   7.011   5.591  0.2595 -0.1353  1.3155
 6720SOL    HW221835   0.115   7.080   5.660  0.1752 -0.6175  1.6575
 6721SOL     OW21836   6.194   7.200   5.920 -0.4293  0.3202  0.2261
 6721SOL    HW121837   6.202   7.155   6.004 -1.4573 -0.0028  0.1680
 6721SOL    HW221838   6.269   7.169   5.869 -0.3993 -0.3137  0.6479
 6722SOL     OW21839   3.760   2.079   8.259 -0.4506 -0.0489 -0.0335
 6722SOL    HW121840   3.836   2.069   8.316  0.5249  0.4175 -1.2074
 6722SOL    HW221841   3.685   2.079   8.319  0.6083  2.1068  1.4480
 6723SOL     OW21842   0.116   6.744   2.265  0.4085 -0.3671 -0.3248
 6723SOL    HW121843   0.192   6.774   2.315  0.0748  0.0476 -0.0553
 6723SOL    HW221844   0.151   6.723   2.178  0.9755 -1.0105  0.0495
 6724SOL     OW21845   0.171   0.944   6.086 -0.1561 -0.0979 -0.3370
 6724SOL    HW121846   0.226   0.952   6.164  1.9157  2.0114 -1.8804
 6724SOL    HW221847   0.204   0.867   6.040  1.4647  1.0313 -1.1438
 6725SOL     OW21848   3.162   0.553   3.779 -0.0331 -0.4860  0.1488
 6725SOL    HW121849   3.158   0.486   3.710 -0.3935  0.1658 -0.4682
 6725SOL    HW221850   3.104   0.520   3.848 -1.0348 -0.3028 -0.5982
 6726SOL     OW21851   2.064   1.284   7.101  0.2127 -0.1590  0.3052
 6726SOL    HW121852   2.088   1.302   7.192 -1.8863 -0.2547  0.9246
 6726SOL    HW221853   1.996   1.347   7.081 -1.8451 -2.3253 -0.0049
 6727SOL     OW21854   1.195   2.160   2.456  0.1857  0.0040  0.2130
 6727SOL    HW121855   1.111   2.123   2.480 -0.2828  0.6493 -0.3887
 6727SOL    HW221856   1.207   2.235   2.515  0.4058 -0.1638  0.3858
 6728SOL     OW21857   4.179   7.703   6.296  0.0451 -0.1935  0.1203
 6728SOL    HW121858   4.099   7.706   6.243  0.0759  1.1990  0.1293
 6728SOL    HW221859   4.153   7.743   6.379  0.8127  0.4840  0.0367
 6729SOL     OW21860   1.588   8.828   3.573 -0.0754 -0.5499  0.1075
 6729SOL    HW121861   1.518   8.802   3.512 -1.7730 -1.5514  2.3232
 6729SOL    HW221862   1.569   8.919   3.594  0.7378 -0.0831 -1.0794
 6730SOL     OW21863   5.258   4.375   7.457  0.0625  0.1669 -0.2443
 6730SOL    HW121864   5.242   4.377   7.363  0.7121 -0.9827 -0.3957
 6730SOL    HW221865   5.292   4.462   7.478  0.1633  0.3391 -1.1055
 6731SOL     OW21866   4.889   6.735   5.830 -0.0101 -0.7927 -0.2364
 6731SOL    HW121867   4.918   6.674   5.897  2.4477  0.4427 -0.0293
 6731SOL    HW221868   4.970   6.778   5.801 -1.3152  0.5400 -2.1623
 6732SOL     OW21869   2.606   0.432   1.016 -0.0260  0.7821 -0.0965
 6732SOL    HW121870   2.569   0.344   1.021 -0.3116  0.8920 -0.3304
 6732SOL    HW221871   2.609   0.462   1.107  0.7367  0.2532  0.0587
 6733SOL     OW21872   6.600   1.163   5.357 -0.2157  0.6336 -0.1061
 6733SOL    HW121873   6.661   1.120   5.417 -1.9955 -1.4414  0.3376
 6733SOL    HW221874   6.621   1.256   5.365  0.3390  0.3696  2.9592
 6734SOL     OW21875   4.546   3.473   7.339 -0.1119 -0.4467 -0.3733
 6734SOL    HW121876   4.596   3.399   7.375  0.5386  0.8657  1.5649
 6734SOL    HW221877   4.613   3.537   7.314 -0.6819  1.3674  2.3245
 6735SOL     OW21878   7.739   0.532   4.061 -0.5051  0.1507 -0.0201
 6735SOL    HW121879   7.776   0.512   4.147 -0.0749  1.7310  0.2035
 6735SOL    HW221880   7.654   0.571   4.080  0.0099  1.4234 -0.2288
 6736SOL     OW21881   5.482   4.538   7.783  0.3349 -0.2049  0.3502
 6736SOL    HW121882   5.563   4.527   7.834 -0.3162  1.4440  1.8568
 6736SOL    HW221883   5.430   4.461   7.805  0.0736  0.4470  2.2716
 6737SOL     OW21884   9.202   5.923   1.341  0.3725  0.1100 -0.2088
 6737SOL    HW121885   9.118   5.886   1.313  0.1212  0.5331 -0.0306
 6737SOL    HW221886   9.196   5.929   1.436  0.7276 -0.1424 -0.1680
 6738SOL     OW21887   4.357   1.101   5.784 -0.0105 -0.2596 -0.1577
 6738SOL    HW121888   4.441   1.129   5.748  0.1955  0.5469  0.8909
 6738SOL    HW221889   4.316   1.051   5.713  0.0681  1.8293 -1.7855
 6739SOL     OW21890   8.574   4.154   4.817  0.1687 -0.2879  0.2953
 6739SOL    HW121891   8.497   4.131   4.764 -0.6018  2.8514 -0.1097
 6739SOL    HW221892   8.537   4.178   4.902  0.8340  0.1066  0.4749
 6740SOL     OW21893   1.060   9.402   8.405 -0.0970 -0.0058  0.0028
 6740SOL    HW121894   1.022   9.363   8.326  0.4658  0.4539 -0.5065
 6740SOL    HW221895   1.006   9.479   8.423 -0.0338  0.0670 -0.1195
 6741SOL     OW21896   5.878   5.486   0.557  0.2814  0.3167 -0.1025
 6741SOL    HW121897   5.969   5.515   0.560  0.7459 -0.8172 -1.6583
 6741SOL    HW221898   5.884   5.390   0.553 -0.9020  0.2664 -1.3844
 6742SOL     OW21899   4.652   7.934   2.412 -0.1387  0.1933 -0.4986
 6742SOL    HW121900   4.644   7.876   2.336  1.3011  1.8957 -2.0376
 6742SOL    HW221901   4.743   7.924   2.440 -0.2908  0.6042  0.1589
 6743SOL     OW21902   4.007   6.161   8.331  0.2158  0.4842 -0.1212
 6743SOL    HW121903   3.995   6.181   8.423  1.1802 -2.1817  0.6575
 6743SOL    HW221904   4.091   6.116   8.326 -0.7339 -1.2664 -1.9587
 6744SOL     OW21905   4.905   6.637   3.087 -0.3022  0.0623 -0.0341
 6744SOL    HW121906   4.839   6.598   3.146  0.3120 -0.1923  0.4942
 6744SOL    HW221907   4.880   6.729   3.082 -0.2879  0.1174  0.7419
 6745SOL     OW21908   6.994   8.695   0.869  0.0114 -0.0506 -0.2184
 6745SOL    HW121909   7.016   8.722   0.958  1.2681 -0.4835 -0.3737
 6745SOL    HW221910   6.899   8.702   0.864 -0.1387 -0.6380  1.3657
 6746SOL     OW21911   3.212   1.494   4.602  0.0268 -0.4300  0.4886
 6746SOL    HW121912   3.302   1.461   4.592  0.4654  1.1422 -1.3092
 6746SOL    HW221913   3.201   1.556   4.531 -2.7819 -1.0861  0.2269
 6747SOL     OW21914   4.225   7.169   2.300 -0.1747  1.0889 -0.1527
 6747SOL    HW121915   4.314   7.178   2.267 -0.3320 -2.4836 -2.0379
 6747SOL    HW221916   4.223   7.224   2.378  2.9821  2.9585 -1.2110
 6748SOL     OW21917   2.357   4.250   1.253  0.6284 -0.4501  0.0628
 6748SOL    HW121918   2.329   4.340   1.239  0.2885 -0.7216 -1.1500
 6748SOL    HW221919   2.452   4.252   1.243  0.9320  0.1861  2.5457
 6749SOL     OW21920   4.384   5.922   0.103  0.2117 -0.0522  0.0164
 6749SOL    HW121921   4.375   5.834   0.139  1.7488 -0.8528 -1.4420
 6749SOL    HW221922   4.444   5.967   0.162 -0.5088  0.0295  0.7137
 6750SOL     OW21923   5.131   9.356   8.158  0.2244  0.2172  0.4210
 6750SOL    HW121924   5.155   9.367   8.067  0.5544  0.5293  0.5461
 6750SOL    HW221925   5.041   9.323   8.155 -0.8776  2.9777  0.0191
 6751SOL     OW21926   7.041   5.619   8.668 -0.0842  0.2011 -0.6881
 6751SOL    HW121927   6.946   5.619   8.664 -0.2765 -1.3873  1.5771
 6751SOL    HW221928   7.066   5.530   8.641  0.3718 -0.7350  2.3700
 6752SOL     OW21929   7.057   3.390   5.558  0.1040 -0.0570 -0.1457
 6752SOL    HW121930   6.993   3.328   5.523  0.9116 -0.8476 -0.2424
 6752SOL    HW221931   7.076   3.449   5.485 -2.1698  1.6258  0.4952
 6753SOL     OW21932   2.657   5.870   4.467 -0.8813  0.1020 -0.2071
 6753SOL    HW121933   2.722   5.938   4.485 -2.1366  1.5072 -0.7669
 6753SOL    HW221934   2.696   5.790   4.502  1.1353  0.8824 -0.5151
 6754SOL     OW21935   3.849   4.794   6.134 -0.0983  0.2099  0.0994
 6754SOL    HW121936   3.769   4.847   6.130 -0.7982 -0.7071  1.3052
 6754SOL    HW221937   3.826   4.712   6.090  1.3045  1.2066 -2.7182
 6755SOL     OW21938   3.083   0.799   0.022  0.1728 -0.2021  0.0530
 6755SOL    HW121939   3.006   0.813   0.077 -0.6533  1.6220 -1.4161
 6755SOL    HW221940   3.151   0.768   0.082 -0.6537  1.6977  2.1340
 6756SOL     OW21941   8.093   1.116   1.930 -0.1535  0.3180 -0.4179
 6756SOL    HW121942   8.144   1.109   2.011 -0.9049 -1.0150 -0.0282
 6756SOL    HW221943   8.087   1.026   1.898 -0.8418  0.6855 -1.3503
 6757SOL     OW21944   8.455   7.664   4.534  0.0705  0.1259  0.4439
 6757SOL    HW121945   8.421   7.690   4.448 -1.2894  1.0374  1.2240
 6757SOL    HW221946   8.454   7.745   4.586 -1.1304 -0.8031  1.9469
 6758SOL     OW21947   9.032   7.523   7.720  0.2817  0.2956 -0.0898
 6758SOL    HW121948   9.097   7.459   7.749  0.9752  1.1327  0.2425
 6758SOL    HW221949   8.960   7.513   7.782  1.4738  1.6055  1.6029
 6759SOL     OW21950   4.179   5.066   5.613  0.3448  0.3355  0.3769
 6759SOL    HW121951   4.246   5.033   5.674  2.9260  0.0020 -2.4280
 6759SOL    HW221952   4.198   5.159   5.603 -2.0102  1.1397  2.2383
 6760SOL     OW21953   5.776   4.879   6.215  0.2227  0.4287 -0.1323
 6760SOL    HW121954   5.722   4.866   6.293  0.3375 -0.8458 -0.2498
 6760SOL    HW221955   5.865   4.889   6.248  0.5691 -1.9641 -0.1348
 6761SOL     OW21956   0.685   8.306   8.376  1.1921  0.1743 -0.4708
 6761SOL    HW121957   0.751   8.315   8.307  1.4046  0.5065 -0.2239
 6761SOL    HW221958   0.707   8.373   8.440  2.6974 -1.8890  1.3245
 6762SOL     OW21959   3.199   3.283   6.450 -0.7170  0.7510 -0.3790
 6762SOL    HW121960   3.149   3.352   6.493  0.4592  1.3097  0.1035
 6762SOL    HW221961   3.267   3.329   6.401 -0.0184 -0.0577 -0.1849
 6763SOL     OW21962   9.054   1.505   5.315 -0.2764 -0.3650  0.6958
 6763SOL    HW121963   9.146   1.517   5.338 -0.0243  0.1998 -0.5158
 6763SOL    HW221964   9.014   1.590   5.333  0.1336  0.4175 -1.7463
 6764SOL     OW21965   4.052   1.696   6.087 -0.1876 -0.3947 -0.2677
 6764SOL    HW121966   4.141   1.699   6.122  0.6768  0.5935 -2.3762
 6764SOL    HW221967   4.042   1.606   6.054 -0.3219 -0.7617  0.7292
 6765SOL     OW21968   6.768   9.233   7.490  0.9205  0.3744 -0.3695
 6765SOL    HW121969   6.728   9.313   7.523 -2.0498 -1.2776  0.4238
 6765SOL    HW221970   6.774   9.246   7.395 -1.0195  0.9645 -0.4462
 6766SOL     OW21971   0.205   8.724   7.097  0.0063 -0.6975  0.0441
 6766SOL    HW121972   0.251   8.641   7.085 -2.9687 -2.0286 -3.9737
 6766SOL    HW221973   0.134   8.704   7.158  0.4761 -0.4896  0.6773
 6767SOL     OW21974   2.876   9.271   4.154  0.3347  0.6192  0.0648
 6767SOL    HW121975   2.818   9.347   4.141 -0.5599 -0.0682 -0.0335
 6767SOL    HW221976   2.817   9.196   4.151  1.0992 -0.0261  1.0405
 6768SOL     OW21977   7.265   2.121   2.912 -0.3595  0.1431 -0.5906
 6768SOL    HW121978   7.186   2.081   2.949 -0.6401 -0.5285 -1.8405
 6768SOL    HW221979   7.272   2.083   2.824  2.2826 -1.0450  0.0353
 6769SOL     OW21980   7.702   3.269   1.977 -0.1126 -0.4391  0.5503
 6769SOL    HW121981   7.628   3.238   1.925 -1.3840  0.8981  1.4848
 6769SOL    HW221982   7.751   3.326   1.918 -1.9872  1.7155  0.9312
 6770SOL     OW21983   1.473   4.747   5.998  0.0674  0.2931  0.2525
 6770SOL    HW121984   1.490   4.836   5.969  0.0021  0.7783  1.6271
 6770SOL    HW221985   1.484   4.693   5.919  0.5386  1.4542 -0.4979
 6771SOL     OW21986   1.044   0.511   3.380 -0.1026 -0.7201  0.0899
 6771SOL    HW121987   0.979   0.441   3.378 -0.7794 -0.0879 -0.9675
 6771SOL    HW221988   1.128   0.466   3.362  0.0748 -1.8003  3.1472
 6772SOL     OW21989   2.713   3.913   8.943 -0.0467 -0.1025  0.1055
 6772SOL    HW121990   2.699   3.894   8.851 -2.1021  0.5844  0.2349
 6772SOL    HW221991   2.703   4.008   8.950  0.4774 -0.0941  0.9872
 6773SOL     OW21992   5.420   8.538   5.223  0.0090  0.7005  0.1396
 6773SOL    HW121993   5.368   8.501   5.151  1.4237  1.3695 -1.2964
 6773SOL    HW221994   5.421   8.632   5.206 -0.3948  0.9900  1.5974
 6774SOL     OW21995   4.897   4.764   6.772  0.1433 -0.1317  0.0657
 6774SOL    HW121996   4.805   4.790   6.785  0.1939  1.1157 -1.6574
 6774SOL    HW221997   4.944   4.807   6.843 -0.4447  0.3452  0.1767
 6775SOL     OW21998   3.346   5.326   4.696 -0.4826  0.3422 -0.3313
 6775SOL    HW121999   3.304   5.261   4.640  0.6651  0.0911 -0.9311
 6775SOL    HW222000   3.387   5.275   4.765 -2.2451  0.6775  1.0389
 6776SOL     OW22001   8.606   4.255   0.506  0.5431  0.3212  0.0148
 6776SOL    HW122002   8.666   4.237   0.579  1.4730 -2.6388 -1.3481
 6776SOL    HW222003   8.663   4.288   0.436 -0.1239  1.6464  0.0556
 6777SOL     OW22004   0.817   3.592   0.116  0.3173 -0.2540 -0.0830
 6777SOL    HW122005   0.770   3.605   0.199  0.1749  1.0888 -0.3546
 6777SOL    HW222006   0.755   3.617   0.048  1.4068  1.6798 -0.4443
 6778SOL     OW22007   4.797   0.732   1.515 -0.2455  0.6458  0.3084
 6778SOL    HW122008   4.745   0.718   1.594  0.8803 -1.5293  0.7406
 6778SOL    HW222009   4.875   0.779   1.545  1.2771 -2.1222  1.0409
 6779SOL     OW22010   4.472   8.880   8.715 -0.1522 -0.5094 -0.1887
 6779SOL    HW122011   4.505   8.842   8.634  1.5164 -0.8879  0.6175
 6779SOL    HW222012   4.500   8.972   8.711  0.6157 -0.7191  0.2980
 6780SOL     OW22013   4.109   4.251   6.804  0.9662 -0.0224 -0.4927
 6780SOL    HW122014   4.075   4.216   6.887  1.2640 -1.0631 -0.7913
 6780SOL    HW222015   4.185   4.196   6.785 -0.0464 -0.9149 -2.2743
 6781SOL     OW22016   6.293   0.016   6.935  0.0580 -0.0193  0.6738
 6781SOL    HW122017   6.299   0.090   6.997 -1.6185  2.1514 -1.5769
 6781SOL    HW222018   6.379   0.014   6.893  1.3501 -1.7404  3.0961
 6782SOL     OW22019   4.300   4.103   0.487 -0.0020 -0.0000 -0.1310
 6782SOL    HW122020   4.297   4.173   0.553  0.8853 -0.8702  0.8722
 6782SOL    HW222021   4.386   4.113   0.446  0.0907 -0.4458 -0.0487
 6783SOL     OW22022   4.777   8.645   6.600 -0.1111  0.0215 -0.1476
 6783SOL    HW122023   4.772   8.661   6.694 -0.9575  1.8472 -0.4629
 6783SOL    HW222024   4.870   8.652   6.580 -0.1080  1.6688  0.2693
 6784SOL     OW22025   0.036   8.652   9.439 -0.0199 -0.4965 -0.0031
 6784SOL    HW122026  -0.003   8.590   9.502 -1.0948 -0.1240 -0.2753
 6784SOL    HW222027   0.045   8.733   9.488 -0.8030 -0.2228 -0.2913
 6785SOL     OW22028   2.069   5.398   1.308 -0.2569  0.7463 -0.0009
 6785SOL    HW122029   2.073   5.315   1.262  1.1021  0.2367  0.9829
 6785SOL    HW222030   2.068   5.464   1.239 -1.4358 -0.0642 -0.7915
 6786SOL     OW22031   4.012   6.418   9.214 -0.5522  0.0872  0.0287
 6786SOL    HW122032   4.089   6.365   9.191  0.1342  0.1211  2.0364
 6786SOL    HW222033   3.938   6.369   9.179  0.0293 -2.3841  1.9783
 6787SOL     OW22034   1.024   6.252   0.320 -0.3714  0.4048  0.3718
 6787SOL    HW122035   0.995   6.213   0.237 -0.7884  0.6766  0.3854
 6787SOL    HW222036   1.058   6.338   0.296 -1.1176  0.7585  0.5615
 6788SOL     OW22037   4.042   1.898   2.331 -0.0744  0.1735 -0.3947
 6788SOL    HW122038   3.968   1.838   2.332 -0.1382  0.2596  0.9541
 6788SOL    HW222039   4.012   1.973   2.280 -0.9079  0.1993  0.1283
 6789SOL     OW22040   4.036   9.019   7.577  0.5741  0.0968 -0.0511
 6789SOL    HW122041   4.011   8.950   7.515 -1.9123  1.1658 -0.3593
 6789SOL    HW222042   4.048   8.974   7.660 -0.4418 -0.8193 -0.3743
 6790SOL     OW22043   7.880   4.463   1.885 -0.0319 -0.4057 -0.1643
 6790SOL    HW122044   7.952   4.467   1.947 -0.5797  0.2504  0.4500
 6790SOL    HW222045   7.851   4.372   1.889  0.3788 -0.5305  0.0343
 6791SOL     OW22046   8.752   2.310   9.441 -0.0346 -0.0667  0.2546
 6791SOL    HW122047   8.848   2.308   9.444  0.0098 -1.6642 -0.9557
 6791SOL    HW222048   8.730   2.278   9.353 -1.7062 -0.6816  0.8650
 6792SOL     OW22049   6.340   4.664   8.565 -0.1059  0.6887 -0.2878
 6792SOL    HW122050   6.296   4.689   8.647  0.1735 -0.5906  0.2687
 6792SOL    HW222051   6.356   4.748   8.521 -0.7086  1.3655  0.7283
 6793SOL     OW22052   7.281   4.688   0.936  0.4881 -0.1137 -0.0869
 6793SOL    HW122053   7.259   4.775   0.970  0.5870  0.5329 -1.5734
 6793SOL    HW222054   7.369   4.699   0.899  0.0065 -0.4927 -1.4065
 6794SOL     OW22055   7.657   2.466   0.887 -0.2463 -0.1069 -0.1730
 6794SOL    HW122056   7.645   2.552   0.848  2.1081 -0.2062 -1.2220
 6794SOL    HW222057   7.598   2.409   0.836  1.9617 -0.0395 -3.0486
 6795SOL     OW22058   3.078   7.547   5.105 -0.0782 -0.3849  0.3497
 6795SOL    HW122059   3.141   7.601   5.058 -1.2740 -1.1996 -2.3809
 6795SOL    HW222060   2.999   7.601   5.112 -0.1294 -0.5157  0.8496
 6796SOL     OW22061   5.211   8.395   5.746 -0.1951  0.1087 -0.0272
 6796SOL    HW122062   5.205   8.350   5.661 -0.3335  1.9076 -1.0237
 6796SOL    HW222063   5.122   8.427   5.762 -0.1775 -0.2651  0.8288
 6797SOL     OW22064   3.665   2.097   3.828 -0.3516 -0.5298  0.3011
 6797SOL    HW122065   3.674   2.047   3.909  0.1865  0.0018  0.5735
 6797SOL    HW222066   3.669   2.189   3.855  0.0120 -0.3476 -0.3465
 6798SOL     OW22067   8.343   0.928   9.596 -0.7977 -0.6158  0.3906
 6798SOL    HW122068   8.307   1.006   9.637 -0.5541 -0.0411 -0.4709
 6798SOL    HW222069   8.319   0.935   9.504  0.2555 -0.9468  0.0700
 6799SOL     OW22070   2.405   1.290   8.194  0.2437 -0.4791  0.5612
 6799SOL    HW122071   2.452   1.246   8.123  2.9464  0.2067  1.7946
 6799SOL    HW222072   2.454   1.371   8.210 -2.1780  1.0147  1.1112
 6800SOL     OW22073   9.487   9.371   4.980 -0.2030 -0.3318  0.8456
 6800SOL    HW122074   9.446   9.388   5.064 -1.0150  0.0348  0.3835
 6800SOL    HW222075   9.535   9.289   4.993 -0.8568 -0.6246  1.4705
 6801SOL     OW22076   8.247   8.430   0.697 -0.3513  0.2057 -0.5935
 6801SOL    HW122077   8.292   8.442   0.780  1.0946  1.5909 -1.5296
 6801SOL    HW222078   8.289   8.353   0.658 -0.6204 -0.0791 -0.3369
 6802SOL     OW22079   7.371   1.367   0.094 -0.2117  0.0076  0.2516
 6802SOL    HW122080   7.366   1.399   0.004  1.5437  0.9276  0.4453
 6802SOL    HW222081   7.364   1.271   0.085  0.9589  0.0010 -0.9694
 6803SOL     OW22082   6.883   9.082   2.583 -0.3218  0.5944  0.1064
 6803SOL    HW122083   6.874   8.993   2.549 -0.3395  1.0354 -1.0970
 6803SOL    HW222084   6.809   9.130   2.545 -0.9132  0.8998  1.5676
 6804SOL     OW22085   0.984   1.221   5.622 -0.3440 -0.0752  0.4613
 6804SOL    HW122086   0.905   1.171   5.600  0.0696 -0.4048 -0.3569
 6804SOL    HW222087   0.974   1.243   5.714 -0.3784 -1.9900  0.9596
 6805SOL     OW22088   1.071   8.520   5.932  0.3318  0.3614 -0.3273
 6805SOL    HW122089   1.121   8.439   5.922  0.8210  0.5445  0.5214
 6805SOL    HW222090   1.122   8.573   5.994 -0.8653  0.5831  0.5182
 6806SOL     OW22091   0.617   8.811   3.157 -0.3088  0.5246 -0.0983
 6806SOL    HW122092   0.642   8.871   3.228  1.8701 -0.0180 -0.3572
 6806SOL    HW222093   0.542   8.854   3.116  1.3839  3.3502 -0.5148
 6807SOL     OW22094   9.154   7.693   5.051 -0.0552  0.1143 -0.4854
 6807SOL    HW122095   9.237   7.717   5.092 -0.0123 -0.9091  0.0789
 6807SOL    HW222096   9.090   7.752   5.089  0.3953  0.8827 -0.8899
 6808SOL     OW22097   7.432   3.770   3.633 -0.8134 -0.0697 -0.8608
 6808SOL    HW122098   7.505   3.823   3.665 -0.4718 -1.0344 -0.0213
 6808SOL    HW222099   7.473   3.700   3.582 -1.0921 -0.9301  0.0631
 6809SOL     OW22100   7.526   9.068   2.981  0.6650 -0.0057 -0.1288
 6809SOL    HW122101   7.588   9.100   3.047 -0.0400  0.9879  0.0735
 6809SOL    HW222102   7.450   9.126   2.990  1.2408  1.3584 -3.0468
 6810SOL     OW22103   3.955   3.390   0.861  0.3020 -0.8575  0.3488
 6810SOL    HW122104   3.869   3.352   0.878 -0.3655  1.2022  1.9852
 6810SOL    HW222105   3.941   3.452   0.790  0.3959 -0.4621  0.6671
 6811SOL     OW22106   0.409   9.601   5.212  0.6530  0.1875 -0.3881
 6811SOL    HW122107   0.416   9.661   5.138 -1.3744  1.3226  0.2458
 6811SOL    HW222108   0.495   9.606   5.255  1.4512  0.4381 -1.9469
 6812SOL     OW22109   1.525   0.882   3.792  0.0220 -0.1910 -0.2637
 6812SOL    HW122110   1.482   0.956   3.750  0.0517  0.8246  1.4092
 6812SOL    HW222111   1.611   0.916   3.818 -0.3150 -0.5158  1.3463
 6813SOL     OW22112   6.913   4.352   1.438 -0.1965 -0.2473  0.2775
 6813SOL    HW122113   6.875   4.440   1.440 -0.1204 -0.1338 -1.4426
 6813SOL    HW222114   7.007   4.366   1.451 -0.0741  0.0402 -0.7910
 6814SOL     OW22115   2.186   5.660   7.084 -0.0210 -0.1645  0.0452
 6814SOL    HW122116   2.164   5.715   7.009 -0.2146  3.6141  2.6224
 6814SOL    HW222117   2.280   5.643   7.074  0.6466  2.8580  0.3522
 6815SOL     OW22118   5.914   8.987   5.676  0.4199 -0.5786 -0.3681
 6815SOL    HW122119   5.889   8.957   5.589 -0.8997 -1.8866  0.4349
 6815SOL    HW222120   5.832   8.996   5.724  1.0454  0.9673  0.5055
 6816SOL     OW22121   1.161   7.376   6.925  0.6652  0.1555  0.2541
 6816SOL    HW122122   1.203   7.315   6.864  2.0122 -0.6265  1.8789
 6816SOL    HW222123   1.068   7.362   6.912  0.9379 -1.5674 -0.1107
 6817SOL     OW22124   6.539   5.185   0.294 -0.1021 -0.0457 -0.0631
 6817SOL    HW122125   6.526   5.224   0.381 -1.8550  0.7421 -0.6329
 6817SOL    HW222126   6.572   5.257   0.240 -0.6197 -0.0756 -0.4334
 6818SOL     OW22127   3.608   1.177   8.869 -0.0935  0.1249  0.4178
 6818SOL    HW122128   3.593   1.269   8.895  0.9710  0.8575 -1.4018
 6818SOL    HW222129   3.703   1.169   8.866 -0.1570 -0.2541 -1.9535
 6819SOL     OW22130   4.140   1.145   4.618  0.0101  0.0381  0.8003
 6819SOL    HW122131   4.213   1.118   4.673  0.0832  0.4937  0.9297
 6819SOL    HW222132   4.129   1.238   4.636 -1.0229 -0.1526  1.2696
 6820SOL     OW22133   5.404   0.157   6.779  0.2160 -0.1761 -0.3976
 6820SOL    HW122134   5.368   0.069   6.771  0.5813 -0.3605 -0.0655
 6820SOL    HW222135   5.398   0.194   6.691  0.7599 -0.8059 -0.7042
 6821SOL     OW22136   3.695   0.530   2.992  0.3106  0.3362  0.5710
 6821SOL    HW122137   3.706   0.612   2.943  0.3181  0.4719  0.7972
 6821SOL    HW222138   3.780   0.487   2.988  1.2029  1.6860  2.8712
 6822SOL     OW22139   0.299   4.237   5.849 -0.5600  0.0184 -0.3485
 6822SOL    HW122140   0.330   4.203   5.766 -0.8207 -0.2889 -0.3212
 6822SOL    HW222141   0.363   4.206   5.914  0.1782  1.0516 -0.5484
 6823SOL     OW22142   2.323   2.024   5.741  0.0218  0.1655  0.3986
 6823SOL    HW122143   2.273   2.001   5.820 -0.8460  2.0952  0.4815
 6823SOL    HW222144   2.261   2.012   5.670  0.4692 -0.5176  0.1137
 6824SOL     OW22145   4.521   0.842   4.527 -0.0246  0.3360 -0.8389
 6824SOL    HW122146   4.570   0.892   4.593  0.1534 -0.8116 -0.0715
 6824SOL    HW222147   4.433   0.836   4.563  0.0201 -0.1183 -0.7986
 6825SOL     OW22148   1.269   6.924   6.405 -0.3768  1.1094 -0.2906
 6825SOL    HW122149   1.233   6.934   6.493  0.6505 -0.7495  0.3836
 6825SOL    HW222150   1.236   6.839   6.375  1.8915  0.2054 -0.3713
 6826SOL     OW22151   1.622   8.178   8.005 -0.0556  1.1160  0.0111
 6826SOL    HW122152   1.593   8.259   8.047  1.1213  1.3091  0.4717
 6826SOL    HW222153   1.651   8.122   8.077  1.2000  1.1311 -0.4612
 6827SOL     OW22154   5.119   8.424   4.317  0.0416  0.5371 -0.8804
 6827SOL    HW122155   5.061   8.499   4.311 -0.8142  0.2330  2.2322
 6827SOL    HW222156   5.087   8.364   4.249 -1.2915  1.6630 -1.2865
 6828SOL     OW22157   4.640   3.283   1.776  0.0775  0.6639  0.5344
 6828SOL    HW122158   4.582   3.358   1.787  0.1930  0.8210  0.1063
 6828SOL    HW222159   4.708   3.314   1.716 -0.6160 -0.1800 -0.7500
 6829SOL     OW22160   2.058   3.278   6.468 -0.3203  0.5617 -0.0763
 6829SOL    HW122161   2.116   3.214   6.427 -1.0270 -2.2874  2.9604
 6829SOL    HW222162   2.104   3.305   6.548 -0.2645  3.6471 -1.0087
 6830SOL     OW22163   6.177   7.738   6.329 -0.6782  0.0122 -0.1083
 6830SOL    HW122164   6.209   7.649   6.343  0.9869  0.6648  0.5040
 6830SOL    HW222165   6.216   7.765   6.246  0.0383  0.6689  0.4302
 6831SOL     OW22166   2.818   5.105   4.734 -0.1584 -0.4853  0.4779
 6831SOL    HW122167   2.773   5.118   4.817 -0.0818  1.4963  0.2561
 6831SOL    HW222168   2.792   5.017   4.706 -0.0104 -1.2808  2.6687
 6832SOL     OW22169   3.656   5.757   5.943  0.0724 -0.2201 -0.0267
 6832SOL    HW122170   3.688   5.709   5.867  0.6614  0.6509 -0.3476
 6832SOL    HW222171   3.567   5.725   5.956  0.5683 -1.6333 -0.0170
 6833SOL     OW22172   8.609   6.517   1.624  0.3003  0.4955 -0.2710
 6833SOL    HW122173   8.555   6.595   1.616  0.6917  0.6068 -2.2744
 6833SOL    HW222174   8.545   6.445   1.632 -0.0587  1.0301  2.5954
 6834SOL     OW22175   3.620   7.916   2.138  0.1126  0.1640 -0.0690
 6834SOL    HW122176   3.530   7.902   2.167 -0.1241  0.1048 -0.7956
 6834SOL    HW222177   3.645   8.000   2.176  0.0159 -0.1703  0.7482
 6835SOL     OW22178   1.710   3.320   8.923  0.2041  0.1079 -0.7428
 6835SOL    HW122179   1.770   3.262   8.877  0.1961  0.1151 -0.7619
 6835SOL    HW222180   1.670   3.265   8.990  0.7380  0.2740 -0.2864
 6836SOL     OW22181   4.559   2.678   3.630 -0.1693 -0.5020  0.0673
 6836SOL    HW122182   4.576   2.586   3.608  3.6259 -0.1133  0.5816
 6836SOL    HW222183   4.586   2.686   3.722 -0.6104  1.0927  0.0850
 6837SOL     OW22184   0.409   0.468   1.119  0.5446  0.0033  0.1010
 6837SOL    HW122185   0.360   0.405   1.066  0.9787  0.8556 -1.3741
 6837SOL    HW222186   0.346   0.498   1.185 -0.2559 -0.5067 -0.4142
 6838SOL     OW22187   1.481   1.813   1.311 -0.1668 -0.2085 -0.2170
 6838SOL    HW122188   1.501   1.758   1.235  2.9269 -0.4213  0.5989
 6838SOL    HW222189   1.536   1.777   1.381 -1.6015  1.0620  1.6473
 6839SOL     OW22190   3.650   8.530   5.813  0.5447  0.5300 -0.1814
 6839SOL    HW122191   3.585   8.483   5.762  2.0827  0.6084 -2.3654
 6839SOL    HW222192   3.733   8.487   5.792  1.5196  1.9238  0.6061
 6840SOL     OW22193   3.811   3.789   9.314  0.1429  0.0813  0.7465
 6840SOL    HW122194   3.850   3.771   9.228 -0.2305 -2.7524  1.0668
 6840SOL    HW222195   3.721   3.815   9.294 -0.4162 -2.0059  0.2174
 6841SOL     OW22196   6.359   1.733   1.421 -0.5255 -0.3788  0.9024
 6841SOL    HW122197   6.413   1.756   1.345 -2.0816  2.7369  0.5674
 6841SOL    HW222198   6.390   1.647   1.448  0.1203 -1.6552 -3.2431
 6842SOL     OW22199   9.578   3.663   4.352  0.1403 -0.0915 -0.3053
 6842SOL    HW122200   9.622   3.588   4.393 -1.0171 -1.0183 -0.6917
 6842SOL    HW222201   9.639   3.735   4.363  0.8192 -0.8251  1.0798
 6843SOL     OW22202   6.142   6.313   7.478 -0.0938 -0.4270  0.3607
 6843SOL    HW122203   6.112   6.241   7.533 -0.4427  1.2666  2.5210
 6843SOL    HW222204   6.218   6.348   7.524 -0.2017  0.8625 -0.4070
 6844SOL     OW22205   3.595   5.494   4.810  0.4254 -0.1661  0.8488
 6844SOL    HW122206   3.544   5.551   4.866  0.0774 -1.1790  1.6035
 6844SOL    HW222207   3.531   5.457   4.749  0.2809 -1.1735  1.5765
 6845SOL     OW22208   0.998   7.226   8.188 -0.1312 -0.3186  0.7662
 6845SOL    HW122209   0.908   7.259   8.187 -0.2077 -0.5283 -0.2457
 6845SOL    HW222210   1.034   7.258   8.270 -0.4830  1.5773  0.2396
 6846SOL     OW22211   6.408   0.773   5.980 -0.1062 -0.3714 -0.1369
 6846SOL    HW122212   6.352   0.847   6.003 -0.9706 -0.6343 -1.3100
 6846SOL    HW222213   6.369   0.698   6.024  0.0207 -0.3504  0.0117
 6847SOL     OW22214   8.232   6.799   2.675  0.3439  0.2505  0.1186
 6847SOL    HW122215   8.228   6.790   2.770  1.9852  2.2496  0.4420
 6847SOL    HW222216   8.196   6.716   2.642  0.9771 -1.0596  2.4570
 6848SOL     OW22217   1.048   4.017   3.468  0.0247  0.1699 -0.2118
 6848SOL    HW122218   1.012   4.075   3.535  0.4925  0.9608 -0.6279
 6848SOL    HW222219   1.143   4.030   3.473 -0.0171  1.7768 -2.3337
 6849SOL     OW22220   2.910   2.486   5.336  0.2024  0.1592 -0.1912
 6849SOL    HW122221   2.920   2.570   5.381 -1.5639  0.6857 -0.7011
 6849SOL    HW222222   2.959   2.498   5.254  0.1131  0.6400 -0.1820
 6850SOL     OW22223   1.357   2.922   7.640  0.0193 -0.1032  0.3471
 6850SOL    HW122224   1.415   2.865   7.592  0.7491  0.8422  0.0775
 6850SOL    HW222225   1.271   2.909   7.600  0.2955 -0.5480 -0.1031
 6851SOL     OW22226   1.662   0.052   6.725  0.4473 -0.2951 -0.1629
 6851SOL    HW122227   1.689  -0.037   6.703 -0.8778 -0.5897 -0.6939
 6851SOL    HW222228   1.733   0.108   6.690  1.1185 -1.1067 -0.1343
 6852SOL     OW22229   1.226   7.307   8.741 -0.0704  0.1177 -0.1081
 6852SOL    HW122230   1.289   7.236   8.738  0.3968  0.4464  1.2414
 6852SOL    HW222231   1.144   7.265   8.768 -0.6527 -0.4090 -2.4206
 6853SOL     OW22232   3.947   1.401   5.715 -0.1617 -0.0776 -0.1728
 6853SOL    HW122233   3.917   1.311   5.720 -0.4300  0.0415  0.3445
 6853SOL    HW222234   3.964   1.415   5.621  1.4457 -1.1721 -0.1012
 6854SOL     OW22235   4.033   7.845   5.671  0.4926  1.1039  0.2871
 6854SOL    HW122236   4.031   7.927   5.622 -1.0280  1.0205  0.1816
 6854SOL    HW222237   4.123   7.839   5.703  0.8600  2.3705 -0.4351
 6855SOL     OW22238   2.720   2.012   5.536 -0.3598  0.4568  0.1988
 6855SOL    HW122239   2.692   2.019   5.444 -1.9894  1.4356  0.7377
 6855SOL    HW222240   2.781   2.085   5.548 -0.7782  0.8246  0.1087
 6856SOL     OW22241   8.026   9.573   5.117 -0.5914 -0.0989 -0.4705
 6856SOL    HW122242   8.090   9.635   5.153 -0.1055  0.1529 -1.7312
 6856SOL    HW222243   7.947   9.625   5.103 -0.6069 -0.0729 -0.2886
 6857SOL     OW22244   2.885   0.027   7.984 -0.1169  0.2362 -0.0958
 6857SOL    HW122245   2.844   0.039   8.069  1.2855  0.7672  0.5392
 6857SOL    HW222246   2.961   0.086   7.984  0.2707 -0.1990 -1.4683
 6858SOL     OW22247   2.783   3.514   9.501  0.2496 -0.2612 -0.4599
 6858SOL    HW122248   2.691   3.508   9.475  0.8527  0.3635 -2.9690
 6858SOL    HW222249   2.789   3.459   9.579 -2.3249  0.0545  0.0536
 6859SOL     OW22250   0.424   0.956   5.133 -0.4651 -0.8201  0.3174
 6859SOL    HW122251   0.455   0.872   5.165 -0.9481 -1.0207  0.2652
 6859SOL    HW222252   0.481   0.975   5.058 -1.0774 -1.6523 -0.3835
 6860SOL     OW22253   1.281   8.636   6.600 -0.1460  0.5954  0.4734
 6860SOL    HW122254   1.281   8.558   6.657  0.9337 -0.4248 -0.8444
 6860SOL    HW222255   1.372   8.666   6.602  0.4947 -0.7962 -2.3496
 6861SOL     OW22256   8.372   0.945   9.030 -0.0422  0.4684  0.1717
 6861SOL    HW122257   8.377   0.926   9.124 -2.0903  0.1861  0.2822
 6861SOL    HW222258   8.337   0.865   8.991  0.0066  0.8652 -0.7171
 6862SOL     OW22259   7.892   1.972   5.663  0.3347  0.2039 -0.0656
 6862SOL    HW122260   7.821   2.030   5.688  1.9232  1.5968  1.5126
 6862SOL    HW222261   7.879   1.957   5.570 -2.9902 -1.0699  0.4851
 6863SOL     OW22262   0.856   4.433   8.342 -0.4977  0.2371 -0.4520
 6863SOL    HW122263   0.908   4.475   8.410 -0.1073  0.8268 -1.0912
 6863SOL    HW222264   0.846   4.342   8.370 -1.1825  0.6959  0.8648
 6864SOL     OW22265   7.683   0.453   4.901 -0.4453  0.0585 -0.4562
 6864SOL    HW122266   7.627   0.392   4.949  2.4634 -2.4673  0.0196
 6864SOL    HW222267   7.665   0.433   4.809 -1.4765  0.4618 -0.3576
 6865SOL     OW22268   6.880   7.262   5.672  0.0853  0.6304  0.2969
 6865SOL    HW122269   6.969   7.282   5.643 -0.6080  1.8362 -1.1498
 6865SOL    HW222270   6.862   7.175   5.638  0.5408  0.5708  0.2057
 6866SOL     OW22271   6.695   3.751   6.733 -0.6140  0.3676  0.4616
 6866SOL    HW122272   6.733   3.838   6.746 -2.8372  1.5409 -0.3685
 6866SOL    HW222273   6.770   3.696   6.708  1.1605  1.5355  2.8165
 6867SOL     OW22274   5.723   6.116   8.072 -0.1256  0.3354  0.3258
 6867SOL    HW122275   5.677   6.085   8.150  0.2656  0.9023  0.7915
 6867SOL    HW222276   5.773   6.040   8.043 -1.3164 -0.2913 -0.1835
 6868SOL     OW22277   7.648   8.272   0.163 -0.1497 -0.2282  0.0083
 6868SOL    HW122278   7.686   8.190   0.132  1.5108  0.7092 -0.6294
 6868SOL    HW222279   7.632   8.258   0.256  2.8620 -0.4177  0.6222
 6869SOL     OW22280   8.313   8.265   7.873 -0.4541 -0.3323 -0.5497
 6869SOL    HW122281   8.377   8.204   7.836 -0.8265 -0.6015 -0.7511
 6869SOL    HW222282   8.338   8.273   7.965 -1.5767 -2.3362 -0.0043
 6870SOL     OW22283   9.270   4.795   1.167 -0.2168 -0.2008 -0.3690
 6870SOL    HW122284   9.317   4.833   1.093  1.0443  0.6625  0.8207
 6870SOL    HW222285   9.182   4.780   1.134  0.8185 -1.8428 -2.6865
 6871SOL     OW22286   0.309   8.825   7.516  0.5799  0.5046 -0.3655
 6871SOL    HW122287   0.259   8.768   7.574  0.3943  2.4464  1.5545
 6871SOL    HW222288   0.245   8.889   7.484  0.9285  0.1673 -1.8113
 6872SOL     OW22289   1.962   5.908   5.260 -0.1234  0.1707 -0.0196
 6872SOL    HW122290   2.017   5.896   5.337  0.0398 -0.2714 -0.1993
 6872SOL    HW222291   2.005   5.977   5.209 -0.1254  0.3255  0.1900
 6873SOL     OW22292   1.231   1.918   6.131  0.1468  0.5813  0.8457
 6873SOL    HW122293   1.199   1.918   6.041  1.7607 -0.3710  0.2288
 6873SOL    HW222294   1.320   1.952   6.125  0.4363  0.0801  2.0183
 6874SOL     OW22295   3.382   2.880   7.198  0.2436  0.5671  0.3273
 6874SOL    HW122296   3.442   2.920   7.261 -0.7903  0.8483  1.1601
 6874SOL    HW222297   3.345   2.804   7.245  0.5962 -0.1254 -0.4840
 6875SOL     OW22298   9.094   9.672   3.593 -0.5374 -0.3731  0.3608
 6875SOL    HW122299   9.087   9.767   3.587  2.2415 -0.1055 -0.0043
 6875SOL    HW222300   9.127   9.656   3.682  1.1956 -0.7637 -0.3175
 6876SOL     OW22301   1.099   6.954   8.274 -0.3422  0.3261 -0.2016
 6876SOL    HW122302   1.024   6.912   8.316  0.7276 -2.0554 -0.5432
 6876SOL    HW222303   1.061   7.024   8.221 -2.2087 -0.1367  0.4607
 6877SOL     OW22304   9.649   3.018   8.041  0.2820  0.4142 -0.4652
 6877SOL    HW122305   9.696   2.939   8.013  0.5381 -0.0449  1.1461
 6877SOL    HW222306   9.717   3.085   8.048  0.5475  0.0302  0.8344
 6878SOL     OW22307   1.803   0.095   5.723  0.3412 -0.1803 -0.0166
 6878SOL    HW122308   1.769   0.149   5.794 -0.3211  0.4436 -0.7822
 6878SOL    HW222309   1.759   0.129   5.645  1.9723 -0.0283 -0.9050
 6879SOL     OW22310   7.186   7.357   4.732  0.0713  0.1640 -0.1935
 6879SOL    HW122311   7.157   7.306   4.808 -1.5218  1.2772  0.0033
 6879SOL    HW222312   7.188   7.295   4.660  1.1674 -0.8173  0.6628
 6880SOL     OW22313   3.025   6.601   4.275 -0.3409  0.4419  0.0879
 6880SOL    HW122314   2.983   6.537   4.218  0.7923 -0.2864  0.0233
 6880SOL    HW222315   2.959   6.623   4.340  0.3115 -3.8538  2.5734
 6881SOL     OW22316   5.648   1.534   8.719 -0.1907  0.4442 -0.7141
 6881SOL    HW122317   5.684   1.512   8.805 -0.0527 -1.0365 -1.1297
 6881SOL    HW222318   5.724   1.546   8.663 -0.2507  2.3473 -0.4502
 6882SOL     OW22319   6.797   9.640   7.869 -0.3784 -0.1093 -0.8195
 6882SOL    HW122320   6.867   9.612   7.810  0.1479  1.0487 -0.7807
 6882SOL    HW222321   6.818   9.599   7.952  1.0513  1.2746 -0.4418
 6883SOL     OW22322   2.859   5.219   6.502  0.5815  0.1765 -0.0576
 6883SOL    HW122323   2.793   5.175   6.449 -0.8792  0.1414  1.6981
 6883SOL    HW222324   2.833   5.311   6.502  0.6764  0.2041  0.4421
 6884SOL     OW22325   7.918   8.440   3.792  0.4090  0.1439  0.3752
 6884SOL    HW122326   7.894   8.399   3.875 -0.8364 -0.2155 -0.1458
 6884SOL    HW222327   7.982   8.381   3.753  1.3547  0.5495  1.2768
 6885SOL     OW22328   6.195   1.247   8.096  0.2379  0.4150  0.0161
 6885SOL    HW122329   6.274   1.192   8.091  0.2035  0.2852  0.8202
 6885SOL    HW222330   6.130   1.191   8.138  0.3065  1.1870  1.1718
 6886SOL     OW22331   1.720   0.472   6.184 -0.4690 -0.2467  0.3877
 6886SOL    HW122332   1.704   0.566   6.178 -1.6259 -0.4326  0.3300
 6886SOL    HW222333   1.698   0.449   6.275 -1.7026 -0.7009  0.0023
 6887SOL     OW22334   5.391   3.033   2.384  0.4546 -0.2340 -0.1709
 6887SOL    HW122335   5.352   2.946   2.380  0.2566 -0.1498 -0.0565
 6887SOL    HW222336   5.331   3.088   2.334  0.7889 -0.2424 -0.5841
 6888SOL     OW22337   2.207   9.272   6.556  0.0956 -0.1351 -0.0498
 6888SOL    HW122338   2.256   9.191   6.563 -0.4023 -0.5846 -1.4618
 6888SOL    HW222339   2.217   9.299   6.464 -0.1394  1.1458  0.2743
 6889SOL     OW22340   4.772   0.037   4.492 -0.1485  1.3696 -0.1938
 6889SOL    HW122341   4.750   0.022   4.400 -1.4947 -1.0569  0.4416
 6889SOL    HW222342   4.730   0.120   4.513 -1.1020  1.2319 -1.4071
 6890SOL     OW22343   9.003   7.580   0.034 -0.0282 -0.2649 -0.6981
 6890SOL    HW122344   9.095   7.607   0.028 -0.8495  2.7492 -1.5963
 6890SOL    HW222345   8.964   7.643   0.094 -1.4684 -1.7053 -0.0677
 6891SOL     OW22346   3.829   8.704   7.423  0.0745  0.4538  0.1626
 6891SOL    HW122347   3.764   8.666   7.481 -0.0613 -1.0058 -0.8905
 6891SOL    HW222348   3.779   8.765   7.368 -0.7636 -1.7198 -1.6190
 6892SOL     OW22349   4.704   9.457   2.723  0.3238  0.0189  0.1524
 6892SOL    HW122350   4.784   9.419   2.758  0.1407  0.1122  0.6954
 6892SOL    HW222351   4.728   9.491   2.637  0.9302  0.2890  0.4252
 6893SOL     OW22352   6.186   1.470   4.168  0.3941  0.2346  0.3868
 6893SOL    HW122353   6.122   1.421   4.220  0.0905 -0.7908 -0.8967
 6893SOL    HW222354   6.228   1.404   4.113  1.6131  1.0964  0.2290
 6894SOL     OW22355   6.874   0.260   6.844  0.2302  0.2010  0.1839
 6894SOL    HW122356   6.788   0.298   6.825 -0.4950 -0.5200  1.7861
 6894SOL    HW222357   6.860   0.166   6.842  0.9817  0.0746  0.4671
 6895SOL     OW22358   7.831   7.327   0.761  0.2765 -0.3124 -0.5568
 6895SOL    HW122359   7.800   7.237   0.773 -0.1803 -0.4671 -2.5234
 6895SOL    HW222360   7.924   7.318   0.741  0.3132 -0.3177 -0.3840
 6896SOL     OW22361   6.641   1.748   6.329  0.0227 -0.6265 -0.0150
 6896SOL    HW122362   6.637   1.835   6.287 -0.5509 -0.1184  1.0592
 6896SOL    HW222363   6.700   1.698   6.273 -1.4106 -0.2711 -1.9749
 6897SOL     OW22364   3.498   3.280   5.363 -0.6134  0.6307  0.2065
 6897SOL    HW122365   3.568   3.216   5.375  0.4629  1.4508 -1.2346
 6897SOL    HW222366   3.430   3.233   5.316 -0.0067  0.4047 -0.4738
 6898SOL     OW22367   2.491   2.664   6.368 -0.2733  0.5806  0.3324
 6898SOL    HW122368   2.441   2.582   6.371  0.9141 -0.3630 -2.2711
 6898SOL    HW222369   2.427   2.730   6.344 -0.5809 -0.4081 -1.8378
 6899SOL     OW22370   9.245   4.461   3.885 -0.1320 -0.0896 -0.2536
 6899SOL    HW122371   9.184   4.525   3.847 -1.1113 -1.5426 -1.1969
 6899SOL    HW222372   9.189   4.392   3.920  0.9432 -0.9679 -0.2263
 6900SOL     OW22373   7.385   1.685   0.705 -0.1050  0.0477  0.8614
 6900SOL    HW122374   7.373   1.656   0.795 -0.1767  2.7948  1.8323
 6900SOL    HW222375   7.460   1.634   0.673 -0.5523 -1.5172  2.1707
 6901SOL     OW22376   5.966   9.380   8.425  0.1583 -0.3106 -0.3859
 6901SOL    HW122377   5.918   9.363   8.343  0.5003  1.1791 -0.9351
 6901SOL    HW222378   6.052   9.340   8.411 -0.4449 -1.8252  0.0731
 6902SOL     OW22379   2.660   6.576   6.831 -0.0106  0.1911  0.2811
 6902SOL    HW122380   2.623   6.631   6.901  0.9528 -0.6070  1.4530
 6902SOL    HW222381   2.746   6.614   6.814 -0.8161  1.3074 -1.5908
 6903SOL     OW22382   7.814   2.657   2.320  0.0491 -0.3778 -0.1890
 6903SOL    HW122383   7.840   2.708   2.244 -2.0726 -0.0593 -0.7742
 6903SOL    HW222384   7.731   2.696   2.348  0.4805 -0.8426  1.9647
 6904SOL     OW22385   3.010   1.873   1.182  0.1222 -0.1992  0.1091
 6904SOL    HW122386   2.976   1.813   1.117 -1.9387 -0.8129  1.6615
 6904SOL    HW222387   2.948   1.869   1.254 -0.0069  3.6027  0.4241
 6905SOL     OW22388   2.848   9.228   1.203  0.6141  0.1112 -0.3098
 6905SOL    HW122389   2.847   9.146   1.252 -1.1476  0.8061  0.9404
 6905SOL    HW222390   2.818   9.204   1.116 -0.8294 -0.4753  0.3113
 6906SOL     OW22391   0.920   8.533   3.444  0.0392 -0.4129 -0.3073
 6906SOL    HW122392   0.879   8.510   3.527  1.6764  0.7446  0.8715
 6906SOL    HW222393   0.847   8.555   3.386 -1.0664  0.9062  1.4911
 6907SOL     OW22394   9.425   7.121   2.369 -0.5624 -0.6607  0.0723
 6907SOL    HW122395   9.415   7.092   2.278 -2.2596 -1.5164  0.4891
 6907SOL    HW222396   9.383   7.207   2.371  1.0603  0.1686 -0.3183
 6908SOL     OW22397   4.276   1.705   5.177  0.2606  0.8214  0.1732
 6908SOL    HW122398   4.311   1.641   5.238 -2.0407 -0.9954 -0.2570
 6908SOL    HW222399   4.327   1.693   5.097 -0.2697 -0.7245  0.0247
 6909SOL     OW22400   8.735   6.770   8.047 -0.3219  0.1810 -0.2750
 6909SOL    HW122401   8.806   6.777   7.983 -1.4230 -1.3474 -1.7122
 6909SOL    HW222402   8.688   6.691   8.023 -2.3596  0.9935  0.8413
 6910SOL     OW22403   4.762   4.597   0.430  0.6301  0.4251 -0.1572
 6910SOL    HW122404   4.689   4.633   0.482  2.3812  0.0873  2.7704
 6910SOL    HW222405   4.728   4.592   0.341 -2.9550  0.2236  1.0598
 6911SOL     OW22406   7.006   2.684   9.204  0.0804  0.0463  0.1828
 6911SOL    HW122407   6.963   2.624   9.143 -0.4515  0.1151  0.4855
 6911SOL    HW222408   7.025   2.631   9.281  1.6408 -0.2904 -0.3958
 6912SOL     OW22409   9.647   3.016   6.486 -0.2212  0.1351 -0.3321
 6912SOL    HW122410   9.577   2.960   6.452  0.3804 -0.8589  0.0083
 6912SOL    HW222411   9.682   3.060   6.409 -1.7302  1.2713 -0.4102
 6913SOL     OW22412   6.926   4.162   3.477  0.1716  0.2241  0.2331
 6913SOL    HW122413   6.969   4.085   3.515 -1.1010 -0.1034  1.0708
 6913SOL    HW222414   6.930   4.228   3.547  0.7331  0.7473 -0.2737
 6914SOL     OW22415   4.882   6.174   4.780  0.4481 -0.3707  0.3594
 6914SOL    HW122416   4.940   6.135   4.714 -0.4770 -0.4943 -0.4020
 6914SOL    HW222417   4.936   6.178   4.859  1.6411 -0.0565 -0.4354
 6915SOL     OW22418   3.797   1.887   8.043 -0.1163 -0.4000  0.2117
 6915SOL    HW122419   3.850   1.819   8.086 -0.8687 -1.0361  0.1628
 6915SOL    HW222420   3.797   1.960   8.105  1.2526 -0.1780 -0.0215
 6916SOL     OW22421   1.999   2.764   6.844 -0.0167 -0.4146 -0.5481
 6916SOL    HW122422   1.999   2.682   6.795  0.6054 -0.1826 -0.9564
 6916SOL    HW222423   1.912   2.769   6.883 -1.0466  0.0381 -2.7275
 6917SOL     OW22424   3.562   5.922   9.316 -0.0523 -0.1921  0.0595
 6917SOL    HW122425   3.561   5.982   9.391 -0.7944 -1.1045  0.8106
 6917SOL    HW222426   3.544   5.977   9.240 -0.7455  0.5285  0.7332
 6918SOL     OW22427   6.963   6.480   7.182  0.2152  0.4339 -0.0105
 6918SOL    HW122428   7.038   6.432   7.218  0.7097  0.1682 -1.3544
 6918SOL    HW222429   6.992   6.510   7.096 -0.9419  1.0309 -0.2104
 6919SOL     OW22430   3.297   0.267   9.532  0.9585  0.1667  0.6748
 6919SOL    HW122431   3.228   0.306   9.478  1.0556 -0.1511  0.3167
 6919SOL    HW222432   3.377   0.281   9.481  0.9560 -0.7455  0.4075
 6920SOL     OW22433   0.981   6.422   1.831  0.0439  0.3631 -0.3538
 6920SOL    HW122434   0.946   6.470   1.756 -2.0365  0.4153  0.5744
 6920SOL    HW222435   1.020   6.489   1.886 -0.6245  0.6692 -0.2438
 6921SOL     OW22436   0.603   8.739   8.697 -0.6265  0.0574  0.2006
 6921SOL    HW122437   0.521   8.786   8.680 -0.4561  0.5798  0.7969
 6921SOL    HW222438   0.671   8.802   8.678 -0.3057 -0.6760 -1.2548
 6922SOL     OW22439   0.777   2.077   6.512  0.6883  0.1098 -0.0622
 6922SOL    HW122440   0.752   2.048   6.599  0.1788  1.3626  0.2219
 6922SOL    HW222441   0.725   2.022   6.453 -0.3354  0.4927  0.4629
 6923SOL     OW22442   3.359   4.968   1.664  0.3473  0.0283 -0.2513
 6923SOL    HW122443   3.414   4.992   1.589 -0.2384 -1.0534 -1.0488
 6923SOL    HW222444   3.390   4.881   1.690  1.4037  0.9084  1.6064
 6924SOL     OW22445   7.218   1.924   8.387 -0.2393  0.2568 -0.0889
 6924SOL    HW122446   7.275   1.948   8.460 -0.0193  0.2144 -0.2471
 6924SOL    HW222447   7.265   1.952   8.309 -0.7446  0.8508 -0.1866
 6925SOL     OW22448   4.768   1.696   4.138 -0.1918  0.1367 -0.6340
 6925SOL    HW122449   4.694   1.739   4.095 -0.6930 -0.0461  0.0313
 6925SOL    HW222450   4.751   1.706   4.232  1.5664  1.7265 -0.4160
 6926SOL     OW22451   6.529   8.463   6.848 -0.4349 -0.4403  0.2931
 6926SOL    HW122452   6.530   8.368   6.835  2.5080 -0.2716 -1.3715
 6926SOL    HW222453   6.620   8.490   6.844 -1.0296  2.3449  2.2155
 6927SOL     OW22454   0.372   4.643   5.211 -0.4012 -0.5210  0.0033
 6927SOL    HW122455   0.302   4.624   5.273 -0.4535 -0.0355  0.0963
 6927SOL    HW222456   0.427   4.564   5.211  0.1125 -0.1877  1.3494
 6928SOL     OW22457   0.282   2.468   0.879 -0.4101  0.1395 -0.3214
 6928SOL    HW122458   0.313   2.492   0.791  1.8246 -1.4336 -0.0406
 6928SOL    HW222459   0.325   2.532   0.936  3.5374 -2.5949  0.1701
 6929SOL     OW22460   2.930   3.605   9.144  0.3407  0.8114 -0.4564
 6929SOL    HW122461   2.906   3.679   9.199  0.5239  2.5599 -2.5889
 6929SOL    HW222462   2.937   3.531   9.204 -1.7431  2.0799  1.4895
 6930SOL     OW22463   5.504   0.183   9.457  0.2307 -0.0409  0.6886
 6930SOL    HW122464   5.482   0.113   9.395 -3.4795  1.5231 -0.0381
 6930SOL    HW222465   5.498   0.141   9.543 -0.0995 -1.0425  0.1933
 6931SOL     OW22466   3.576   3.703   1.378  0.0147  0.0277  0.1539
 6931SOL    HW122467   3.642   3.772   1.380  0.0326  0.0769 -1.1780
 6931SOL    HW222468   3.524   3.722   1.299 -0.0933 -1.3773 -0.1402
 6932SOL     OW22469   5.814   6.244   1.658  0.0139 -0.1789 -0.4988
 6932SOL    HW122470   5.826   6.306   1.731  0.9578  1.1771 -1.7432
 6932SOL    HW222471   5.903   6.222   1.631 -0.2424  1.0977 -2.6277
 6933SOL     OW22472   6.575   7.948   7.903  0.4275  0.0589  0.1014
 6933SOL    HW122473   6.611   8.009   7.838 -0.7942 -0.7210 -1.3580
 6933SOL    HW222474   6.631   7.960   7.980  1.4706  1.5416 -0.8296
 6934SOL     OW22475   9.129   5.141   5.195 -0.5774  0.2196 -0.1826
 6934SOL    HW122476   9.045   5.180   5.222 -0.5190 -0.2433  0.7280
 6934SOL    HW222477   9.195   5.200   5.230 -0.5069 -0.1354  0.2933
 6935SOL     OW22478   6.016   3.888   3.111  0.3992 -0.1473  0.3056
 6935SOL    HW122479   6.097   3.937   3.126 -0.1219  1.4517 -1.7011
 6935SOL    HW222480   5.947   3.954   3.119 -0.2746 -0.2367 -3.1363
 6936SOL     OW22481   1.393   7.170   5.466 -0.0143  0.2572  0.7652
 6936SOL    HW122482   1.339   7.136   5.395 -0.0314 -0.6105  1.1754
 6936SOL    HW222483   1.481   7.176   5.428 -0.4302  2.0027 -0.0062
 6937SOL     OW22484   4.555   3.956   2.069  0.3455  0.3018 -0.1971
 6937SOL    HW122485   4.574   3.865   2.091 -0.8989  0.0975  0.1247
 6937SOL    HW222486   4.497   3.986   2.140  0.9200  1.4132 -0.1819
 6938SOL     OW22487   3.573   5.318   7.675  0.6031 -0.0475 -0.2352
 6938SOL    HW122488   3.558   5.341   7.583 -0.4390 -0.4485 -0.1779
 6938SOL    HW222489   3.502   5.258   7.697 -0.7675  2.0777  1.5675
 6939SOL     OW22490   4.337   6.359   2.598  0.2997  0.1237  0.2759
 6939SOL    HW122491   4.424   6.363   2.638 -0.0353  0.8846  0.9626
 6939SOL    HW222492   4.345   6.410   2.518  1.0738 -1.7102 -0.8810
 6940SOL     OW22493   4.665   1.494   5.053  0.5286  0.2457 -0.0529
 6940SOL    HW122494   4.681   1.587   5.074  0.3196  0.2937 -0.1036
 6940SOL    HW222495   4.724   1.476   4.979 -0.3138  0.6788 -0.8490
 6941SOL     OW22496   8.324   6.036   0.067 -0.1981 -0.4726 -0.0552
 6941SOL    HW122497   8.387   5.989   0.013 -0.5438 -0.5924 -0.3610
 6941SOL    HW222498   8.246   6.043   0.012 -0.7214 -1.0061  0.6001
 6942SOL     OW22499   3.795   1.012   8.541  0.4978  0.2786 -0.0977
 6942SOL    HW122500   3.828   0.939   8.489 -1.0904 -1.0413  0.6490
 6942SOL    HW222501   3.722   0.975   8.592  1.3167  1.7129  2.3199
 6943SOL     OW22502   9.307   6.206   0.881  0.0688  0.7775 -0.2802
 6943SOL    HW122503   9.306   6.300   0.867 -0.3212  0.6920 -0.8681
 6943SOL    HW222504   9.220   6.185   0.914  0.5861  0.8000  1.1891
 6944SOL     OW22505   4.881   8.357   3.609  0.2003 -0.2702  0.1777
 6944SOL    HW122506   4.793   8.330   3.638  0.3474 -2.3116 -1.0534
 6944SOL    HW222507   4.873   8.451   3.594 -1.2433 -0.0680  1.8485
 6945SOL     OW22508   8.651   9.206   2.486 -0.4333  0.0639 -0.4054
 6945SOL    HW122509   8.727   9.244   2.443 -1.7280  2.2464 -0.9301
 6945SOL    HW222510   8.611   9.279   2.534 -1.2805 -1.3983  1.2296
 6946SOL     OW22511   2.081   8.672   1.109  0.3676  0.0154  0.6781
 6946SOL    HW122512   1.992   8.658   1.139  0.0021  1.0630  0.1395
 6946SOL    HW222513   2.084   8.632   1.022  0.2481  0.4760  0.4585
 6947SOL     OW22514   0.990   6.419   3.015  0.0477  0.0037 -0.0734
 6947SOL    HW122515   0.982   6.367   2.935 -2.5412 -1.7592  1.1781
 6947SOL    HW222516   0.925   6.488   3.005 -0.4078 -0.3269  0.5552
 6948SOL     OW22517   3.678   3.210   8.819  0.5611 -0.3120 -0.0391
 6948SOL    HW122518   3.598   3.210   8.872  0.4231 -1.8149 -0.2003
 6948SOL    HW222519   3.737   3.149   8.863  1.1838 -0.0935 -0.5475
 6949SOL     OW22520   0.849   3.025   3.529 -0.0519  0.0984 -0.2489
 6949SOL    HW122521   0.778   3.046   3.468 -0.0593 -0.7999 -0.5564
 6949SOL    HW222522   0.916   3.092   3.511 -0.5518  0.5696 -0.3926
 6950SOL     OW22523   9.180   6.263   9.621 -0.1296 -0.5597  0.6644
 6950SOL    HW122524   9.246   6.234   9.685  0.5666 -0.5575 -0.0426
 6950SOL    HW222525   9.156   6.183   9.574  2.5231  0.0016 -1.9727
 6951SOL     OW22526   0.865   6.158   7.967 -0.4561  0.0509 -0.0890
 6951SOL    HW122527   0.858   6.225   7.898  0.6718  0.0267 -0.2454
 6951SOL    HW222528   0.795   6.180   8.028 -0.2466  1.2737 -0.2460
 6952SOL     OW22529   2.106   1.077   5.431  0.6130  0.9251 -0.8572
 6952SOL    HW122530   2.117   1.167   5.462  1.3617  0.2766  0.8581
 6952SOL    HW222531   2.158   1.024   5.491 -1.1472 -0.8440 -0.7757
 6953SOL     OW22532   1.887   0.072   8.909 -0.2108  0.6323 -1.0023
 6953SOL    HW122533   1.945  -0.001   8.933 -0.2326  1.2194  1.0695
 6953SOL    HW222534   1.940   0.150   8.924 -0.7833  1.1044 -1.3980
 6954SOL     OW22535   0.215   0.699   2.603  0.0234  0.4053  0.4120
 6954SOL    HW122536   0.302   0.729   2.632  0.5745  0.6329 -1.3615
 6954SOL    HW222537   0.234   0.629   2.540 -1.0983  0.1521  0.3443
 6955SOL     OW22538   9.635   3.088   4.805  0.2482 -0.8590  0.2305
 6955SOL    HW122539   9.716   3.036   4.800  0.1154 -0.9904 -0.7113
 6955SOL    HW222540   9.590   3.070   4.723 -0.8585 -0.9648  0.8486
 6956SOL     OW22541   3.728   7.694   3.461 -0.4210  0.3263 -0.1482
 6956SOL    HW122542   3.774   7.611   3.446  1.6903  1.4187 -0.1678
 6956SOL    HW222543   3.694   7.687   3.550  0.5308 -0.2353  0.1892
 6957SOL     OW22544   3.798   6.462   2.667  0.6265  0.3043 -0.5039
 6957SOL    HW122545   3.817   6.514   2.746 -0.0967  1.3607 -1.0024
 6957SOL    HW222546   3.870   6.399   2.662  1.1551  0.8017  0.5141
 6958SOL     OW22547   3.476   0.688   0.650  0.0942  0.1825 -0.1936
 6958SOL    HW122548   3.462   0.629   0.576  0.5497  0.7427 -0.7346
 6958SOL    HW222549   3.552   0.739   0.626 -1.6487  2.6512 -0.8186
 6959SOL     OW22550   6.852   7.218   0.473 -0.7306  0.1965 -0.1493
 6959SOL    HW122551   6.849   7.303   0.430 -1.0809  0.4068  0.2835
 6959SOL    HW222552   6.896   7.235   0.557 -1.2791  0.0524  0.1695
 6960SOL     OW22553   6.834   5.462   1.036  0.6713  0.4637  0.1222
 6960SOL    HW122554   6.808   5.532   1.096  0.1197  1.0679 -0.7894
 6960SOL    HW222555   6.917   5.492   0.999  2.1084 -0.8649  2.0640
 6961SOL     OW22556   5.693   4.644   8.585 -0.3157  0.4807 -0.5824
 6961SOL    HW122557   5.666   4.553   8.572 -0.7106  0.6326 -0.8622
 6961SOL    HW222558   5.676   4.661   8.678 -1.9043  0.7899 -0.8987
 6962SOL     OW22559   8.598   7.345   6.952  0.0404 -0.7166  0.1859
 6962SOL    HW122560   8.504   7.343   6.938 -0.0379 -3.5093  0.5246
 6962SOL    HW222561   8.635   7.330   6.865  0.1625  0.1072  0.0957
 6963SOL     OW22562   1.824   8.931   8.001 -0.1856  0.0516  0.4855
 6963SOL    HW122563   1.780   8.968   8.078 -0.5296 -1.9446  1.3089
 6963SOL    HW222564   1.800   8.990   7.929 -1.6238  0.7653  1.4965
 6964SOL     OW22565   2.741   2.679   3.964  0.3788  0.0891 -0.3281
 6964SOL    HW122566   2.802   2.722   4.025  1.8049 -1.0200 -0.9077
 6964SOL    HW222567   2.728   2.592   4.001 -0.2911  0.0628 -0.6140
 6965SOL     OW22568   8.208   2.318   9.609 -0.4030 -0.0375 -0.5731
 6965SOL    HW122569   8.243   2.271   9.684  0.4134 -1.0514 -1.5497
 6965SOL    HW222570   8.134   2.368   9.644  1.3566  1.3767  1.3379
 6966SOL     OW22571   6.380   7.189   1.713 -0.1277 -0.0006 -0.1266
 6966SOL    HW122572   6.331   7.151   1.640 -0.3641 -0.1401  0.1067
 6966SOL    HW222573   6.409   7.275   1.680 -0.4945  0.0674 -0.2745
 6967SOL     OW22574   8.254   9.171   0.477  0.3906  0.0758 -0.8418
 6967SOL    HW122575   8.245   9.240   0.411  2.2249  0.0147 -1.2285
 6967SOL    HW222576   8.185   9.109   0.457  0.3452  0.5203 -2.1304
 6968SOL     OW22577   3.948   8.760   0.485 -0.0936  0.3372 -0.6215
 6968SOL    HW122578   4.011   8.731   0.419  1.4966 -1.6711  1.6176
 6968SOL    HW222579   3.977   8.848   0.508 -0.7630  1.1358 -2.6256
 6969SOL     OW22580   3.659   3.291   5.891  0.1236 -0.4314  0.4540
 6969SOL    HW122581   3.660   3.203   5.855  0.1370 -0.7752  1.2743
 6969SOL    HW222582   3.569   3.303   5.921  0.2403 -0.3405  0.7657
 6970SOL     OW22583   8.156   5.136   8.464 -0.0463 -0.0898 -0.2365
 6970SOL    HW122584   8.124   5.184   8.388 -2.2128  0.0349  0.6703
 6970SOL    HW222585   8.245   5.169   8.479 -0.3332  1.3392 -1.4820
 6971SOL     OW22586   5.065   3.449   2.044 -0.3759 -0.8832 -0.7680
 6971SOL    HW122587   4.971   3.431   2.049 -0.9589  1.8255 -0.1988
 6971SOL    HW222588   5.103   3.394   2.113 -1.5556 -1.8732 -0.8618
 6972SOL     OW22589   7.601   8.368   3.532  0.8072 -0.4559 -0.3567
 6972SOL    HW122590   7.578   8.283   3.495 -0.7643 -0.8012  1.2679
 6972SOL    HW222591   7.524   8.422   3.518  0.8972 -0.0343  0.6974
 6973SOL     OW22592   1.409   3.840   4.889  0.5554  0.2172  0.3236
 6973SOL    HW122593   1.468   3.908   4.919  0.3550  0.9550 -0.8885
 6973SOL    HW222594   1.323   3.883   4.885  0.4121 -0.1202 -0.3747
 6974SOL     OW22595   8.938   4.754   2.174  0.2151 -0.4726 -0.4091
 6974SOL    HW122596   8.878   4.695   2.219 -0.4985 -0.0951 -0.8486
 6974SOL    HW222597   9.025   4.715   2.187 -0.2017 -1.4229 -0.4004
 6975SOL     OW22598   5.209   5.872   4.966  0.1937  0.0822 -0.0126
 6975SOL    HW122599   5.224   5.966   4.958  2.4086 -0.0687  1.4200
 6975SOL    HW222600   5.227   5.837   4.878  0.7252  0.8465 -0.2133
 6976SOL     OW22601   1.912   2.809   3.617  0.3719 -0.2758  0.1564
 6976SOL    HW122602   1.836   2.868   3.608  0.9649  0.4358 -0.3422
 6976SOL    HW222603   1.895   2.740   3.553  0.6302  0.4358 -0.7014
 6977SOL     OW22604   4.972   6.428   3.293 -0.4449  0.4894 -0.1620
 6977SOL    HW122605   5.024   6.442   3.214  0.4391  0.1418  0.3363
 6977SOL    HW222606   4.890   6.388   3.262  0.8344 -1.8951 -0.7365
 6978SOL     OW22607   7.728   3.167   3.713  0.3940 -0.1233  0.0324
 6978SOL    HW122608   7.823   3.168   3.699  0.2215  0.8099 -1.2527
 6978SOL    HW222609   7.717   3.209   3.799  1.1456 -0.2326  0.1915
 6979SOL     OW22610   7.082   3.811   6.665 -0.1840 -0.2593  0.2859
 6979SOL    HW122611   7.050   3.869   6.596  1.0427  0.9783  0.7104
 6979SOL    HW222612   7.034   3.729   6.651 -2.5931  1.0874  0.1929
 6980SOL     OW22613   3.504   7.641   3.119 -0.5405 -0.0170  0.3393
 6980SOL    HW122614   3.548   7.580   3.178  0.0274  0.0504 -0.0109
 6980SOL    HW222615   3.412   7.640   3.148 -0.5419 -1.0604  0.3079
 6981SOL     OW22616   7.710   3.092   5.458 -0.7862 -0.1247  0.3150
 6981SOL    HW122617   7.683   3.010   5.415 -1.9079  1.1263 -1.5056
 6981SOL    HW222618   7.775   3.130   5.399 -1.9226  1.3568 -0.0274
 6982SOL     OW22619   8.173   9.321   8.548  0.1162 -0.1507 -0.0120
 6982SOL    HW122620   8.100   9.360   8.500  0.9806 -1.2378 -2.3817
 6982SOL    HW222621   8.200   9.389   8.610 -2.7341  0.3516  0.8257
 6983SOL     OW22622   7.257   6.769   1.978  0.0166 -0.9759  0.0859
 6983SOL    HW122623   7.297   6.818   1.907  0.9650 -1.9946 -0.1107
 6983SOL    HW222624   7.168   6.750   1.946 -0.8339  1.5910  0.6776
 6984SOL     OW22625   9.265   8.821   7.385 -0.3675 -0.5337  0.0059
 6984SOL    HW122626   9.288   8.913   7.393  0.2633 -0.7615  1.0007
 6984SOL    HW222627   9.243   8.809   7.292  1.9040  0.0852 -0.6646
 6985SOL     OW22628   1.466   1.128   3.704 -0.0998  0.2510 -0.1763
 6985SOL    HW122629   1.534   1.191   3.731 -0.3207 -0.2040  1.5629
 6985SOL    HW222630   1.386   1.159   3.747 -1.4248  1.5961 -3.3215
 6986SOL     OW22631   9.654   6.638   8.910  0.4925 -0.1629 -0.2495
 6986SOL    HW122632   9.719   6.570   8.895  0.3262 -0.3113 -0.3072
 6986SOL    HW222633   9.570   6.593   8.900  0.3816  0.0427 -0.2512
 6987SOL     OW22634   0.105   0.015   2.580  0.1014  0.2242  0.0353
 6987SOL    HW122635   0.167   0.084   2.558 -1.8069  1.6207 -1.3799
 6987SOL    HW222636   0.075   0.037   2.668  0.3915  0.5139  0.0639
 6988SOL     OW22637   0.929   2.933   2.474 -0.4497  0.0662 -0.0769
 6988SOL    HW122638   0.906   2.877   2.400 -0.0424 -2.0430  1.3307
 6988SOL    HW222639   0.974   3.008   2.433 -1.8981 -0.0714 -2.0880
 6989SOL     OW22640   7.647   5.758   2.812  0.2044  0.5846  0.0312
 6989SOL    HW122641   7.736   5.791   2.796 -0.2921  2.0534  0.1279
 6989SOL    HW222642   7.617   5.806   2.890 -0.4067 -0.4358  0.4360
 6990SOL     OW22643   4.934   1.745   5.106  0.3109  0.7492 -0.3248
 6990SOL    HW122644   4.974   1.707   5.184  0.9738  1.2948 -0.3956
 6990SOL    HW222645   4.841   1.753   5.128  0.4626  0.7326  0.3352
 6991SOL     OW22646   6.078   8.061   9.657 -0.4461  0.2739 -0.6646
 6991SOL    HW122647   6.144   8.123   9.627  0.8243 -0.6336  0.1718
 6991SOL    HW222648   6.008   8.116   9.693  1.0103  1.2448  0.8259
 6992SOL     OW22649   4.286   6.484   9.506  0.1058 -0.5434  0.0374
 6992SOL    HW122650   4.357   6.515   9.449 -1.4721  0.7734 -1.3493
 6992SOL    HW222651   4.323   6.484   9.594  1.1518  2.6161 -0.2670
 6993SOL     OW22652   7.265   7.711   6.421  0.8914  0.1563 -0.1959
 6993SOL    HW122653   7.195   7.764   6.459 -0.3991 -0.5168 -1.5149
 6993SOL    HW222654   7.255   7.626   6.463  1.6213  0.3579  0.3970
 6994SOL     OW22655   4.115   5.586   1.951 -0.0680 -0.0289 -0.5521
 6994SOL    HW122656   4.031   5.587   1.998  0.2487 -0.7791  0.0570
 6994SOL    HW222657   4.158   5.667   1.978  0.9294 -1.2870  2.0582
 6995SOL     OW22658   0.927   8.469   2.868 -0.2977  0.1391  0.4494
 6995SOL    HW122659   0.988   8.541   2.885 -1.0552  1.5025 -2.0747
 6995SOL    HW222660   0.842   8.502   2.897 -1.2013  1.6353 -3.2751
 6996SOL     OW22661   2.222   3.850   6.976 -0.4952  0.0539 -0.5882
 6996SOL    HW122662   2.144   3.896   6.948  0.6476  2.2495 -0.3452
 6996SOL    HW222663   2.212   3.841   7.071  0.6922  2.8621 -0.0898
 6997SOL     OW22664   2.989   7.937   4.361 -0.2885  0.0807  0.1075
 6997SOL    HW122665   2.969   7.946   4.454 -1.3784 -0.0457 -0.1003
 6997SOL    HW222666   3.059   8.001   4.344 -0.9576  0.9865  0.7436
 6998SOL     OW22667   5.235   0.612   3.355  0.3436  0.7889  0.3659
 6998SOL    HW122668   5.274   0.627   3.269  1.5828  4.0481  1.3150
 6998SOL    HW222669   5.149   0.653   3.350  0.7764  1.7992  0.8800
 6999SOL     OW22670   2.336   6.973   1.226  0.0428 -0.4060  0.6529
 6999SOL    HW122671   2.368   6.926   1.149 -0.6332 -0.1098  0.1830
 6999SOL    HW222672   2.319   6.905   1.291 -1.3138 -0.8812 -0.1530
 7000SOL     OW22673   6.785   7.475   4.791  0.3777 -0.3059 -0.2469
 7000SOL    HW122674   6.695   7.455   4.765  0.5932  0.7929 -1.9906
 7000SOL    HW222675   6.779   7.563   4.829  0.7224 -0.2251 -0.3808
 7001SOL     OW22676   4.554   6.145   9.402 -0.4891 -0.9311  0.1429
 7001SOL    HW122677   4.582   6.067   9.355  0.5829 -0.1832 -0.5011
 7001SOL    HW222678   4.603   6.143   9.484 -0.7247 -1.1165  0.2785
 7002SOL     OW22679   3.024   3.841   8.920  0.2676  0.5160  0.1115
 7002SOL    HW122680   2.942   3.878   8.954 -0.3765  0.4691 -1.3422
 7002SOL    HW222681   3.085   3.914   8.922  0.4420  0.3794  1.8816
 7003SOL     OW22682   0.291   3.951   0.935  0.4202 -0.4419  0.5230
 7003SOL    HW122683   0.322   4.041   0.931  1.3910 -0.7651  0.5284
 7003SOL    HW222684   0.368   3.898   0.914 -0.2560 -1.2520 -0.0022
 7004SOL     OW22685   3.028   0.343   0.631  0.3201  0.5101  0.1166
 7004SOL    HW122686   3.052   0.272   0.572  0.6303 -1.5009  2.4923
 7004SOL    HW222687   3.060   0.423   0.588  0.8871 -0.8778 -2.1737
 7005SOL     OW22688   8.581   8.167   7.366  0.4055  0.3133  0.2286
 7005SOL    HW122689   8.571   8.078   7.398  1.0230  0.3707  0.5910
 7005SOL    HW222690   8.599   8.219   7.444 -0.2604  0.8107  0.0594
 7006SOL     OW22691   1.162   5.655   6.637  0.5806 -0.3550  0.3153
 7006SOL    HW122692   1.087   5.684   6.585  1.7313  0.8965 -0.7363
 7006SOL    HW222693   1.144   5.686   6.726 -0.0989  0.0079  0.0540
 7007SOL     OW22694   6.298   5.774   1.697  0.2139  0.6505  0.1417
 7007SOL    HW122695   6.297   5.767   1.793  1.8242 -1.1508  0.0767
 7007SOL    HW222696   6.300   5.684   1.666  1.9616  1.1937 -1.5241
 7008SOL     OW22697   3.526   2.950   6.596 -0.0107 -0.1956  0.6937
 7008SOL    HW122698   3.534   2.966   6.502 -1.6591  1.2808  0.7684
 7008SOL    HW222699   3.597   3.001   6.635 -0.4176  0.6179  0.3729
 7009SOL     OW22700   3.833   2.857   2.703 -0.7992 -0.3352  0.5227
 7009SOL    HW122701   3.850   2.789   2.768 -2.0940  0.6800  2.0317
 7009SOL    HW222702   3.861   2.938   2.745 -0.5289  0.2274 -0.6933
 7010SOL     OW22703   9.540   4.621   0.422  0.2250 -0.2601 -0.1553
 7010SOL    HW122704   9.635   4.623   0.409  0.2870 -0.4983  0.2460
 7010SOL    HW222705   9.521   4.531   0.450  0.0661  0.1326  1.0890
 7011SOL     OW22706   9.518   4.209   7.774  0.2689  0.3040  0.4197
 7011SOL    HW122707   9.479   4.245   7.854  1.1053  0.5114  0.7436
 7011SOL    HW222708   9.581   4.144   7.805 -0.3617 -0.5877 -0.1259
 7012SOL     OW22709   0.993   5.777   3.921  0.0273 -0.5893  0.5512
 7012SOL    HW122710   1.086   5.769   3.943  0.3692 -0.6171 -0.8357
 7012SOL    HW222711   0.956   5.826   3.995  1.5453  1.1916  0.2271
 7013SOL     OW22712   4.787   6.793   4.989 -0.2320 -0.2602  0.3810
 7013SOL    HW122713   4.783   6.803   5.084 -1.0437  2.9879  0.1237
 7013SOL    HW222714   4.835   6.870   4.958  0.3141 -1.3983 -1.8555
 7014SOL     OW22715   8.843   3.893   7.405 -0.2073 -0.1459 -0.0470
 7014SOL    HW122716   8.853   3.972   7.352 -0.3674  0.4407  0.7780
 7014SOL    HW222717   8.789   3.920   7.479  0.8691 -0.6596  0.9723
 7015SOL     OW22718   5.398   2.685   5.110 -0.2135 -0.2142  0.3495
 7015SOL    HW122719   5.321   2.716   5.157 -2.5742  0.0952 -3.2960
 7015SOL    HW222720   5.399   2.591   5.126 -2.0332 -0.3891 -0.2352
 7016SOL     OW22721   9.662   0.522   9.607 -0.6958  0.3871 -0.0538
 7016SOL    HW122722   9.601   0.494   9.675  0.8080  2.5553  2.3430
 7016SOL    HW222723   9.692   0.440   9.567 -1.7746 -0.9792  1.7805
 7017SOL     OW22724   0.862   3.007   9.313  0.3913  0.4921  0.0243
 7017SOL    HW122725   0.928   2.979   9.377  0.2101  0.3634  0.1560
 7017SOL    HW222726   0.852   2.932   9.254 -0.9327 -0.1811  1.0555
 7018SOL     OW22727   0.976   4.933   1.842  0.4298 -0.2839  0.2198
 7018SOL    HW122728   0.977   4.963   1.752  3.0701  1.0977  0.6097
 7018SOL    HW222729   0.908   4.985   1.885  1.6951  1.8121 -0.1951
 7019SOL     OW22730   9.363   4.714   2.675  0.3674  0.3480 -0.3969
 7019SOL    HW122731   9.419   4.791   2.677  1.9907 -0.7653  1.8357
 7019SOL    HW222732   9.411   4.651   2.621  0.7473 -0.2192  0.5790
 7020SOL     OW22733   5.493   7.220   5.849  0.0268  0.4293 -0.0816
 7020SOL    HW122734   5.529   7.301   5.884  0.2218  1.5231 -2.5667
 7020SOL    HW222735   5.422   7.248   5.792 -1.4227 -1.3488  0.7658
 7021SOL     OW22736   3.657   1.847   1.779 -0.3103 -0.7599  0.4261
 7021SOL    HW122737   3.729   1.860   1.718 -1.5515 -0.1194 -0.9910
 7021SOL    HW222738   3.684   1.774   1.835  2.3000  0.7999  1.3527
 7022SOL     OW22739   3.730   8.024   5.653  0.8493 -0.0099  0.4517
 7022SOL    HW122740   3.659   8.086   5.636  0.9209 -0.0175  0.1100
 7022SOL    HW222741   3.806   8.062   5.609  0.6904 -0.7645 -0.5199
 7023SOL     OW22742   5.784   4.230   5.864  0.4409 -0.0554  0.1625
 7023SOL    HW122743   5.855   4.223   5.927 -0.2716 -0.0107  0.9789
 7023SOL    HW222744   5.753   4.320   5.872  0.1093 -0.1527  0.0013
 7024SOL     OW22745   2.192   3.004   3.139 -0.1265 -0.4259 -0.1799
 7024SOL    HW122746   2.098   3.014   3.155 -0.3147  0.7851 -1.8058
 7024SOL    HW222747   2.230   2.990   3.226 -1.6278  0.6685  0.6838
 7025SOL     OW22748   7.463   3.627   3.243  0.3864  0.4477 -1.3462
 7025SOL    HW122749   7.464   3.722   3.252 -0.4725  0.3376  0.1134
 7025SOL    HW222750   7.522   3.596   3.311 -2.7340 -0.2160  1.2637
 7026SOL     OW22751   4.917   1.955   6.609 -0.0663 -0.7170  0.4833
 7026SOL    HW122752   4.897   1.920   6.695 -1.7079  2.2291  1.4224
 7026SOL    HW222753   5.013   1.958   6.606  0.0518  1.1812  3.1908
 7027SOL     OW22754   7.634   4.182   1.698  0.6408 -0.2959  0.3856
 7027SOL    HW122755   7.681   4.189   1.781 -0.7034 -0.1547  1.1700
 7027SOL    HW222756   7.550   4.141   1.721 -0.7746  1.9326 -0.4461
 7028SOL     OW22757   2.552   2.271   3.011  0.2191 -0.3211  0.1309
 7028SOL    HW122758   2.494   2.345   2.993  0.8776 -0.0627 -1.0873
 7028SOL    HW222759   2.588   2.289   3.098 -1.3188 -0.3712  0.8038
 7029SOL     OW22760   2.984   2.251   2.788  0.1994 -0.3890 -0.1791
 7029SOL    HW122761   2.938   2.230   2.870  2.1005 -2.3280  0.4736
 7029SOL    HW222762   2.939   2.198   2.722 -0.1341 -0.2770 -0.0468
 7030SOL     OW22763   1.373   1.522   2.273  0.3146  0.3489  0.0819
 7030SOL    HW122764   1.336   1.563   2.194  0.4268  0.8616  0.2874
 7030SOL    HW222765   1.464   1.550   2.274  0.1098  1.0507  0.8323
 7031SOL     OW22766   8.137   6.509   4.703 -0.1737 -0.6067 -0.0593
 7031SOL    HW122767   8.214   6.472   4.660 -0.3042  1.7620 -2.6023
 7031SOL    HW222768   8.062   6.469   4.659 -0.3226  0.3793 -0.7447
 7032SOL     OW22769   8.623   6.277   6.690  0.6399  0.6266 -0.2023
 7032SOL    HW122770   8.579   6.303   6.609 -0.9090 -1.0112  0.0738
 7032SOL    HW222771   8.592   6.340   6.755 -0.3983  0.2063 -0.2741
 7033SOL     OW22772   2.282   3.928   6.062  0.1833 -0.2509 -0.1423
 7033SOL    HW122773   2.269   3.835   6.081  1.3319 -0.2833  0.5974
 7033SOL    HW222774   2.239   3.942   5.978  1.1109 -1.7493 -0.8988
 7034SOL     OW22775   2.110   3.165   9.331  0.1816  0.0228  0.0373
 7034SOL    HW122776   2.100   3.159   9.426  1.1446 -0.0166  0.1479
 7034SOL    HW222777   2.204   3.158   9.316 -0.0405 -1.0977 -1.0080
 7035SOL     OW22778   0.978   0.997   6.294  0.3948 -0.2768  0.0713
 7035SOL    HW122779   0.975   1.082   6.338  0.2619 -0.8943  1.3008
 7035SOL    HW222780   1.058   1.000   6.242  0.0482  0.8430 -0.4182
 7036SOL     OW22781   0.503   8.960   6.647 -0.6811 -0.1555 -0.0771
 7036SOL    HW122782   0.452   9.035   6.618  0.2493  1.2311  1.6960
 7036SOL    HW222783   0.592   8.994   6.656 -0.0594 -1.7143 -0.0693
 7037SOL     OW22784   2.043   8.316   7.556 -0.7148  0.1337  0.6627
 7037SOL    HW122785   2.053   8.260   7.479  0.2206  0.7443  0.3241
 7037SOL    HW222786   1.963   8.284   7.599 -1.0410 -0.4491 -0.3534
 7038SOL     OW22787   2.112   1.339   0.375  0.2796 -0.2584 -0.4755
 7038SOL    HW122788   2.049   1.278   0.414  1.8472 -0.4183  2.0283
 7038SOL    HW222789   2.059   1.415   0.350 -0.7937  0.5903  3.5976
 7039SOL     OW22790   6.742   6.454   8.293 -0.3650 -0.1436 -0.4491
 7039SOL    HW122791   6.673   6.445   8.359  1.0419 -0.1126  1.0972
 7039SOL    HW222792   6.785   6.369   8.291  0.0786  0.0835 -0.7722
 7040SOL     OW22793   5.085   0.981   6.370  0.1863 -0.3619 -0.1271
 7040SOL    HW122794   5.016   1.038   6.405 -0.5656  1.4344 -3.9494
 7040SOL    HW222795   5.040   0.899   6.349 -0.1363 -0.2153 -0.0255
 7041SOL     OW22796   2.466   9.449   7.392  0.0412  0.0171 -0.4331
 7041SOL    HW122797   2.387   9.441   7.446 -0.1952  0.1295 -0.7642
 7041SOL    HW222798   2.445   9.516   7.327  1.3219  2.0621  1.1177
 7042SOL     OW22799   2.530   6.599   7.771  0.2615  0.2151 -0.4156
 7042SOL    HW122800   2.531   6.512   7.730  2.0784 -0.9795  1.9317
 7042SOL    HW222801   2.584   6.653   7.712  1.7321 -1.1008 -0.3480
 7043SOL     OW22802   6.064   5.657   2.618 -0.1329 -0.1110 -0.5818
 7043SOL    HW122803   6.148   5.618   2.594  0.2960  0.7731 -0.5209
 7043SOL    HW222804   6.001   5.613   2.560  0.0018 -2.4415  0.9408
 7044SOL     OW22805   5.494   2.440   0.323  0.4934 -0.0413 -0.4139
 7044SOL    HW122806   5.430   2.511   0.312  0.3014 -0.0752  0.4680
 7044SOL    HW222807   5.461   2.370   0.267 -0.1694 -0.0099 -0.0656
 7045SOL     OW22808   3.185   5.139   4.537 -0.5373 -0.3897 -0.5052
 7045SOL    HW122809   3.180   5.051   4.574 -0.8951 -0.7284 -1.3371
 7045SOL    HW222810   3.101   5.151   4.492  0.1625 -0.2829 -1.8252
 7046SOL     OW22811   3.991   4.722   7.309 -0.1080  0.6427 -0.1934
 7046SOL    HW122812   4.025   4.650   7.362 -3.3104  0.9154  2.5494
 7046SOL    HW222813   3.919   4.683   7.259 -0.7398  1.5533 -0.0210
 7047SOL     OW22814   2.012   5.695   8.344  0.7968  0.1997  0.3008
 7047SOL    HW122815   1.942   5.630   8.347  1.8911 -1.1094 -1.1284
 7047SOL    HW222816   1.982   5.759   8.280 -0.5105  1.4693  2.0736
 7048SOL     OW22817   3.033   8.271   6.370 -0.0875  0.2369  0.1889
 7048SOL    HW122818   3.019   8.269   6.464 -0.2134  0.5101  0.1796
 7048SOL    HW222819   2.957   8.226   6.333  0.0838 -0.0865  0.2275
 7049SOL     OW22820   0.660   5.208   5.374 -0.0496 -0.3704 -0.4611
 7049SOL    HW122821   0.571   5.242   5.364 -0.9230 -2.2049  0.5056
 7049SOL    HW222822   0.688   5.189   5.285 -0.5658  0.3393 -0.7924
 7050SOL     OW22823   3.049   7.655   5.618 -0.4390 -0.2124 -0.3944
 7050SOL    HW122824   3.092   7.613   5.543 -0.0119 -0.5684  0.0501
 7050SOL    HW222825   2.958   7.668   5.589  0.0203  0.8681 -1.4792
 7051SOL     OW22826   0.944   0.765   6.418 -0.7749 -0.0068  0.3174
 7051SOL    HW122827   0.930   0.690   6.361  1.1871 -0.9661  0.9722
 7051SOL    HW222828   0.965   0.837   6.359 -3.0529  0.1993 -0.3429
 7052SOL     OW22829   0.272   0.471   2.314  0.4179  0.7441  0.0473
 7052SOL    HW122830   0.304   0.397   2.263  2.5980  1.8119 -0.2382
 7052SOL    HW222831   0.293   0.448   2.405 -0.2560  0.4042  0.1295
 7053SOL     OW22832   4.371   7.490   4.652  0.5550  0.7391 -0.1407
 7053SOL    HW122833   4.395   7.551   4.721 -1.0336  0.7307  0.4500
 7053SOL    HW222834   4.393   7.536   4.571  0.9575  1.3839  0.3227
 7054SOL     OW22835   3.159   5.828   7.344 -0.2119  0.1894 -0.8962
 7054SOL    HW122836   3.162   5.886   7.268  1.6504  1.6785  0.2301
 7054SOL    HW222837   3.146   5.887   7.418 -2.0740 -1.2410 -0.0094
 7055SOL     OW22838   7.292   8.936   1.858 -0.1107  0.1960 -0.7075
 7055SOL    HW122839   7.302   8.899   1.946  1.4241 -0.2617 -1.0452
 7055SOL    HW222840   7.342   8.877   1.802  2.2512  2.5728 -1.3097
 7056SOL     OW22841   7.570   3.916   6.339 -0.4361 -0.3986 -0.4879
 7056SOL    HW122842   7.611   3.831   6.353  1.1792  0.7108  2.6137
 7056SOL    HW222843   7.502   3.921   6.406  1.1826  1.5766  1.1815
 7057SOL     OW22844   2.850   9.367   9.585  0.3247 -0.9547 -0.5912
 7057SOL    HW122845   2.930   9.324   9.555  0.4182 -0.3076 -1.3165
 7057SOL    HW222846   2.880   9.432   9.649  0.4759 -0.2532 -1.3477
 7058SOL     OW22847   4.182   6.967   7.159 -0.7642  0.1692  0.3724
 7058SOL    HW122848   4.192   7.058   7.130  1.0631 -0.5803 -1.5781
 7058SOL    HW222849   4.150   6.920   7.082 -0.8879 -0.9942  1.1023
 7059SOL     OW22850   0.773   1.450   6.306  0.4422  0.1206 -0.1521
 7059SOL    HW122851   0.698   1.416   6.355  0.5586  0.9387  0.6171
 7059SOL    HW222852   0.734   1.502   6.236  0.2606 -1.5457 -1.3520
 7060SOL     OW22853   0.129   5.927   7.578 -0.1217  0.3716  0.0395
 7060SOL    HW122854   0.070   5.907   7.650 -1.6901 -0.3837 -1.3807
 7060SOL    HW222855   0.199   5.862   7.585 -1.2111 -0.8459 -0.1529
 7061SOL     OW22856   5.004   3.967   4.795 -0.0050  0.1907  0.0926
 7061SOL    HW122857   5.089   3.948   4.756  0.1605  0.2180  0.4384
 7061SOL    HW222858   5.011   4.056   4.828  0.1530 -0.1406  0.9709
 7062SOL     OW22859   3.277   7.947   9.450  0.0669 -0.4505  0.9029
 7062SOL    HW122860   3.319   7.867   9.420 -1.6400 -0.3921 -2.0442
 7062SOL    HW222861   3.231   7.922   9.530  2.6807 -1.3563  2.2255
 7063SOL     OW22862   8.626   2.720   1.408  0.4326  0.1588 -0.2484
 7063SOL    HW122863   8.662   2.747   1.493 -0.9358 -0.2454  0.4827
 7063SOL    HW222864   8.543   2.767   1.401  0.0647 -0.5705 -0.9203
 7064SOL     OW22865   9.179   8.621   6.146  0.0591 -0.2555  0.0674
 7064SOL    HW122866   9.225   8.554   6.096  1.6464  1.2890 -0.6737
 7064SOL    HW222867   9.242   8.649   6.212 -0.2726  0.9944 -0.1179
 7065SOL     OW22868   7.497   7.509   0.229  0.0661  0.4582 -0.4752
 7065SOL    HW122869   7.406   7.539   0.226 -0.4473 -0.9915 -0.0383
 7065SOL    HW222870   7.534   7.551   0.307 -0.2740  0.8934 -0.5460
 7066SOL     OW22871   7.275   8.361   9.111  0.0914 -0.1852  0.4996
 7066SOL    HW122872   7.252   8.300   9.042  0.3191  1.1162 -0.7770
 7066SOL    HW222873   7.192   8.399   9.139  0.1181  0.3748 -0.1403
 7067SOL     OW22874   5.498   1.405   7.718 -0.3130  0.1331 -0.0964
 7067SOL    HW122875   5.593   1.416   7.718 -0.3516  0.8523  2.1483
 7067SOL    HW222876   5.465   1.478   7.665  0.3343  0.2054 -0.4102
 7068SOL     OW22877   6.999   9.396   7.175 -0.2294 -0.1392  0.7631
 7068SOL    HW122878   7.020   9.427   7.263 -0.7515 -2.1066  1.6461
 7068SOL    HW222879   7.075   9.343   7.149 -1.3288 -2.1243  1.3752
 7069SOL     OW22880   4.769   6.989   2.441 -0.2049  0.3715 -0.0092
 7069SOL    HW122881   4.730   6.955   2.521 -2.0074  1.6005 -0.3236
 7069SOL    HW222882   4.696   7.004   2.381  0.8115  1.8453 -0.9813
 7070SOL     OW22883   6.382   9.023   8.765  0.3295  0.0672  0.0646
 7070SOL    HW122884   6.299   8.979   8.784  0.1854  0.9700  1.6861
 7070SOL    HW222885   6.362   9.082   8.693 -0.0012 -0.9230 -0.6827
 7071SOL     OW22886   0.629   3.638   3.376  0.8781 -0.2509  0.1634
 7071SOL    HW122887   0.588   3.719   3.405 -1.1222 -0.7815 -1.0198
 7071SOL    HW222888   0.678   3.662   3.297 -0.7796 -0.3913 -0.9414
 7072SOL     OW22889   3.402   3.892   8.233  0.7601  0.2174 -0.0500
 7072SOL    HW122890   3.401   3.973   8.182 -0.6899  1.6561  2.0806
 7072SOL    HW222891   3.316   3.852   8.215  0.6195  0.2554  0.5203
 7073SOL     OW22892   7.264   4.988   1.994 -0.6634  0.3053 -0.3817
 7073SOL    HW122893   7.259   4.964   2.087 -3.0628  0.1771 -0.4868
 7073SOL    HW222894   7.175   5.016   1.972  0.4334  2.9415 -1.9776
 7074SOL     OW22895   4.861   6.752   4.378  0.3880  0.4522 -0.3726
 7074SOL    HW122896   4.828   6.667   4.408  1.1685 -0.6300 -2.3655
 7074SOL    HW222897   4.953   6.752   4.405  0.2952  0.8354 -0.0551
 7075SOL     OW22898   3.996   5.645   1.327 -0.0676  0.2853 -0.2919
 7075SOL    HW122899   4.006   5.740   1.330  0.1759  0.2537  0.0484
 7075SOL    HW222900   3.914   5.628   1.374  1.0410  0.1757  1.7039
 7076SOL     OW22901   1.702   1.327   4.986  0.5215 -0.0078  0.0998
 7076SOL    HW122902   1.608   1.343   4.982  0.6399  0.7635  0.1735
 7076SOL    HW222903   1.739   1.411   5.016  1.2100 -0.3615  0.2538
 7077SOL     OW22904   3.383   3.051   2.852 -0.2327 -0.1223 -0.6567
 7077SOL    HW122905   3.459   3.066   2.907  0.3677  0.8446 -1.7096
 7077SOL    HW222906   3.348   3.138   2.834 -0.5564 -0.4219 -1.5843
 7078SOL     OW22907   7.915   7.343   0.199  0.2521 -0.4513  0.4396
 7078SOL    HW122908   7.908   7.259   0.244 -3.5034  0.1011  1.2565
 7078SOL    HW222909   7.909   7.408   0.269 -2.0209  0.4134 -0.4450
 7079SOL     OW22910   7.504   7.909   6.535  0.1646 -0.4161  0.6485
 7079SOL    HW122911   7.482   7.953   6.617 -2.9307 -2.2591  0.9976
 7079SOL    HW222912   7.419   7.894   6.493  1.1880 -3.6287 -0.6343
 7080SOL     OW22913   4.520   1.115   8.396  0.3940  0.5747  0.3646
 7080SOL    HW122914   4.444   1.075   8.438  0.5255 -0.5099 -0.3894
 7080SOL    HW222915   4.595   1.082   8.446  0.4453  0.6369  0.3290
 7081SOL     OW22916   7.051   8.097   5.795  0.2798 -0.0916  0.2111
 7081SOL    HW122917   7.071   8.102   5.888  0.2790 -2.6333  0.4294
 7081SOL    HW222918   7.126   8.049   5.758 -0.5017 -0.5727 -0.7822
 7082SOL     OW22919   2.850   2.549   5.938 -0.2405 -0.2851  0.3603
 7082SOL    HW122920   2.823   2.498   5.862 -2.1790  1.0587  0.0774
 7082SOL    HW222921   2.778   2.541   6.000  0.0231  0.9285  0.8628
 7083SOL     OW22922   2.945   8.401   7.263 -0.0183  0.1392 -0.1279
 7083SOL    HW122923   3.005   8.329   7.284  1.2342  1.6082  1.7025
 7083SOL    HW222924   3.003   8.475   7.243 -1.2177  1.3404  0.6629
 7084SOL     OW22925   1.293   6.816   8.136 -0.3761 -0.0592 -0.1790
 7084SOL    HW122926   1.246   6.733   8.135  1.3227 -1.2024  2.8468
 7084SOL    HW222927   1.237   6.874   8.188 -0.7098  0.1686 -0.7760
 7085SOL     OW22928   5.919   9.124   5.096  0.2518 -0.3971  0.5992
 7085SOL    HW122929   5.927   9.106   5.002 -2.4894  1.9339 -0.2018
 7085SOL    HW222930   5.986   9.189   5.115  1.1349 -1.2300  0.4295
 7086SOL     OW22931   4.317   7.453   6.205 -0.1378 -0.2838  0.1413
 7086SOL    HW122932   4.273   7.369   6.218  0.7740 -0.6338  1.1151
 7086SOL    HW222933   4.267   7.515   6.257 -0.3108 -0.3962  0.1085
 7087SOL     OW22934   8.335   8.081   6.069 -0.3015  0.0374 -0.1134
 7087SOL    HW122935   8.269   8.140   6.105 -0.7686 -0.8166  0.4686
 7087SOL    HW222936   8.365   8.030   6.144 -0.8000 -1.3118 -0.7942
 7088SOL     OW22937   2.276   6.510   8.182  0.3911 -0.2621 -0.9576
 7088SOL    HW122938   2.334   6.538   8.111  2.1846 -1.8283 -0.1923
 7088SOL    HW222939   2.289   6.416   8.189  2.1120  0.0594  2.9040
 7089SOL     OW22940   7.510   2.504   7.412  0.3626 -1.1560  0.1384
 7089SOL    HW122941   7.507   2.522   7.506  1.3790 -1.5618  0.2586
 7089SOL    HW222942   7.440   2.441   7.398  0.0078 -0.8656  0.5700
 7090SOL     OW22943   1.710   1.853   6.370  0.1468  0.3304  0.7584
 7090SOL    HW122944   1.774   1.848   6.442  1.1786  0.0585 -0.1412
 7090SOL    HW222945   1.669   1.938   6.381 -0.4150 -0.1003  2.2334
 7091SOL     OW22946   5.780   0.212   4.640  0.4020 -0.2647 -0.6139
 7091SOL    HW122947   5.836   0.245   4.710 -0.6004  0.5103 -0.1416
 7091SOL    HW222948   5.696   0.193   4.683  0.2664 -1.3191 -1.3147
 7092SOL     OW22949   1.182   4.307   6.387 -0.1790 -0.0554  0.2927
 7092SOL    HW122950   1.227   4.344   6.311 -1.0550  0.8435  0.1836
 7092SOL    HW222951   1.094   4.287   6.355  0.1272 -1.8768  0.4715
 7093SOL     OW22952   8.342   3.963   6.039 -0.1017 -0.5877 -0.3045
 7093SOL    HW122953   8.356   3.888   6.097 -1.6733 -0.1242  0.7574
 7093SOL    HW222954   8.322   3.924   5.954 -2.4664 -1.5163  0.5847
 7094SOL     OW22955   2.991   2.997   4.484 -0.5325 -0.2212 -0.1472
 7094SOL    HW122956   3.039   2.957   4.410 -0.0743 -2.9696  1.4856
 7094SOL    HW222957   2.924   2.932   4.506 -1.0798  0.8402  1.4418
 7095SOL     OW22958   8.498   6.584   9.322  0.2817  0.0618 -0.8884
 7095SOL    HW122959   8.581   6.538   9.306  0.3886  0.5186 -1.7281
 7095SOL    HW222960   8.436   6.543   9.262 -0.5083 -1.3084  0.8059
 7096SOL     OW22961   5.531   7.141   6.333 -0.2366 -0.1386  0.0767
 7096SOL    HW122962   5.594   7.150   6.405  1.7491 -0.8565 -1.4663
 7096SOL    HW222963   5.583   7.155   6.254 -2.0809 -0.5613 -1.2847
 7097SOL     OW22964   5.430   2.742   0.116  0.0318  0.1114  0.4060
 7097SOL    HW122965   5.359   2.788   0.072  0.3600  1.0215  0.7917
 7097SOL    HW222966   5.388   2.668   0.160 -0.6209  0.4525  0.3585
 7098SOL     OW22967   0.372   2.429   1.167 -0.2313  0.4523 -0.3794
 7098SOL    HW122968   0.390   2.487   1.241  0.7740 -0.5602  0.1971
 7098SOL    HW222969   0.455   2.383   1.152 -0.7741 -0.2515 -1.3507
 7099SOL     OW22970   2.632   2.499   5.428 -0.0222 -0.0435  0.2168
 7099SOL    HW122971   2.619   2.528   5.519 -0.1120 -2.1311  0.9262
 7099SOL    HW222972   2.711   2.544   5.399 -0.4455  1.2710  1.0512
 7100SOL     OW22973   3.197   6.136   2.082 -0.0751 -0.1761  0.7673
 7100SOL    HW122974   3.122   6.160   2.026 -0.5803  1.6170  2.1198
 7100SOL    HW222975   3.266   6.197   2.057  0.2811 -0.5287  0.8845
 7101SOL     OW22976   3.424   4.162   4.447  0.0508  0.2989  0.0929
 7101SOL    HW122977   3.429   4.155   4.542  0.9141  0.3384  0.0629
 7101SOL    HW222978   3.331   4.151   4.427 -0.2987  1.3098  1.0130
 7102SOL     OW22979   2.437   7.808   5.798  0.4940 -0.5808  0.4468
 7102SOL    HW122980   2.456   7.855   5.716 -0.3691  1.3504  1.2805
 7102SOL    HW222981   2.352   7.767   5.782  0.8263 -1.1093  0.0169
 7103SOL     OW22982   5.559   7.919   9.672 -0.3030 -0.0546  0.3658
 7103SOL    HW122983   5.654   7.914   9.657  0.0540  3.0183  1.1043
 7103SOL    HW222984   5.526   7.972   9.600 -1.3629 -0.3395  0.6210
 7104SOL     OW22985   0.626   4.917   8.459  0.0132  0.0203  0.0145
 7104SOL    HW122986   0.642   5.012   8.459  0.2514  0.0305 -2.5011
 7104SOL    HW222987   0.710   4.878   8.436 -0.4943 -0.7046 -0.6390
 7105SOL     OW22988   6.389   7.466   3.363  0.2023  0.6651  0.1013
 7105SOL    HW122989   6.441   7.439   3.438  0.6704 -0.8962 -0.7563
 7105SOL    HW222990   6.365   7.385   3.319 -3.1414  1.2648  0.5356
 7106SOL     OW22991   0.783   4.096   3.377  0.9383 -0.0639 -0.3493
 7106SOL    HW122992   0.865   4.145   3.364  0.6674  0.1078 -1.5122
 7106SOL    HW222993   0.735   4.147   3.442  1.5483  0.0998 -0.0167
 7107SOL     OW22994   0.572   1.029   1.213  0.2170  0.2629  0.1009
 7107SOL    HW122995   0.513   1.098   1.243 -0.0488 -0.2650  0.8279
 7107SOL    HW222996   0.531   0.995   1.134 -0.8592 -0.6032  1.0072
 7108SOL     OW22997   9.100   8.776   8.296  0.4487  0.1588  0.4368
 7108SOL    HW122998   9.026   8.747   8.242  0.7525  0.4342 -0.1339
 7108SOL    HW222999   9.078   8.866   8.321 -0.2851 -0.3833  1.8362
 7109SOL     OW23000   3.317   9.019   6.506  0.6611  0.2843 -0.5967
 7109SOL    HW123001   3.265   9.049   6.432  0.1488 -0.2481 -0.4671
 7109SOL    HW223002   3.386   8.965   6.468 -0.4091 -1.1453 -0.6364
 7110SOL     OW23003   7.940   6.932   6.807  0.9259  0.1181  0.7141
 7110SOL    HW123004   7.914   6.841   6.793  0.0861  0.6518 -1.8578
 7110SOL    HW223005   7.941   6.943   6.902  1.2636 -2.6065  1.0957
 7111SOL     OW23006   3.773   8.526   0.184  0.3680 -0.1334 -0.5358
 7111SOL    HW123007   3.712   8.596   0.158 -0.9514 -1.2033 -0.4367
 7111SOL    HW223008   3.720   8.468   0.239  2.0340 -0.0417  1.2432
 7112SOL     OW23009   2.379   8.596   4.543 -0.0674 -0.3109  0.0683
 7112SOL    HW123010   2.447   8.565   4.483 -0.3138 -1.3656  0.3331
 7112SOL    HW223011   2.424   8.610   4.626 -0.2682 -1.5482  0.3990
 7113SOL     OW23012   6.670   2.175   5.499 -0.9553 -0.3856 -0.0711
 7113SOL    HW123013   6.577   2.152   5.505 -1.6401  1.7291 -1.5714
 7113SOL    HW223014   6.710   2.099   5.457 -2.4452 -0.4013 -1.5428
 7114SOL     OW23015   0.567   8.462   6.302  0.1672  0.1018  0.0704
 7114SOL    HW123016   0.619   8.454   6.383 -3.0446 -2.6207  2.1745
 7114SOL    HW223017   0.591   8.547   6.266  2.7330  0.9166  3.1868
 7115SOL     OW23018   1.413   4.692   6.874  0.1724  0.7027  0.1238
 7115SOL    HW123019   1.469   4.741   6.813  0.4401  0.6602  0.3316
 7115SOL    HW223020   1.324   4.715   6.848  0.2884  0.9348 -0.0808
 7116SOL     OW23021   6.769   3.028   2.303  0.5213 -0.0647  0.0528
 7116SOL    HW123022   6.834   3.037   2.372  0.7899 -0.5157 -0.1356
 7116SOL    HW223023   6.821   3.014   2.223  0.1893 -1.5384  0.0668
 7117SOL     OW23024   3.416   0.769   4.877  0.1138 -0.1832  0.3621
 7117SOL    HW123025   3.488   0.793   4.818 -0.5623  0.2564 -0.3148
 7117SOL    HW223026   3.418   0.673   4.879  0.8150 -0.1755  0.4855
 7118SOL     OW23027   2.149   5.670   3.776  0.0810  0.0817  0.5872
 7118SOL    HW123028   2.087   5.621   3.722  0.3667 -0.2992  0.6042
 7118SOL    HW223029   2.123   5.761   3.765 -0.8827 -0.1151  1.0930
 7119SOL     OW23030   2.617   4.622   7.916 -0.5838 -0.0441 -0.3394
 7119SOL    HW123031   2.563   4.650   7.842  2.1182 -2.7635 -3.7264
 7119SOL    HW223032   2.683   4.690   7.925 -2.2880  1.5033  1.4070
 7120SOL     OW23033   1.719   5.355   7.379 -0.8020  1.1428 -0.8042
 7120SOL    HW123034   1.651   5.409   7.420 -1.1954 -0.7664  1.2269
 7120SOL    HW223035   1.801   5.392   7.410 -1.0537  0.8596  0.2161
 7121SOL     OW23036   2.717   4.765   8.780 -0.1039  0.2513  0.1189
 7121SOL    HW123037   2.639   4.713   8.801  0.1335  0.1886  0.8628
 7121SOL    HW223038   2.789   4.702   8.778  0.2054  0.5562  1.1489
 7122SOL     OW23039   2.085   1.651   1.942 -0.0567 -0.5061 -0.2217
 7122SOL    HW123040   2.003   1.701   1.938  0.3008  0.0125 -1.6995
 7122SOL    HW223041   2.063   1.573   1.993 -1.3819 -0.2042 -0.2880
 7123SOL     OW23042   8.801   1.514   1.824  0.0782  0.0061  0.2339
 7123SOL    HW123043   8.724   1.459   1.810 -1.1741  1.9328 -0.8603
 7123SOL    HW223044   8.769   1.589   1.874  1.6363 -0.0011  1.3178
 7124SOL     OW23045   7.200   0.800   1.332  0.5974  0.2460  0.2145
 7124SOL    HW123046   7.123   0.761   1.374  1.3697  0.5992  2.0412
 7124SOL    HW223047   7.169   0.823   1.245 -0.4447 -2.5487 -0.2612
 7125SOL     OW23048   1.367   6.581   4.896  0.7830  0.0376 -0.0800
 7125SOL    HW123049   1.280   6.542   4.885  1.2315 -0.8001 -0.8122
 7125SOL    HW223050   1.353   6.675   4.888  0.0217 -0.1219 -0.7573
 7126SOL     OW23051   0.585   5.796   8.576 -0.2713 -0.4581  0.3229
 7126SOL    HW123052   0.584   5.700   8.579  0.2424 -0.4637  0.3519
 7126SOL    HW223053   0.512   5.822   8.633 -0.8692 -0.8389 -0.2596
 7127SOL     OW23054   6.424   9.370   4.221  0.2005 -0.0442  0.0205
 7127SOL    HW123055   6.484   9.426   4.270  1.2970 -0.5326 -0.7266
 7127SOL    HW223056   6.362   9.431   4.180  0.2536  0.4737  0.6944
 7128SOL     OW23057   4.013   0.928   9.596  0.7753 -0.2114 -0.8770
 7128SOL    HW123058   4.072   0.877   9.541  0.4549 -2.5685  0.8263
 7128SOL    HW223059   4.071   0.985   9.647  1.3415 -0.4411 -1.2548
 7129SOL     OW23060   2.175   1.089   2.830 -0.5008 -0.5236  0.9129
 7129SOL    HW123061   2.233   1.068   2.757 -1.3123 -0.4967  0.2515
 7129SOL    HW223062   2.107   1.022   2.828 -1.3321  0.3082  0.7522
 7130SOL     OW23063   5.219   4.197   3.766  0.3930 -0.0671  0.1215
 7130SOL    HW123064   5.207   4.135   3.838  0.1711 -0.8723 -0.5939
 7130SOL    HW223065   5.295   4.162   3.718 -0.3375 -0.3552 -0.8528
 7131SOL     OW23066   4.917   9.625   1.075 -0.4005  0.0881 -0.4996
 7131SOL    HW123067   4.824   9.606   1.077 -0.4007  0.1313  0.4933
 7131SOL    HW223068   4.924   9.713   1.111  0.0881 -0.2370  0.2283
 7132SOL     OW23069   7.913   3.862   3.929 -0.0238 -0.1317  0.0693
 7132SOL    HW123070   7.835   3.812   3.905  1.1624 -1.7131 -0.6846
 7132SOL    HW223071   7.925   3.845   4.023 -1.5608  1.6062  0.6423
 7133SOL     OW23072   3.853   0.294   5.250  0.5310  0.2021 -0.4152
 7133SOL    HW123073   3.809   0.269   5.169 -0.8271 -0.0181  0.3661
 7133SOL    HW223074   3.925   0.350   5.222 -1.3823  2.2013 -1.6457
 7134SOL     OW23075   6.020   4.217   1.184 -0.0145  0.1454 -0.1451
 7134SOL    HW123076   6.019   4.270   1.263 -1.0572  2.5286 -1.6500
 7134SOL    HW223077   6.111   4.220   1.154  0.0599  0.5499  0.1116
 7135SOL     OW23078   2.988   3.398   4.668 -0.4439 -0.0811 -0.1222
 7135SOL    HW123079   2.897   3.389   4.696 -0.2584 -1.3713  0.0832
 7135SOL    HW223080   3.002   3.493   4.666 -1.2382  0.1065  1.6309
 7136SOL     OW23081   2.235   5.555   3.983  0.6377  0.0093 -0.4346
 7136SOL    HW123082   2.318   5.513   3.960  1.0627  0.9423 -0.6901
 7136SOL    HW223083   2.208   5.601   3.904 -0.1666 -0.3362 -0.3710
 7137SOL     OW23084   5.790   7.703   8.983 -0.1139 -0.2461 -0.6324
 7137SOL    HW123085   5.872   7.653   8.981 -0.3787 -0.6801 -0.6691
 7137SOL    HW223086   5.818   7.794   8.978  0.4199 -0.3478  0.1739
 7138SOL     OW23087   8.875   6.497   2.733  0.2578  0.3326  0.4784
 7138SOL    HW123088   8.832   6.412   2.743 -0.3997  0.6746  0.6095
 7138SOL    HW223089   8.824   6.542   2.666  1.9141 -0.2003 -1.2253
 7139SOL     OW23090   7.660   0.954   9.120 -0.1068 -0.6241 -0.1502
 7139SOL    HW123091   7.614   0.888   9.172 -0.3361 -0.1498  0.2521
 7139SOL    HW223092   7.633   1.038   9.157  0.6361 -0.3208 -0.2813
 7140SOL     OW23093   2.861   9.028   5.139  0.2083  0.3019  0.2833
 7140SOL    HW123094   2.914   8.986   5.071  1.2387 -0.4776  1.5270
 7140SOL    HW223095   2.905   9.006   5.221 -1.5004  0.4689  1.2887
 7141SOL     OW23096   7.903   3.886   7.887  0.0687  0.4120 -0.1712
 7141SOL    HW123097   7.920   3.907   7.979 -0.8299  0.3190  0.0235
 7141SOL    HW223098   7.852   3.960   7.854 -1.5551 -0.5626  0.0306
 7142SOL     OW23099   5.716   4.852   2.801 -0.3720  0.0528 -0.2391
 7142SOL    HW123100   5.702   4.944   2.780 -3.3555 -0.2374  0.1064
 7142SOL    HW223101   5.764   4.854   2.884  0.3516  1.2588 -0.6586
 7143SOL     OW23102   4.755   1.239   6.900  0.0872 -0.2247  0.2265
 7143SOL    HW123103   4.826   1.282   6.948  0.7151 -0.5215 -0.4019
 7143SOL    HW223104   4.791   1.153   6.877 -1.2902 -1.3050  1.8388
 7144SOL     OW23105   4.897   2.141   5.776  0.5929 -0.5852 -0.1048
 7144SOL    HW123106   4.826   2.110   5.832  1.0245  0.6453  1.1854
 7144SOL    HW223107   4.949   2.063   5.757 -0.8375 -1.4241 -0.7167
 7145SOL     OW23108   7.373   6.316   1.601 -0.3733 -0.5586 -0.7031
 7145SOL    HW123109   7.387   6.231   1.559  1.1932 -0.8543  0.3499
 7145SOL    HW223110   7.425   6.378   1.549 -1.7502 -0.1405 -1.6526
 7146SOL     OW23111   6.095   7.932   4.935  0.1012  0.2244  0.0647
 7146SOL    HW123112   6.082   8.006   4.994  0.0975 -1.0951  1.8161
 7146SOL    HW223113   6.190   7.921   4.930  0.0842 -0.5797  1.0945
 7147SOL     OW23114   1.517   0.948   7.089  0.1461  0.0071  0.0752
 7147SOL    HW123115   1.600   0.985   7.061  0.0803  0.5980  0.6401
 7147SOL    HW223116   1.490   0.891   7.017  0.9193 -0.0058 -0.2073
 7148SOL     OW23117   2.144   3.779   8.919 -0.1845  0.4314  0.1319
 7148SOL    HW123118   2.066   3.834   8.924  0.8457  1.8505  2.9064
 7148SOL    HW223119   2.190   3.794   9.002  1.5553 -2.6273 -0.0972
 7149SOL     OW23120   2.410   2.251   2.062  0.2072 -0.3778  0.3361
 7149SOL    HW123121   2.422   2.335   2.106  0.3991  0.6469 -1.5417
 7149SOL    HW223122   2.416   2.186   2.132 -0.3065  1.1789  1.8961
 7150SOL     OW23123   1.659   0.001   0.249 -0.7364  0.2527 -0.2906
 7150SOL    HW123124   1.583  -0.004   0.191 -0.9373  0.5531 -0.0579
 7150SOL    HW223125   1.712   0.073   0.214  0.8531 -1.6818 -2.1022
 7151SOL     OW23126   7.570   8.940   9.272 -0.0895 -0.2649  0.6754
 7151SOL    HW123127   7.542   8.878   9.339  0.2442 -2.0423 -0.7379
 7151SOL    HW223128   7.489   8.967   9.229 -0.1290 -0.8914  0.3446
 7152SOL     OW23129   3.405   1.626   9.586  0.4438 -0.6542 -0.6947
 7152SOL    HW123130   3.348   1.561   9.626  0.5105  0.0937  0.6753
 7152SOL    HW223131   3.346   1.698   9.561  0.5317 -0.7243 -1.1265
 7153SOL     OW23132   8.228   2.909   3.096  0.1995  0.0350 -0.0670
 7153SOL    HW123133   8.253   2.910   3.189 -0.6848  1.0749  0.1784
 7153SOL    HW223134   8.138   2.941   3.095 -0.8119 -2.6038 -1.0278
 7154SOL     OW23135   3.707   8.762   6.599  0.4113  0.1380 -0.7087
 7154SOL    HW123136   3.707   8.675   6.641  0.2338  0.8801  0.9157
 7154SOL    HW223137   3.673   8.821   6.667 -0.8620  1.2778 -2.2543
 7155SOL     OW23138   5.015   3.768   3.973 -0.2916  0.2350 -0.5698
 7155SOL    HW123139   5.031   3.855   3.936 -1.2605  0.6118 -0.1363
 7155SOL    HW223140   5.089   3.716   3.943  0.9881  1.5316  0.2147
 7156SOL     OW23141   8.752   0.606   4.031 -0.2225  0.3849 -0.5097
 7156SOL    HW123142   8.688   0.625   3.963 -0.4408 -1.3294 -0.8250
 7156SOL    HW223143   8.827   0.662   4.010 -0.1874 -0.2836 -2.3197
 7157SOL     OW23144   3.759   6.377   5.299  0.5628 -0.2360  0.2149
 7157SOL    HW123145   3.691   6.438   5.329  0.5502 -0.7489  1.2694
 7157SOL    HW223146   3.753   6.303   5.360 -0.1074 -1.7814 -1.6300
 7158SOL     OW23147   3.556   8.087   2.451  0.2350 -1.1630 -0.4854
 7158SOL    HW123148   3.613   8.010   2.448  3.0542  0.7605 -0.6175
 7158SOL    HW223149   3.560   8.124   2.363  2.7451  1.5382  0.5931
 7159SOL     OW23150   4.545   8.096   4.789 -0.1993 -0.1664 -0.2537
 7159SOL    HW123151   4.479   8.133   4.730  1.4710  0.7606 -1.6209
 7159SOL    HW223152   4.590   8.030   4.736  1.5296  0.8886 -0.1803
 7160SOL     OW23153   1.142   5.389   0.304 -0.3226 -0.3498  0.3258
 7160SOL    HW123154   1.125   5.481   0.324  1.1780 -0.1165  0.5816
 7160SOL    HW223155   1.135   5.345   0.389  1.0349 -0.1304  0.5730
 7161SOL     OW23156   5.920   6.955   7.134 -0.2593 -0.1506 -0.7999
 7161SOL    HW123157   5.876   6.897   7.072 -1.6782 -0.0493  0.0677
 7161SOL    HW223158   5.850   7.009   7.170  0.4961 -0.2614  0.9346
 7162SOL     OW23159   3.314   0.826   0.874 -0.5675 -0.2896  0.0148
 7162SOL    HW123160   3.410   0.826   0.878 -0.5940  0.6411  0.8875
 7162SOL    HW223161   3.294   0.769   0.800  0.7350  1.9472 -2.2201
 7163SOL     OW23162   1.335   5.094   1.279 -0.2364 -0.5721  0.1829
 7163SOL    HW123163   1.382   5.095   1.363 -1.1507 -2.5132  0.7642
 7163SOL    HW223164   1.375   5.024   1.229 -0.0296  0.2497 -0.8546
 7164SOL     OW23165   7.075   4.190   3.244  0.3291 -0.9025 -0.1166
 7164SOL    HW123166   7.009   4.252   3.212  0.1462 -1.6650 -1.3238
 7164SOL    HW223167   7.066   4.191   3.339 -0.6163 -0.1136 -0.1993
 7165SOL     OW23168   9.120   0.328   4.464 -0.2006 -0.5090  0.3372
 7165SOL    HW123169   9.200   0.317   4.412 -0.4339 -1.1029  0.0873
 7165SOL    HW223170   9.054   0.358   4.401 -0.0386  0.5234  0.6553
 7166SOL     OW23171   4.726   3.459   9.243 -0.7675  0.3122  0.7851
 7166SOL    HW123172   4.669   3.505   9.304 -1.0033 -0.5079  1.1896
 7166SOL    HW223173   4.687   3.372   9.233 -0.7321  0.4246 -0.5310
 7167SOL     OW23174   7.950   4.234   1.465  0.2640 -0.4551  0.0136
 7167SOL    HW123175   8.000   4.267   1.540  0.5687  1.2299 -0.8794
 7167SOL    HW223176   8.002   4.161   1.431  0.4178 -0.8555  1.0709
 7168SOL     OW23177   6.821   2.360   1.195  0.4412 -0.2101  0.3273
 7168SOL    HW123178   6.772   2.435   1.163  0.7113  0.3290  1.1358
 7168SOL    HW223179   6.910   2.393   1.206  0.0526  0.1237  3.1485
 7169SOL     OW23180   4.666   2.024   0.358  0.1368  0.1423 -0.4706
 7169SOL    HW123181   4.721   2.038   0.280  0.8428 -0.9140 -0.1770
 7169SOL    HW223182   4.633   2.112   0.379 -0.4931  0.3860 -2.2580
 7170SOL     OW23183   8.205   5.202   8.833 -0.0563 -0.2140  0.2247
 7170SOL    HW123184   8.208   5.215   8.928 -0.2682 -2.5140  0.6095
 7170SOL    HW223185   8.206   5.107   8.822  0.7654  0.0033 -2.1251
 7171SOL     OW23186   8.059   4.301   0.583 -0.2688 -0.0621  0.1727
 7171SOL    HW123187   8.155   4.309   0.583 -0.0480 -2.1164  1.1202
 7171SOL    HW223188   8.042   4.223   0.531 -1.4615  0.3866 -0.1320
 7172SOL     OW23189   5.242   4.078   7.457 -0.2516 -0.3438 -0.2734
 7172SOL    HW123190   5.227   4.107   7.367  1.6554  0.7964 -0.2781
 7172SOL    HW223191   5.286   3.993   7.448  0.7155  0.1617 -0.4703
 7173SOL     OW23192   4.654   9.656   4.240  0.4370 -0.0613 -0.2043
 7173SOL    HW123193   4.656   9.724   4.172  0.5885  0.8969  0.7233
 7173SOL    HW223194   4.561   9.635   4.249  0.3417  0.3484 -0.1869
 7174SOL     OW23195   2.684   5.207   0.251 -0.0054 -0.0526  0.5164
 7174SOL    HW123196   2.610   5.179   0.306 -0.1166 -1.0141 -0.0973
 7174SOL    HW223197   2.761   5.169   0.293 -0.1581 -1.3618 -0.3261
 7175SOL     OW23198   0.730   1.072   5.604  0.3637 -0.0593 -0.0643
 7175SOL    HW123199   0.650   1.109   5.642  0.0594  0.1736 -0.8963
 7175SOL    HW223200   0.702   1.038   5.519  0.9949 -0.6896 -0.0322
 7176SOL     OW23201   2.988   6.962   3.322 -0.4288 -0.3413  0.2174
 7176SOL    HW123202   2.911   7.002   3.282  0.0109  0.7508  0.4177
 7176SOL    HW223203   2.994   7.002   3.409  0.6835  0.0319 -0.0126
 7177SOL     OW23204   6.719   5.255   3.057 -0.2819  0.1061 -0.5417
 7177SOL    HW123205   6.625   5.245   3.072 -0.1180  0.5002  0.8357
 7177SOL    HW223206   6.759   5.239   3.142  0.9289 -0.3128 -1.1667
 7178SOL     OW23207   4.893   9.478   3.104  0.6219 -0.3745  0.4431
 7178SOL    HW123208   4.859   9.460   3.191  1.0305  0.9399  0.8907
 7178SOL    HW223209   4.838   9.548   3.070  2.0684  0.9572  0.7106
 7179SOL     OW23210   0.503   8.724   6.180 -0.0421  0.2007  0.2373
 7179SOL    HW123211   0.532   8.764   6.262  0.2425 -0.2630  0.3659
 7179SOL    HW223212   0.419   8.685   6.200 -0.4117  0.8918  0.0618
 7180SOL     OW23213   6.999   5.064   4.159 -0.2589  0.2313  0.3174
 7180SOL    HW123214   7.012   5.107   4.075 -1.1062  0.2179  0.1628
 7180SOL    HW223215   6.907   5.035   4.157  0.0493 -0.8280  0.7612
 7181SOL     OW23216   5.987   6.907   1.618  0.0133  0.0246 -0.5271
 7181SOL    HW123217   5.913   6.957   1.585 -0.0639 -0.0921 -0.5317
 7181SOL    HW223218   5.974   6.905   1.713 -0.8862 -1.3851 -0.6458
 7182SOL     OW23219   3.091   1.394   8.161  0.1706 -0.2995 -0.3403
 7182SOL    HW123220   3.033   1.404   8.237 -1.3554 -0.9505 -1.3650
 7182SOL    HW223221   3.120   1.303   8.166 -0.5463 -0.5730 -0.9226
 7183SOL     OW23222   0.385   6.614   4.962 -0.0571 -0.5710 -0.2547
 7183SOL    HW123223   0.425   6.651   5.041 -0.6674  1.8433 -0.9969
 7183SOL    HW223224   0.456   6.608   4.899 -0.0759 -0.0247 -0.3306
 7184SOL     OW23225   7.762   5.671   2.331  0.3211  0.5636  0.6643
 7184SOL    HW123226   7.733   5.749   2.378 -1.3172  0.0113  0.6471
 7184SOL    HW223227   7.841   5.698   2.285  0.3245  1.9303  1.4192
 7185SOL     OW23228   3.117   9.221   2.309  0.0228  0.6100 -0.4772
 7185SOL    HW123229   3.208   9.218   2.338  0.4025 -1.7648 -1.6323
 7185SOL    HW223230   3.068   9.181   2.382  0.0696  0.7147 -0.3875
 7186SOL     OW23231   5.990   6.337   6.571  0.2293  0.5846  0.0364
 7186SOL    HW123232   6.044   6.377   6.639  0.6446  0.2781 -0.1064
 7186SOL    HW223233   6.047   6.333   6.494 -0.5678  1.8806 -0.6465
 7187SOL     OW23234   7.255   3.223   1.000  0.4701 -0.1875 -0.5778
 7187SOL    HW123235   7.184   3.159   1.002  0.1521  0.1685  1.0079
 7187SOL    HW223236   7.212   3.306   0.980  0.4466 -0.0148  0.1393
 7188SOL     OW23237   7.703   2.812   8.684  0.2014 -0.0855 -0.3198
 7188SOL    HW123238   7.785   2.825   8.636 -0.1214 -0.5889 -1.0269
 7188SOL    HW223239   7.681   2.720   8.670 -1.4078  0.4372 -1.6706
 7189SOL     OW23240   8.640   3.989   2.601  0.1839 -0.3846  0.1364
 7189SOL    HW123241   8.652   3.906   2.647  2.5141 -0.4333 -0.4114
 7189SOL    HW223242   8.727   4.030   2.603 -0.0664  0.4782 -2.5586
 7190SOL     OW23243   5.586   4.935   8.760 -0.4412  0.5562  0.1643
 7190SOL    HW123244   5.531   4.862   8.790  1.2256 -0.1219  1.7674
 7190SOL    HW223245   5.563   4.946   8.668 -3.0909  0.2051  0.6891
 7191SOL     OW23246   2.813   5.596   3.310 -0.1012 -0.2870  0.0280
 7191SOL    HW123247   2.837   5.511   3.273  0.8933 -0.1395  0.2925
 7191SOL    HW223248   2.717   5.599   3.305 -0.1129 -1.2051 -0.4486
 7192SOL     OW23249   5.448   2.420   5.857  0.5137  0.0523 -0.0026
 7192SOL    HW123250   5.388   2.451   5.925  1.4259  0.0072  0.8529
 7192SOL    HW223251   5.493   2.499   5.826 -2.3984  0.6718 -3.1940
 7193SOL     OW23252   0.035   8.270   6.143  0.3885  0.0757 -0.4644
 7193SOL    HW123253   0.042   8.319   6.061  1.5459  0.2772 -0.2633
 7193SOL    HW223254   0.070   8.329   6.209  0.9109 -0.6668 -0.0683
 7194SOL     OW23255   4.736   5.256   7.995  0.0703 -0.0158 -0.3777
 7194SOL    HW123256   4.816   5.287   8.036  0.3685  0.2467 -1.1383
 7194SOL    HW223257   4.766   5.196   7.926 -0.4580 -1.2880  0.4690
 7195SOL     OW23258   2.135   1.324   4.967 -0.0824  0.6452  0.0583
 7195SOL    HW123259   2.122   1.271   5.046  1.3095 -0.6452 -0.5423
 7195SOL    HW223260   2.229   1.337   4.961  0.2413 -1.8731 -2.9459
 7196SOL     OW23261   7.983   4.833   7.826  0.1603 -0.1114  0.1305
 7196SOL    HW123262   7.921   4.787   7.882  0.6335  1.7594  2.3348
 7196SOL    HW223263   8.068   4.797   7.849  0.1737 -1.0312 -1.2130
 7197SOL     OW23264   0.436   6.662   2.996 -0.3956  0.0331  0.4408
 7197SOL    HW123265   0.361   6.611   2.967  0.0789 -0.0477 -0.7196
 7197SOL    HW223266   0.419   6.682   3.088 -0.8825 -1.6718  0.7406
 7198SOL     OW23267   5.778   5.801   1.404 -0.1434 -0.0766  0.2371
 7198SOL    HW123268   5.869   5.780   1.426 -0.6987  0.5472  3.8033
 7198SOL    HW223269   5.779   5.895   1.386 -0.0506 -0.0653  0.2988
 7199SOL     OW23270   3.541   6.852   7.526 -0.0150  0.2513 -0.6234
 7199SOL    HW123271   3.476   6.922   7.527  0.5724  0.8041 -0.5956
 7199SOL    HW223272   3.561   6.837   7.618 -0.4195 -0.2195 -0.6111
 7200SOL     OW23273   2.288   6.629   3.756 -0.0430 -0.8612 -0.3118
 7200SOL    HW123274   2.294   6.559   3.820  0.4574 -0.8710 -0.3634
 7200SOL    HW223275   2.293   6.710   3.808  1.6835 -0.8623 -0.4275
 7201SOL     OW23276   5.073   2.311   7.556 -0.2270 -0.2070 -0.0591
 7201SOL    HW123277   5.102   2.287   7.469  0.4204  3.0244 -0.8600
 7201SOL    HW223278   4.978   2.296   7.555 -0.2869  0.1727 -1.4487
 7202SOL     OW23279   8.270   2.959   1.168  0.3863  0.3385 -0.2321
 7202SOL    HW123280   8.181   2.991   1.182 -0.0983 -1.3889  0.9953
 7202SOL    HW223281   8.311   2.964   1.255  0.0588 -2.8375  0.2061
 7203SOL     OW23282   2.859   2.243   0.138 -0.6157  0.0557 -0.2820
 7203SOL    HW123283   2.857   2.196   0.055  1.2327 -0.4998 -0.0579
 7203SOL    HW223284   2.895   2.180   0.200 -0.1671  1.0695  0.5089
 7204SOL     OW23285   9.015   3.407   6.952 -0.3580  0.1839 -0.5946
 7204SOL    HW123286   9.057   3.476   7.004  0.4402 -1.6441  1.3157
 7204SOL    HW223287   8.971   3.455   6.881  1.2925  2.5339 -0.1808
 7205SOL     OW23288   9.186   7.763   5.498  0.2768 -0.0883  0.2738
 7205SOL    HW123289   9.153   7.824   5.564 -1.8800 -2.1392  1.2232
 7205SOL    HW223290   9.223   7.690   5.549  0.5391 -0.7313 -0.7974
 7206SOL     OW23291   0.962   2.160   0.762  0.0710 -0.4561  0.8613
 7206SOL    HW123292   0.995   2.110   0.687  0.7968 -0.2452  1.0296
 7206SOL    HW223293   0.905   2.099   0.809 -0.0269 -0.7311  0.3832
 7207SOL     OW23294   8.542   1.141   7.600 -0.4964  0.1583 -0.1728
 7207SOL    HW123295   8.448   1.160   7.606 -0.1887  1.4222  1.2640
 7207SOL    HW223296   8.584   1.218   7.639  1.1180 -0.6355 -0.2876
 7208SOL     OW23297   5.239   1.961   7.190 -0.2388  0.0677 -0.4077
 7208SOL    HW123298   5.177   2.018   7.234  0.4907  1.1816 -0.7931
 7208SOL    HW223299   5.194   1.933   7.110 -1.0055 -0.7973  0.3020
 7209SOL     OW23300   0.351   1.215   3.039  0.2224  0.1114  0.4384
 7209SOL    HW123301   0.306   1.139   3.001 -0.9960  0.0323  1.9532
 7209SOL    HW223302   0.307   1.291   3.000 -1.2771  0.0339  1.8926
 7210SOL     OW23303   4.061   7.551   8.465  0.3887  0.6317 -0.5117
 7210SOL    HW123304   4.090   7.641   8.451 -0.6083  0.7795 -1.8912
 7210SOL    HW223305   4.030   7.548   8.555  1.1895  1.4395 -0.2024
 7211SOL     OW23306   4.780   9.103   1.638 -0.1161 -0.4351 -0.2155
 7211SOL    HW123307   4.694   9.126   1.603 -1.1070 -0.0053  2.2919
 7211SOL    HW223308   4.816   9.186   1.670  1.2972 -0.5914 -1.2961
 7212SOL     OW23309   5.075   2.817   7.257  0.2770 -0.0996  0.1401
 7212SOL    HW123310   5.018   2.742   7.273  1.6507 -0.9761  1.1006
 7212SOL    HW223311   5.059   2.839   7.165  0.5363 -2.1700 -0.4523
 7213SOL     OW23312   8.756   7.138   9.308 -0.4199 -0.4744  0.0955
 7213SOL    HW123313   8.719   7.057   9.342 -0.3698 -0.3363  0.4877
 7213SOL    HW223314   8.716   7.207   9.362 -0.2630 -0.2577 -0.0612
 7214SOL     OW23315   8.858   8.385   1.549  0.3023 -0.4386 -0.3434
 7214SOL    HW123316   8.786   8.439   1.516  0.4920  0.5195  0.7388
 7214SOL    HW223317   8.854   8.395   1.644  1.3866 -1.0041 -0.2178
 7215SOL     OW23318   5.737   2.890   4.688  0.1367  0.1247 -0.1426
 7215SOL    HW123319   5.754   2.957   4.621 -0.3738  0.0475 -0.3585
 7215SOL    HW223320   5.663   2.840   4.652  1.5152 -1.5716 -0.7398
 7216SOL     OW23321   1.899   8.929   7.471  0.0206 -0.5828 -0.2253
 7216SOL    HW123322   1.817   8.926   7.521 -0.1737 -0.7013 -0.5441
 7216SOL    HW223323   1.968   8.936   7.537 -0.1087 -2.5139  0.1544
 7217SOL     OW23324   8.396   9.383   7.408 -0.2887 -0.1124 -0.3403
 7217SOL    HW123325   8.378   9.340   7.325 -2.4278  0.1728 -0.0989
 7217SOL    HW223326   8.418   9.312   7.468 -0.3730 -0.4980 -0.7577
 7218SOL     OW23327   3.999   4.921   8.798  0.5305  0.1611 -0.2119
 7218SOL    HW123328   4.016   4.829   8.821  0.3109 -0.6489 -2.8272
 7218SOL    HW223329   3.909   4.936   8.825  0.7846 -0.1527  0.8588
 7219SOL     OW23330   2.218   2.178   6.323 -0.3185 -0.6556  0.5405
 7219SOL    HW123331   2.182   2.089   6.332 -0.7063 -0.4300  1.3095
 7219SOL    HW223332   2.312   2.167   6.337 -0.5204 -0.7786  1.9298
 7220SOL     OW23333   0.128   7.029   0.542 -0.2250  0.2398  0.3327
 7220SOL    HW123334   0.144   6.936   0.560  0.1943  0.4145  0.8731
 7220SOL    HW223335   0.208   7.073   0.568 -0.3278  0.7327 -0.1620
 7221SOL     OW23336   7.987   9.669   7.811 -0.1933 -0.3037  0.1773
 7221SOL    HW123337   7.960   9.760   7.816  0.5983 -0.1339  1.6145
 7221SOL    HW223338   7.906   9.621   7.790 -0.6175  0.7034 -0.5448
 7222SOL     OW23339   4.223   0.203   1.062  0.1844 -0.3864 -0.3899
 7222SOL    HW123340   4.129   0.186   1.067  0.0710 -0.8454 -2.8953
 7222SOL    HW223341   4.251   0.206   1.153 -2.1574 -0.7166  0.4258
 7223SOL     OW23342   6.356   6.016   1.959  0.7462 -0.4196 -0.1696
 7223SOL    HW123343   6.353   5.961   2.037 -0.4221  0.3409  0.3360
 7223SOL    HW223344   6.265   6.023   1.930  0.5052  2.8303  0.9395
 7224SOL     OW23345   8.019   5.702   2.220  0.5517  0.6019  0.7352
 7224SOL    HW123346   8.054   5.614   2.238 -0.5627  0.1026  0.5471
 7224SOL    HW223347   8.058   5.727   2.137  0.2883 -0.0556  0.4015
 7225SOL     OW23348   0.368   7.248   6.354  0.5027  0.1035  0.0294
 7225SOL    HW123349   0.314   7.175   6.385  1.1434 -0.9527 -1.2595
 7225SOL    HW223350   0.447   7.243   6.408  0.5596 -0.1881 -0.0761
 7226SOL     OW23351   1.108   8.747   8.523 -0.6164  0.2314  0.5123
 7226SOL    HW123352   1.107   8.840   8.502 -3.3108  0.6595  2.0675
 7226SOL    HW223353   1.200   8.721   8.513  0.1175  2.8941 -0.4743
 7227SOL     OW23354   6.338   1.036   6.903  0.1119 -0.0510  0.4473
 7227SOL    HW123355   6.281   1.105   6.870 -1.1902 -1.4400 -0.3657
 7227SOL    HW223356   6.424   1.076   6.910 -0.3662  1.3300 -1.0904
 7228SOL     OW23357   6.428   7.751   2.458 -0.2407 -0.2228 -0.0586
 7228SOL    HW123358   6.517   7.747   2.491 -0.1675 -0.6348 -0.3048
 7228SOL    HW223359   6.409   7.663   2.426 -1.0179 -0.3419  0.7068
 7229SOL     OW23360   2.020   6.204   1.015 -0.1859  0.1120  0.1812
 7229SOL    HW123361   2.045   6.297   1.009 -1.2974  0.3708 -0.8353
 7229SOL    HW223362   1.932   6.201   0.978 -0.1626 -1.3633  0.2072
 7230SOL     OW23363   3.309   5.318   4.370 -0.1030  0.2465  0.4798
 7230SOL    HW123364   3.305   5.255   4.442 -0.1148 -0.0250  0.2419
 7230SOL    HW223365   3.273   5.399   4.407  0.2030  0.2008  0.8758
 7231SOL     OW23366   3.420   1.843   1.404  0.1093 -0.5020  0.3166
 7231SOL    HW123367   3.449   1.863   1.493  0.6464 -1.5245  0.3775
 7231SOL    HW223368   3.351   1.778   1.415 -0.5391  0.1133  0.0255
 7232SOL     OW23369   0.848   0.153   8.875  0.2995  0.2857  0.6486
 7232SOL    HW123370   0.835   0.136   8.781  0.4694  2.4551  0.1705
 7232SOL    HW223371   0.942   0.164   8.885  0.2780  0.1127  1.0780
 7233SOL     OW23372   6.825   7.710   1.620  0.1713 -0.0949 -0.2926
 7233SOL    HW123373   6.828   7.805   1.634 -2.8389  0.0828 -0.2761
 7233SOL    HW223374   6.911   7.688   1.583  1.4210  2.3987  0.9106
 7234SOL     OW23375   5.189   7.584   3.697  0.2426 -0.3011  0.2485
 7234SOL    HW123376   5.279   7.577   3.729  0.3622 -0.0850 -0.0338
 7234SOL    HW223377   5.185   7.525   3.622  0.0854 -0.4802  0.3973
 7235SOL     OW23378   0.978   6.137   0.060  0.3807 -0.1657 -0.1390
 7235SOL    HW123379   0.973   6.076  -0.014  0.2247  0.2284 -0.4566
 7235SOL    HW223380   0.887   6.160   0.079  0.3937 -0.5720  0.4373
 7236SOL     OW23381   9.316   2.671   6.218  0.0456  0.3755  0.4301
 7236SOL    HW123382   9.334   2.683   6.125  2.2307  0.4316  0.7962
 7236SOL    HW223383   9.253   2.599   6.222  0.0206  0.2953 -1.0887
 7237SOL     OW23384   1.644   7.772   9.169  0.2542 -0.2369  0.1027
 7237SOL    HW123385   1.731   7.813   9.173  0.2208 -0.0338 -0.8816
 7237SOL    HW223386   1.584   7.839   9.201  0.2539  0.3510 -1.0684
 7238SOL     OW23387   3.637   1.436   5.725  0.0304  0.5971 -0.4858
 7238SOL    HW123388   3.664   1.495   5.656  1.5577 -0.3471 -0.7339
 7238SOL    HW223389   3.718   1.398   5.759 -0.8183 -0.4966  0.4374
 7239SOL     OW23390   7.080   5.161   5.698 -0.0134 -0.2073  0.3979
 7239SOL    HW123391   7.113   5.131   5.613  0.8775  0.9213  0.3310
 7239SOL    HW223392   7.157   5.166   5.754 -0.5968 -0.9236  1.2802
 7240SOL     OW23393   1.651   4.641   1.204  0.3795 -0.1654 -0.3454
 7240SOL    HW123394   1.615   4.569   1.152  0.0103 -0.1248 -0.1461
 7240SOL    HW223395   1.745   4.640   1.184  0.5214 -1.2309  0.2978
 7241SOL     OW23396   4.231   2.892   1.458  0.1188 -0.0261  0.6903
 7241SOL    HW123397   4.244   2.982   1.488 -1.4283  0.7066 -0.6868
 7241SOL    HW223398   4.169   2.855   1.520  1.0925 -0.3235  1.5188
 7242SOL     OW23399   9.091   5.638   1.102  0.0136  0.3806 -0.2246
 7242SOL    HW123400   9.024   5.570   1.090 -0.0313  0.3709  0.0800
 7242SOL    HW223401   9.041   5.720   1.099  0.0487  0.3952 -0.4432
 7243SOL     OW23402   5.258   1.652   7.769 -0.5328 -0.5501 -0.6563
 7243SOL    HW123403   5.262   1.676   7.677 -1.6089  1.6365 -0.1959
 7243SOL    HW223404   5.197   1.578   7.772 -0.8685 -0.3324 -1.6466
 7244SOL     OW23405   6.684   0.584   1.465  0.4377 -0.5317  0.1710
 7244SOL    HW123406   6.612   0.539   1.509 -0.8717  1.4711  0.1997
 7244SOL    HW223407   6.757   0.522   1.469 -1.7097 -3.4437 -1.4846
 7245SOL     OW23408   8.668   0.201   6.159 -0.5470  0.2040 -0.1363
 7245SOL    HW123409   8.750   0.191   6.110 -0.0931  1.6122  0.3101
 7245SOL    HW223410   8.605   0.234   6.095 -0.2736  0.8971 -0.0455
 7246SOL     OW23411   9.464   1.873   0.865 -0.0887  0.3275 -0.6271
 7246SOL    HW123412   9.387   1.910   0.821  0.6536  0.5445 -1.7868
 7246SOL    HW223413   9.428   1.805   0.923 -1.3304  1.8186  0.4258
 7247SOL     OW23414   5.109   7.095   3.182 -0.5141  0.4683 -0.4933
 7247SOL    HW123415   5.053   7.103   3.105 -0.2923 -1.6424 -0.9483
 7247SOL    HW223416   5.178   7.034   3.154  0.3909  0.8084  0.9344
 7248SOL     OW23417   5.250   8.668   7.581 -0.2676 -0.1498  0.0704
 7248SOL    HW123418   5.321   8.732   7.579 -0.2935 -0.0967  0.7347
 7248SOL    HW223419   5.199   8.691   7.659 -0.1115 -1.1564  0.4774
 7249SOL     OW23420   7.505   1.574   5.681 -0.1188  0.2991  0.2098
 7249SOL    HW123421   7.589   1.528   5.672  1.3540  3.1532 -2.7174
 7249SOL    HW223422   7.443   1.522   5.630  0.9315  0.3020 -1.1168
 7250SOL     OW23423   1.439   3.615   8.442  0.0503  0.0286 -0.0330
 7250SOL    HW123424   1.422   3.648   8.354  0.2263 -1.1072 -0.5077
 7250SOL    HW223425   1.361   3.565   8.464 -0.7167  1.6640  1.1536
 7251SOL     OW23426   0.343   4.860   7.867  0.4058 -0.5171  0.4290
 7251SOL    HW123427   0.328   4.835   7.958 -0.9612 -1.2669  0.0338
 7251SOL    HW223428   0.268   4.823   7.819  1.0697 -0.1107 -0.9928
 7252SOL     OW23429   0.594   4.025   3.789 -0.6951 -0.0858  0.7916
 7252SOL    HW123430   0.562   4.110   3.759  2.5247  0.7847 -0.5770
 7252SOL    HW223431   0.677   4.012   3.743 -0.5559 -3.5595  1.6947
 7253SOL     OW23432   6.533   5.959   8.327  0.3038 -0.3571  0.1168
 7253SOL    HW123433   6.513   5.936   8.418 -0.0869 -0.6788 -0.0496
 7253SOL    HW223434   6.608   6.018   8.334  0.2269 -0.3146  0.6540
 7254SOL     OW23435   4.287   2.648   5.434 -0.1292 -0.7212  0.1508
 7254SOL    HW123436   4.209   2.620   5.483  0.0654 -1.8042 -0.1303
 7254SOL    HW223437   4.360   2.632   5.494 -0.2401  2.3755  1.2905
 7255SOL     OW23438   5.955   2.669   0.679  0.3762 -0.4102  0.7279
 7255SOL    HW123439   5.936   2.757   0.713  0.1504 -0.2816  0.2738
 7255SOL    HW223440   5.870   2.637   0.648  0.9615  0.4675 -2.0496
 7256SOL     OW23441   8.635   1.628   3.572  0.4911  0.6994 -0.7062
 7256SOL    HW123442   8.717   1.604   3.614 -0.2873 -0.2476  0.3518
 7256SOL    HW223443   8.648   1.718   3.543  1.6483  0.8043  0.0724
 7257SOL     OW23444   3.394   2.955   1.685  0.1177  0.1587  1.1595
 7257SOL    HW123445   3.467   2.952   1.623 -0.9507 -2.3573 -0.1011
 7257SOL    HW223446   3.348   3.036   1.662  1.1347  0.5476  0.3731
 7258SOL     OW23447   6.211   1.932   1.027 -0.1910 -0.3175 -0.2027
 7258SOL    HW123448   6.262   1.947   0.948 -0.2435  0.3694 -0.1098
 7258SOL    HW223449   6.124   1.907   0.996  0.0126 -0.8518 -0.3571
 7259SOL     OW23450   8.927   2.470   2.827 -0.3680 -0.4728 -0.3953
 7259SOL    HW123451   8.852   2.412   2.811  0.0211 -0.7608 -1.2507
 7259SOL    HW223452   9.003   2.415   2.809  0.0290  0.9238 -3.7782
 7260SOL     OW23453   7.200   1.240   0.351 -0.4625 -0.8049  0.0329
 7260SOL    HW123454   7.271   1.303   0.359 -1.3823  0.0565  1.9972
 7260SOL    HW223455   7.233   1.161   0.392 -1.4913  0.4537  3.6934
 7261SOL     OW23456   1.875   2.830   6.545  0.2627 -0.1880  0.2468
 7261SOL    HW123457   1.818   2.814   6.620  0.3075 -2.3988 -0.1096
 7261SOL    HW223458   1.820   2.881   6.484 -0.1797  0.5635  1.2502
 7262SOL     OW23459   9.410   3.550   6.850  0.3699 -0.0108  0.7035
 7262SOL    HW123460   9.413   3.533   6.944 -0.4507 -2.3486  0.3791
 7262SOL    HW223461   9.341   3.616   6.839  0.2706  0.0603  1.7206
 7263SOL     OW23462   1.287   2.506   0.778 -0.4922 -0.0599 -0.1518
 7263SOL    HW123463   1.316   2.591   0.811  1.1749 -0.7858  0.3509
 7263SOL    HW223464   1.261   2.458   0.857  0.4444 -0.6775 -0.2033
 7264SOL     OW23465   6.778   0.647   6.439 -0.2185 -0.1139 -0.2022
 7264SOL    HW123466   6.865   0.673   6.470 -0.1008 -0.8962  0.1590
 7264SOL    HW223467   6.778   0.669   6.346  0.2915  0.0723 -0.1643
 7265SOL     OW23468   2.501   0.299   4.140 -0.0439 -0.1539  0.3808
 7265SOL    HW123469   2.409   0.278   4.156  0.0621  0.0768  1.4055
 7265SOL    HW223470   2.499   0.383   4.094 -0.3355  0.3360  1.2689
 7266SOL     OW23471   7.348   1.758   4.177  0.2717 -0.0023 -0.8725
 7266SOL    HW123472   7.321   1.844   4.208  0.7006  0.2774 -1.2650
 7266SOL    HW223473   7.270   1.722   4.135 -0.1190 -0.1087 -0.0751
 7267SOL     OW23474   2.213   2.551   9.389 -0.4396 -0.1707  0.1956
 7267SOL    HW123475   2.273   2.622   9.412 -0.0759 -0.5674  0.4673
 7267SOL    HW223476   2.229   2.535   9.296  0.0201 -0.4097  0.3120
 7268SOL     OW23477   0.270   7.215   8.980  0.9411  0.2923  0.7019
 7268SOL    HW123478   0.201   7.157   9.011  1.5439 -0.8336  0.0281
 7268SOL    HW223479   0.224   7.288   8.938  0.0495 -1.9446 -2.5825
 7269SOL     OW23480   4.194   5.413   1.590  0.3844  0.1267 -0.1422
 7269SOL    HW123481   4.179   5.498   1.631  0.1663  0.0063  0.0370
 7269SOL    HW223482   4.112   5.365   1.604 -0.8199  1.0641 -3.2418
 7270SOL     OW23483   7.638   9.404   2.845  0.0342 -0.0241 -0.5761
 7270SOL    HW123484   7.647   9.497   2.862 -1.5948  0.3873 -1.7730
 7270SOL    HW223485   7.576   9.398   2.773 -0.0712 -2.0477 -0.3825
 7271SOL     OW23486   2.960   4.749   0.612 -0.7504 -0.3457  0.2696
 7271SOL    HW123487   2.924   4.795   0.688 -1.1319 -0.7486  0.3390
 7271SOL    HW223488   2.985   4.663   0.646  0.0394 -0.1641  0.1639
 7272SOL     OW23489   4.361   4.078   2.257  0.1853 -0.2076  0.1790
 7272SOL    HW123490   4.382   4.164   2.294 -1.9525  1.4663 -2.1231
 7272SOL    HW223491   4.270   4.086   2.229  0.3009 -2.8124 -1.2307
 7273SOL     OW23492   6.382   3.424   6.540 -0.4419  0.0108 -0.1191
 7273SOL    HW123493   6.318   3.473   6.592 -0.4574 -0.2822  0.1412
 7273SOL    HW223494   6.423   3.365   6.603  0.4695  0.5703 -0.1718
 7274SOL     OW23495   7.641   5.035   1.344  0.0988 -0.0684  0.7696
 7274SOL    HW123496   7.687   5.114   1.370 -0.6434 -0.2014  2.6757
 7274SOL    HW223497   7.555   5.042   1.386 -0.9096 -0.7528 -1.0520
 7275SOL     OW23498   4.489   1.931   0.720  0.0548  0.1226  0.0248
 7275SOL    HW123499   4.558   1.997   0.717 -0.0051  0.1634 -0.6881
 7275SOL    HW223500   4.529   1.855   0.761  0.8110 -0.1721 -1.2154
 7276SOL     OW23501   6.816   7.870   9.415 -0.3825 -0.7284  0.1908
 7276SOL    HW123502   6.850   7.841   9.499 -0.9569  0.5152  0.8811
 7276SOL    HW223503   6.723   7.849   9.418 -0.5519 -0.0177  0.1810
 7277SOL     OW23504   2.807   6.947   2.924 -0.5133  0.0699 -1.1097
 7277SOL    HW123505   2.894   6.987   2.930 -0.2570 -0.5970 -0.0687
 7277SOL    HW223506   2.748   7.014   2.958 -0.2982  0.2014 -0.9896
 7278SOL     OW23507   0.714   6.014   1.308 -0.1627 -0.1826 -0.2690
 7278SOL    HW123508   0.627   5.977   1.322 -0.2821  0.2127  0.0735
 7278SOL    HW223509   0.703   6.108   1.326  0.1926 -0.0296 -0.8479
 7279SOL     OW23510   2.224   6.396   2.475  0.5702  0.1884  0.3379
 7279SOL    HW123511   2.275   6.323   2.440  4.2418  1.7322  1.9190
 7279SOL    HW223512   2.141   6.357   2.502  1.3591 -2.8297 -1.2020
 7280SOL     OW23513   6.501   1.317   4.129  0.2187 -0.1594  0.2862
 7280SOL    HW123514   6.518   1.308   4.223  3.9426 -0.0323 -0.2424
 7280SOL    HW223515   6.465   1.232   4.104  1.1269 -0.9429  1.5050
 7281SOL     OW23516   7.203   5.007   6.361  0.0480 -0.4475 -0.0106
 7281SOL    HW123517   7.264   4.935   6.346 -0.0469 -0.6229  0.4586
 7281SOL    HW223518   7.132   4.991   6.298 -0.2298 -1.0569  0.4435
 7282SOL     OW23519   5.526   2.066   8.404 -0.1041 -0.4194  0.0403
 7282SOL    HW123520   5.608   2.115   8.411 -0.4522 -0.0678  2.3470
 7282SOL    HW223521   5.551   1.984   8.362  1.1699  0.2094 -0.4870
 7283SOL     OW23522   5.669   7.153   9.350  0.0997 -0.1702 -0.1423
 7283SOL    HW123523   5.589   7.141   9.401  0.5951 -0.3210  0.5988
 7283SOL    HW223524   5.715   7.224   9.394 -0.9685  1.9746 -2.2239
 7284SOL     OW23525   0.105   7.398   0.511  0.0969  0.0037 -0.0297
 7284SOL    HW123526   0.181   7.452   0.530  0.7101 -0.6890 -0.4873
 7284SOL    HW223527   0.099   7.337   0.584  1.5028 -1.6029 -1.1952
 7285SOL     OW23528   0.045   0.581   5.558  0.4202 -0.3853 -0.3070
 7285SOL    HW123529   0.050   0.664   5.606  1.5819 -0.2675 -0.5827
 7285SOL    HW223530  -0.016   0.599   5.486  1.7575  0.7298 -1.2334
 7286SOL     OW23531   2.940   7.735   6.883 -0.2943 -0.3052  0.1092
 7286SOL    HW123532   2.988   7.691   6.952 -0.4893  1.1544  1.2362
 7286SOL    HW223533   2.859   7.685   6.874 -0.1694 -0.6420  0.8058
 7287SOL     OW23534   3.054   1.763   8.201  0.2568  0.5730 -0.3738
 7287SOL    HW123535   3.046   1.722   8.287 -0.6872  0.6551 -0.4211
 7287SOL    HW223536   3.139   1.732   8.168  1.3649  1.7822  1.2155
 7288SOL     OW23537   2.778   3.075   4.260 -0.3747 -0.3992 -0.4403
 7288SOL    HW123538   2.804   2.983   4.269 -0.4777 -0.3025  1.1581
 7288SOL    HW223539   2.860   3.123   4.251 -0.2907 -0.6024 -0.7490
 7289SOL     OW23540   9.620   2.170   9.417  0.4368 -0.4992 -0.2870
 7289SOL    HW123541   9.588   2.182   9.506 -1.1010 -1.1541 -0.7149
 7289SOL    HW223542   9.699   2.116   9.427  0.4027 -0.3963  0.6771
 7290SOL     OW23543   5.706   7.358   5.355  0.4551 -0.0210  0.4126
 7290SOL    HW123544   5.726   7.372   5.263 -0.8195  1.2953  0.3080
 7290SOL    HW223545   5.774   7.408   5.402  0.7736 -0.2350  0.1787
 7291SOL     OW23546   5.513   6.604   1.864  0.0058  0.2015  0.3795
 7291SOL    HW123547   5.512   6.536   1.797  0.0821 -0.1235  0.7033
 7291SOL    HW223548   5.431   6.652   1.851 -0.8747 -1.0141  1.2133
 7292SOL     OW23549   0.441   9.571   3.876 -0.1852 -0.5016 -0.3388
 7292SOL    HW123550   0.529   9.580   3.841 -0.2922 -0.6178 -0.6424
 7292SOL    HW223551   0.447   9.499   3.938  0.2945  0.5379  0.8551
 7293SOL     OW23552   7.028   2.638   9.517  0.3304 -0.0732 -0.8609
 7293SOL    HW123553   7.015   2.727   9.484 -0.6021 -0.3132 -1.1986
 7293SOL    HW223554   6.943   2.596   9.503 -0.3245 -0.0663  2.3535
 7294SOL     OW23555   7.250   4.466   2.037 -0.0966  0.3987 -0.5119
 7294SOL    HW123556   7.193   4.404   1.991  0.6006  0.0776 -0.9611
 7294SOL    HW223557   7.260   4.540   1.976 -1.6188  1.3708  0.3649
 7295SOL     OW23558   5.745   7.776   4.752  0.0204 -0.0199 -0.0830
 7295SOL    HW123559   5.817   7.840   4.753 -1.1488  1.3523  0.6163
 7295SOL    HW223560   5.778   7.702   4.804  0.4543  1.1740  1.4405
 7296SOL     OW23561   6.925   2.344   0.701 -0.5332  0.3044 -0.4229
 7296SOL    HW123562   6.848   2.290   0.683 -1.7438  1.7983  0.0922
 7296SOL    HW223563   6.939   2.394   0.621 -0.3630  0.3661 -0.3551
 7297SOL     OW23564   2.386   4.194   6.728 -0.5352  0.2652 -0.1586
 7297SOL    HW123565   2.432   4.265   6.683 -3.1613  1.8738 -0.5312
 7297SOL    HW223566   2.372   4.128   6.660 -0.5147  0.6617 -0.5546
 7298SOL     OW23567   4.387   3.346   1.243 -0.2033 -0.6332  0.0368
 7298SOL    HW123568   4.462   3.303   1.283  0.9716  0.0612 -1.3233
 7298SOL    HW223569   4.401   3.336   1.149  0.0378  2.4303 -0.3593
 7299SOL     OW23570   2.539   2.845   7.366  0.2556 -0.1550  0.4533
 7299SOL    HW123571   2.480   2.833   7.292 -0.4772  1.7556  0.6829
 7299SOL    HW223572   2.561   2.756   7.393 -1.0384 -0.9001 -0.8046
 7300SOL     OW23573   4.900   3.262   6.688  0.1839 -0.3651  0.3570
 7300SOL    HW123574   4.857   3.177   6.675  0.3341 -0.3990  0.0780
 7300SOL    HW223575   4.987   3.251   6.650  0.7309 -0.5509  1.6251
 7301SOL     OW23576   4.451   8.664   5.896  0.4411 -0.6857  0.1699
 7301SOL    HW123577   4.380   8.653   5.958  0.1049  1.3946  0.2059
 7301SOL    HW223578   4.409   8.659   5.810  0.5514 -1.2046  0.1384
 7302SOL     OW23579   6.221   5.662   5.561  0.6705  0.2375  0.4496
 7302SOL    HW123580   6.278   5.641   5.634  1.1222  0.6539  0.2184
 7302SOL    HW223581   6.149   5.599   5.568  0.9196  0.0120  1.0083
 7303SOL     OW23582   2.853   4.475   0.991 -0.4369  0.4958 -0.2189
 7303SOL    HW123583   2.761   4.502   0.990 -0.5614  0.1626  1.0554
 7303SOL    HW223584   2.902   4.557   0.995 -0.6611  0.6865 -1.2277
 7304SOL     OW23585   4.247   0.814   1.274 -0.0495  0.3586 -0.6331
 7304SOL    HW123586   4.329   0.843   1.235  1.4116 -0.3373  1.7335
 7304SOL    HW223587   4.227   0.880   1.340 -0.1915 -0.6121  0.3182
 7305SOL     OW23588   7.587   5.964   1.320  0.0621 -0.1645 -0.0674
 7305SOL    HW123589   7.652   6.006   1.377 -0.6324  0.0070  0.6267
 7305SOL    HW223590   7.636   5.899   1.271  0.7536 -0.0611  0.4690
 7306SOL     OW23591   0.843   0.588   1.841  0.5428  0.5321  0.5114
 7306SOL    HW123592   0.822   0.527   1.771  1.2266 -1.2148  1.7634
 7306SOL    HW223593   0.765   0.591   1.896  0.8772 -0.1164  1.0471
 7307SOL     OW23594   5.102   0.084   2.698  0.1997  0.1565 -0.3580
 7307SOL    HW123595   5.064   0.131   2.772 -0.1595 -1.9107  0.8123
 7307SOL    HW223596   5.101  -0.008   2.723 -0.1205 -0.6525 -3.0256
 7308SOL     OW23597   8.108   7.853   8.503 -0.3109  0.0131  0.0589
 7308SOL    HW123598   8.067   7.938   8.488 -0.1188  0.1651  0.3979
 7308SOL    HW223599   8.054   7.812   8.572 -0.1191  0.0569  0.2362
 7309SOL     OW23600   2.391   2.977   8.029 -0.3770  0.2396 -0.0296
 7309SOL    HW123601   2.396   3.044   7.961  0.2750  0.9038  0.6588
 7309SOL    HW223602   2.334   2.910   7.992 -2.0061  1.7039 -0.2858
 7310SOL     OW23603   3.208   8.092   7.124  0.0160 -0.1242 -0.5922
 7310SOL    HW123604   3.266   8.154   7.080 -0.2089  0.5465  0.0449
 7310SOL    HW223605   3.138   8.076   7.060  0.4014 -0.2071 -0.9967
 7311SOL     OW23606   9.103   8.192   3.402 -0.1191  0.0746  0.0116
 7311SOL    HW123607   9.168   8.123   3.406 -0.4564 -0.5261 -2.7737
 7311SOL    HW223608   9.036   8.166   3.466  0.2523 -1.6615 -0.2563
 7312SOL     OW23609   8.802   9.214   9.061 -0.3225  0.0369  0.0054
 7312SOL    HW123610   8.741   9.207   9.134 -1.8642  0.7969 -1.1551
 7312SOL    HW223611   8.821   9.308   9.055  0.9470 -0.1841  0.3202
 7313SOL     OW23612   0.130   8.324   1.028  0.3931  0.0203 -0.5433
 7313SOL    HW123613   0.132   8.231   1.050  3.8336 -0.0724 -0.7699
 7313SOL    HW223614   0.132   8.325   0.932 -0.7543  0.3645 -0.5748
 7314SOL     OW23615   7.834   3.481   8.252  0.4144  0.2268 -0.2391
 7314SOL    HW123616   7.796   3.477   8.340 -1.5875  2.3895 -0.8954
 7314SOL    HW223617   7.767   3.443   8.196  1.5199 -0.7751 -0.9332
 7315SOL     OW23618   5.493   6.169   2.921 -0.1564 -0.5529  0.0349
 7315SOL    HW123619   5.584   6.180   2.947  0.2867 -0.6156 -1.3838
 7315SOL    HW223620   5.469   6.253   2.881 -0.9339 -0.3203  0.9529
 7316SOL     OW23621   4.998   2.937   7.017 -0.0146 -0.6247 -0.2438
 7316SOL    HW123622   4.911   2.943   6.977 -1.7462  0.8167  3.2132
 7316SOL    HW223623   5.050   3.005   6.975 -1.0616 -0.4672 -1.3170
 7317SOL     OW23624   0.055   2.138   3.277  0.6321 -0.0711 -0.4488
 7317SOL    HW123625   0.072   2.232   3.280 -0.5764  0.1373  0.8686
 7317SOL    HW223626   0.084   2.106   3.363  0.4765 -0.7986 -0.6645
 7318SOL     OW23627   8.589   3.236   4.572 -0.2035  0.0606  0.0872
 7318SOL    HW123628   8.656   3.199   4.515  0.2365 -0.4430  0.9095
 7318SOL    HW223629   8.518   3.172   4.570 -0.4925  0.3994 -0.4702
 7319SOL     OW23630   8.600   5.488   2.821  0.0797  0.1136 -0.5141
 7319SOL    HW123631   8.614   5.545   2.896 -1.3222 -0.8064  0.4940
 7319SOL    HW223632   8.519   5.441   2.841  1.3240 -2.4834 -1.1303
 7320SOL     OW23633   3.705   8.722   6.199 -0.2746 -0.8242  0.4801
 7320SOL    HW123634   3.792   8.715   6.160  1.7396  0.5771  4.2073
 7320SOL    HW223635   3.668   8.634   6.189  1.0693 -1.1919 -2.1082
 7321SOL     OW23636   2.384   6.751   9.574 -0.1893 -0.1293  0.5531
 7321SOL    HW123637   2.309   6.744   9.514  0.3568  0.6588 -0.2582
 7321SOL    HW223638   2.365   6.688   9.643 -1.1207 -0.6661 -0.1566
 7322SOL     OW23639   9.486   1.085   5.028 -0.3995 -0.0722  0.1799
 7322SOL    HW123640   9.552   1.147   5.058 -0.0481 -0.7404  0.8027
 7322SOL    HW223641   9.403   1.128   5.046 -0.1492  0.6102 -0.2597
 7323SOL     OW23642   0.574   9.538   4.463 -0.0401  0.3491  0.5262
 7323SOL    HW123643   0.612   9.456   4.430 -1.4298 -0.1731  0.1353
 7323SOL    HW223644   0.574   9.596   4.387  1.9122  1.1220  1.0570
 7324SOL     OW23645   3.521   3.755   8.914 -0.7501 -0.0955  0.0882
 7324SOL    HW123646   3.523   3.850   8.904 -0.4191 -0.1457 -0.3483
 7324SOL    HW223647   3.605   3.726   8.879 -1.4084 -0.6721 -1.0652
 7325SOL     OW23648   4.840   9.479   4.130  0.1234  0.6037 -0.9803
 7325SOL    HW123649   4.926   9.493   4.170 -0.0228  1.0074 -0.8119
 7325SOL    HW223650   4.790   9.557   4.151 -0.6355 -0.0817 -0.1716
 7326SOL     OW23651   9.312   3.868   9.117  0.2939 -0.0138 -0.1421
 7326SOL    HW123652   9.225   3.908   9.106 -0.1573 -1.4782 -2.7989
 7326SOL    HW223653   9.364   3.905   9.046  1.3697 -0.3647  0.4519
 7327SOL     OW23654   1.843   1.501   6.665 -0.0247 -0.1087 -0.3265
 7327SOL    HW123655   1.882   1.437   6.725  0.6020 -1.3138 -1.9306
 7327SOL    HW223656   1.796   1.447   6.601 -1.9033  1.1932 -0.1031
 7328SOL     OW23657   1.767   1.807   1.011  0.0548  0.2160  0.4865
 7328SOL    HW123658   1.696   1.826   0.950 -0.0925  0.4328  0.7227
 7328SOL    HW223659   1.724   1.773   1.089  0.2656 -0.3537  0.3587
 7329SOL     OW23660   3.146   0.965   7.343 -0.1814 -0.0567  0.1439
 7329SOL    HW123661   3.073   1.023   7.323 -0.2443 -0.5605 -1.1751
 7329SOL    HW223662   3.183   1.000   7.424 -1.3871  0.6762  0.4013
 7330SOL     OW23663   0.898   1.156   5.110 -0.4613  0.0804 -0.1974
 7330SOL    HW123664   0.881   1.073   5.064  1.3650 -0.6968  0.4302
 7330SOL    HW223665   0.820   1.170   5.163 -1.0348 -0.9425 -0.7304
 7331SOL     OW23666   8.914   2.561   4.283  0.4775  0.0284 -0.0196
 7331SOL    HW123667   8.963   2.485   4.314 -0.5622 -0.7111 -0.1130
 7331SOL    HW223668   8.939   2.631   4.343  1.2118 -0.4636  0.2740
 7332SOL     OW23669   3.138   8.299   0.714 -0.4686  0.1551 -0.3038
 7332SOL    HW123670   3.051   8.259   0.719  0.1440 -1.3221 -0.9422
 7332SOL    HW223671   3.126   8.373   0.654 -0.9684 -0.9733 -1.6470
 7333SOL     OW23672   3.411   1.797   1.705  0.4276 -0.3871  0.2650
 7333SOL    HW123673   3.381   1.726   1.762  0.1677  0.4916  1.2395
 7333SOL    HW223674   3.503   1.809   1.727  0.0486  0.7038  1.3240
 7334SOL     OW23675   9.255   3.691   0.194 -0.0625  0.1004  0.5413
 7334SOL    HW123676   9.339   3.703   0.150 -1.0341 -0.9058 -1.7572
 7334SOL    HW223677   9.240   3.597   0.193 -1.3523  0.2809  0.5682
 7335SOL     OW23678   0.822   4.935   6.097 -0.4522 -0.0051 -0.3183
 7335SOL    HW123679   0.804   4.842   6.106 -3.5275  0.6161  1.2746
 7335SOL    HW223680   0.739   4.978   6.117  1.0886  3.1271  0.0117
 7336SOL     OW23681   7.416   1.330   4.256  0.2665  0.0722 -0.3391
 7336SOL    HW123682   7.395   1.326   4.350 -0.0845 -0.0552 -0.4241
 7336SOL    HW223683   7.373   1.409   4.225  2.7985  1.8114  0.2069
 7337SOL     OW23684   0.173   4.823   0.162 -0.1107 -0.0698 -0.2300
 7337SOL    HW123685   0.121   4.904   0.161  0.2942  0.2740 -3.5509
 7337SOL    HW223686   0.112   4.755   0.133  0.3480 -0.3378 -0.5792
 7338SOL     OW23687   1.975   5.134   7.478  0.2485  0.3312  0.2930
 7338SOL    HW123688   1.967   5.100   7.567 -1.0171 -1.2454 -0.3675
 7338SOL    HW223689   1.962   5.058   7.421 -1.6657  1.6977 -1.2675
 7339SOL     OW23690   3.186   0.315   3.138 -0.1762  0.3486 -0.3753
 7339SOL    HW123691   3.187   0.362   3.054 -0.7286 -0.2995 -0.7516
 7339SOL    HW223692   3.103   0.268   3.138  0.0121  0.0089  0.3575
 7340SOL     OW23693   5.381   6.028   9.605  0.0039  0.5825 -0.6318
 7340SOL    HW123694   5.457   5.981   9.638 -0.7110  0.3170  0.7338
 7340SOL    HW223695   5.415   6.114   9.579  0.6994  0.6509  0.4251
 7341SOL     OW23696   6.547   2.091   9.142  0.0372 -0.7673  0.3115
 7341SOL    HW123697   6.618   2.148   9.170  0.2506 -0.2766 -1.1423
 7341SOL    HW223698   6.583   2.042   9.069 -1.4898  0.4833 -1.3800
 7342SOL     OW23699   4.696   0.017   4.848  0.0015  0.1848 -0.1501
 7342SOL    HW123700   4.779  -0.029   4.836 -0.8008 -1.2188 -0.5355
 7342SOL    HW223701   4.663  -0.016   4.932  0.5340  1.9029  0.7762
 7343SOL     OW23702   9.209   7.241   1.807 -0.5144  0.2141  0.0784
 7343SOL    HW123703   9.146   7.177   1.841  1.0659 -0.9262  1.0294
 7343SOL    HW223704   9.278   7.244   1.874 -0.5861  3.0884  0.1727
 7344SOL     OW23705   4.141   8.672   1.407 -0.3662 -0.0171  0.0111
 7344SOL    HW123706   4.069   8.723   1.444  0.1133  1.3242 -0.8264
 7344SOL    HW223707   4.216   8.732   1.407 -0.1738 -0.1387 -2.4743
 7345SOL     OW23708   9.066   7.891   0.987  0.1760 -0.4995  0.3769
 7345SOL    HW123709   9.119   7.831   0.934 -0.6171  0.4544 -1.6113
 7345SOL    HW223710   9.015   7.941   0.923  0.8717  2.3908  1.9010
 7346SOL     OW23711   3.986   4.624   5.059 -0.1883 -0.2010 -0.2271
 7346SOL    HW123712   4.022   4.668   4.982  3.1768 -1.1868  0.5796
 7346SOL    HW223713   3.936   4.551   5.023  1.3001 -0.6387 -1.5432
 7347SOL     OW23714   3.118   4.419   2.368  0.5168  0.1383  0.5820
 7347SOL    HW123715   3.160   4.502   2.391 -1.1799  0.9462  0.9393
 7347SOL    HW223716   3.045   4.443   2.311  0.0291 -1.0973  0.6402
 7348SOL     OW23717   6.289   7.689   5.447  0.2818 -0.4864  0.5436
 7348SOL    HW123718   6.328   7.604   5.470  1.9127  0.3261  0.8676
 7348SOL    HW223719   6.274   7.732   5.531  0.5182  0.0023  0.3400
 7349SOL     OW23720   5.629   3.343   0.529 -0.0044  0.1768 -0.4881
 7349SOL    HW123721   5.673   3.394   0.597 -0.5890  2.3177 -1.6367
 7349SOL    HW223722   5.551   3.308   0.572  0.1436  0.6658  0.1946
 7350SOL     OW23723   2.436   6.431   5.594 -0.2481  0.1054 -0.0269
 7350SOL    HW123724   2.425   6.337   5.610 -1.8012  0.2965  0.2672
 7350SOL    HW223725   2.413   6.442   5.502  0.1090  0.1751 -0.1085
 7351SOL     OW23726   6.477   9.101   7.121  0.4345  0.0114  0.4693
 7351SOL    HW123727   6.526   9.159   7.178  0.8205  0.5073 -0.3472
 7351SOL    HW223728   6.543   9.066   7.060 -0.1991  0.6088 -0.5818
 7352SOL     OW23729   0.267   2.215   0.050 -0.4210  0.1851  0.2377
 7352SOL    HW123730   0.309   2.178  -0.028  0.3052 -1.1289  1.2208
 7352SOL    HW223731   0.264   2.143   0.112 -0.5416  1.3399  1.6181
 7353SOL     OW23732   4.896   7.101   6.329  0.0976 -0.1852 -0.3420
 7353SOL    HW123733   4.924   7.114   6.420  0.5345 -0.0024 -0.5031
 7353SOL    HW223734   4.950   7.029   6.297 -0.5428 -0.7172 -0.2444
 7354SOL     OW23735   7.312   5.540   3.516  0.7484 -0.1597 -0.0957
 7354SOL    HW123736   7.259   5.614   3.546  0.4053 -0.6562  0.5763
 7354SOL    HW223737   7.250   5.483   3.469  0.7278 -0.5996  0.4428
 7355SOL     OW23738   3.081   2.710   9.359  0.1309 -0.0759  0.5499
 7355SOL    HW123739   3.169   2.747   9.368  1.0699 -2.3139  1.4564
 7355SOL    HW223740   3.058   2.680   9.447 -1.5088  0.3442  0.3038
 7356SOL     OW23741   6.186   5.414   1.250  0.0561  0.7571 -0.1934
 7356SOL    HW123742   6.181   5.388   1.342  1.1420  1.5198  0.1042
 7356SOL    HW223743   6.095   5.416   1.220 -0.2019 -1.0331  0.4083
 7357SOL     OW23744   5.650   7.690   6.382 -0.2058  0.6541  0.2283
 7357SOL    HW123745   5.718   7.756   6.372  0.6724 -0.2604  0.0436
 7357SOL    HW223746   5.682   7.632   6.451  0.3244 -1.1213 -1.4081
 7358SOL     OW23747   0.227   5.378   8.214 -0.1024  0.8023  0.2534
 7358SOL    HW123748   0.145   5.339   8.182 -0.0433  1.6511 -0.9906
 7358SOL    HW223749   0.209   5.472   8.216  0.5933  0.9292  0.7350
 7359SOL     OW23750   3.606   6.638   3.017  0.4568  0.3484  1.2600
 7359SOL    HW123751   3.692   6.643   2.975 -0.3066  0.1912 -0.3991
 7359SOL    HW223752   3.552   6.700   2.969 -1.3589 -2.2649 -0.3486
 7360SOL     OW23753   0.021   2.659   3.484  0.1740  0.6639  0.4170
 7360SOL    HW123754   0.010   2.751   3.509 -4.1473  0.5463 -0.3782
 7360SOL    HW223755   0.115   2.651   3.465  1.0217  4.4362  2.0439
 7361SOL     OW23756   5.649   3.015   9.020  0.3136 -0.5090  0.4105
 7361SOL    HW123757   5.664   2.997   8.928  0.0527 -0.2015  0.3055
 7361SOL    HW223758   5.638   2.928   9.060 -1.0585 -0.6076 -0.1105
 7362SOL     OW23759   7.282   5.041   7.537  0.0194  0.4828  0.3212
 7362SOL    HW123760   7.225   5.118   7.543 -2.6518 -1.2032 -1.6102
 7362SOL    HW223761   7.304   5.034   7.444  0.5420 -0.8679  0.5231
 7363SOL     OW23762   2.104   3.101   3.868 -0.4026 -0.0539 -0.4044
 7363SOL    HW123763   2.015   3.088   3.902  0.1453  0.0480  1.1200
 7363SOL    HW223764   2.154   3.028   3.905  0.3815  0.4800 -0.4123
 7364SOL     OW23765   3.781   5.697   2.547 -0.4064 -0.1251 -0.0247
 7364SOL    HW123766   3.743   5.783   2.564 -0.8572 -0.3142 -0.0743
 7364SOL    HW223767   3.852   5.715   2.484  0.2003  0.3445  0.7769
 7365SOL     OW23768   8.777   2.930   4.055  0.6674 -0.1138  0.4564
 7365SOL    HW123769   8.780   2.991   3.981 -0.5247 -0.0908  0.4136
 7365SOL    HW223770   8.737   2.851   4.020  0.3199 -0.1923  1.0125
 7366SOL     OW23771   3.508   5.723   5.344  0.6338  0.4930 -0.0977
 7366SOL    HW123772   3.572   5.664   5.305 -0.0284 -1.2074  1.2528
 7366SOL    HW223773   3.557   5.768   5.414  0.9612  1.0683 -0.6828
 7367SOL     OW23774   9.310   8.401   6.042  0.2463 -0.1654  0.0859
 7367SOL    HW123775   9.372   8.335   6.074 -0.3119 -1.4084 -1.2699
 7367SOL    HW223776   9.326   8.405   5.948 -0.5914  0.7397 -0.0303
 7368SOL     OW23777   0.112   5.335   8.966 -0.1211 -0.8622  0.0775
 7368SOL    HW123778   0.031   5.303   9.006 -0.4211 -2.2249 -1.5260
 7368SOL    HW223779   0.139   5.266   8.906  1.3198  0.3074 -0.7021
 7369SOL     OW23780   3.288   2.738   0.482 -0.7799  0.2326  0.0826
 7369SOL    HW123781   3.243   2.735   0.398 -1.0389 -0.6496  0.2381
 7369SOL    HW223782   3.294   2.646   0.510  0.5680  0.3747  0.3607
 7370SOL     OW23783   9.159   6.779   5.447  0.7327  0.2208  0.1582
 7370SOL    HW123784   9.103   6.840   5.400 -0.0447 -0.5089  0.1304
 7370SOL    HW223785   9.201   6.833   5.514 -0.9587  0.5467  1.0017
 7371SOL     OW23786   0.812   2.014   4.509 -0.1388  0.0387  0.2746
 7371SOL    HW123787   0.725   1.996   4.471  0.1170  2.1456 -1.5838
 7371SOL    HW223788   0.797   2.087   4.569  0.2777  0.1350  0.2644
 7372SOL     OW23789   6.663   5.665   1.208  0.3817  0.2141  0.9125
 7372SOL    HW123790   6.589   5.609   1.232  1.5792 -2.5652 -1.3648
 7372SOL    HW223791   6.631   5.715   1.133  0.0996  0.8897  1.4597
 7373SOL     OW23792   2.691   4.923   5.674  0.0427 -0.1551 -0.5554
 7373SOL    HW123793   2.651   4.942   5.589  1.6214 -0.2801 -1.3468
 7373SOL    HW223794   2.760   4.860   5.655 -0.3988 -1.1517  1.0188
 7374SOL     OW23795   7.937   8.360   6.186 -0.5063 -0.1319 -0.0191
 7374SOL    HW123796   7.881   8.285   6.208 -1.2381 -0.0297 -1.3996
 7374SOL    HW223797   7.885   8.437   6.209 -0.7366 -0.0426 -0.7923
 7375SOL     OW23798   7.818   7.922   3.216  0.2905 -0.1398  0.3073
 7375SOL    HW123799   7.741   7.951   3.166  0.0276  2.5841  2.0679
 7375SOL    HW223800   7.887   7.984   3.192  0.9174 -0.4339  1.3008
 7376SOL     OW23801   8.718   2.686   4.857 -0.3475 -0.3122  0.0567
 7376SOL    HW123802   8.711   2.592   4.871 -1.9955  0.1731  3.5095
 7376SOL    HW223803   8.633   2.711   4.820  0.1409 -0.1571 -0.9993
 7377SOL     OW23804   5.469   7.426   3.442 -0.1078  0.4268  0.1462
 7377SOL    HW123805   5.429   7.499   3.489 -1.7820  0.6718 -1.5393
 7377SOL    HW223806   5.528   7.467   3.379 -0.1074  0.2447  0.0277
 7378SOL     OW23807   4.093   0.916   7.840 -0.2745 -0.0157 -0.2085
 7378SOL    HW123808   4.188   0.910   7.848 -0.4018  0.4484  2.4995
 7378SOL    HW223809   4.077   0.922   7.745  2.0991 -3.7591 -1.0158
 7379SOL     OW23810   4.397   5.633   6.636  0.3112  0.1328 -0.3302
 7379SOL    HW123811   4.320   5.638   6.579 -1.1419 -0.0902  1.5156
 7379SOL    HW223812   4.399   5.718   6.679  1.6822  0.4754 -1.0368
 7380SOL     OW23813   9.342   9.506   9.112  0.6366 -0.0073  0.0595
 7380SOL    HW123814   9.259   9.459   9.119  1.3631 -1.4424 -0.5286
 7380SOL    HW223815   9.346   9.534   9.021  0.3214  1.0168  0.3494
 7381SOL     OW23816   7.368   4.744   7.168  0.2406  0.3034  0.0503
 7381SOL    HW123817   7.320   4.662   7.151  0.8974 -0.1805  0.4561
 7381SOL    HW223818   7.450   4.733   7.121 -0.0265  1.1159 -0.6150
 7382SOL     OW23819   3.483   2.313   8.491 -0.2743 -0.5622  0.4696
 7382SOL    HW123820   3.416   2.381   8.493 -0.2940 -0.5876  1.6248
 7382SOL    HW223821   3.502   2.296   8.583 -0.4167 -2.2685  0.2158
 7383SOL     OW23822   6.537   3.347   0.194 -0.2960  0.2170  0.0044
 7383SOL    HW123823   6.557   3.440   0.182 -0.0036  0.2362  0.6167
 7383SOL    HW223824   6.562   3.306   0.111  0.1801  0.5870 -0.0341
 7384SOL     OW23825   6.199   6.335   8.161  0.2147 -0.5241 -0.1267
 7384SOL    HW123826   6.124   6.333   8.221  0.1313  0.7206 -0.1735
 7384SOL    HW223827   6.267   6.382   8.210 -0.1531  1.3227 -1.3201
 7385SOL     OW23828   9.140   4.416   1.617  0.4931  0.1692  0.1613
 7385SOL    HW123829   9.146   4.368   1.699 -0.3408 -0.6606 -0.2407
 7385SOL    HW223830   9.151   4.507   1.641  0.4411 -0.0834  1.1736
 7386SOL     OW23831   6.627   3.890   0.249 -0.1713  0.0209 -0.1811
 7386SOL    HW123832   6.533   3.882   0.231 -0.6244 -0.7897  2.2060
 7386SOL    HW223833   6.645   3.984   0.244 -1.3658  0.2953  0.4434
 7387SOL     OW23834   0.510   1.171   4.694 -0.1213  0.2188  0.3677
 7387SOL    HW123835   0.583   1.228   4.718  0.5338 -1.3229  2.4168
 7387SOL    HW223836   0.435   1.206   4.743  0.1337 -0.2522  1.1232
 7388SOL     OW23837   6.815   4.952   2.285 -0.4851 -0.0174  0.3110
 7388SOL    HW123838   6.890   4.991   2.329 -0.2521 -0.4886  0.3401
 7388SOL    HW223839   6.805   5.003   2.205 -1.8436  1.8467  1.5724
 7389SOL     OW23840   5.094   9.340   1.126  0.0583  0.2885 -0.1340
 7389SOL    HW123841   5.081   9.434   1.132  0.8055  0.3710  0.3253
 7389SOL    HW223842   5.097   9.322   1.032  1.7358  1.0118 -0.2556
 7390SOL     OW23843   3.210   4.761   9.633  0.4666 -0.3012  0.0641
 7390SOL    HW123844   3.187   4.792   9.545 -0.3338 -2.2747 -0.4685
 7390SOL    HW223845   3.201   4.839   9.688 -1.0329  0.5401 -1.2620
 7391SOL     OW23846   1.413   1.254   5.892  0.0461  0.3122 -0.0308
 7391SOL    HW123847   1.472   1.189   5.855  1.6305  0.7634  1.6102
 7391SOL    HW223848   1.369   1.291   5.815 -0.4789 -2.2031 -1.0644
 7392SOL     OW23849   1.069   6.266   8.145  0.6456 -0.3225  0.3167
 7392SOL    HW123850   1.053   6.319   8.067  0.7334 -1.1155 -0.2499
 7392SOL    HW223851   0.991   6.210   8.151 -0.3920  1.1969  2.0420
 7393SOL     OW23852   3.504   4.731   2.231  0.2329 -0.6700 -0.1491
 7393SOL    HW123853   3.511   4.701   2.322  0.2305  2.3865  0.9975
 7393SOL    HW223854   3.590   4.767   2.211 -0.3760  0.6155 -0.5604
 7394SOL     OW23855   6.132   8.673   7.322  0.4704  0.3001  0.2505
 7394SOL    HW123856   6.206   8.702   7.375  0.3492  2.0419 -0.4708
 7394SOL    HW223857   6.142   8.718   7.239 -0.7283 -0.4063 -0.3084
 7395SOL     OW23858   7.450   1.989   2.678 -0.4299 -0.1372  0.2451
 7395SOL    HW123859   7.381   2.023   2.621 -0.2361 -0.5032 -0.2138
 7395SOL    HW223860   7.524   2.048   2.664 -0.0953 -0.7176 -0.5478
 7396SOL     OW23861   1.265   8.681   5.023  0.5260 -0.0967 -0.1406
 7396SOL    HW123862   1.331   8.686   5.092  0.8042 -1.4328 -0.2693
 7396SOL    HW223863   1.227   8.593   5.033  1.4640 -0.8433 -2.4537
 7397SOL     OW23864   5.909   3.849   4.113 -0.1881 -0.4513 -0.0637
 7397SOL    HW123865   5.918   3.755   4.131  0.7457 -0.7579 -1.9014
 7397SOL    HW223866   5.865   3.853   4.028 -1.5600  0.8405  0.6482
 7398SOL     OW23867   7.593   1.579   0.530  0.0316 -0.4767  0.9243
 7398SOL    HW123868   7.651   1.534   0.592  0.7570  0.6878  1.1334
 7398SOL    HW223869   7.652   1.614   0.463 -0.3203  1.1931  1.4301
 7399SOL     OW23870   4.730   9.539   7.216 -0.2314  0.2005 -0.1843
 7399SOL    HW123871   4.695   9.617   7.260  0.2604 -0.8794  2.2593
 7399SOL    HW223872   4.806   9.571   7.168 -0.6606  1.4006 -0.1094
 7400SOL     OW23873   2.750   2.476   0.625  0.2868  0.2284  0.0114
 7400SOL    HW123874   2.679   2.501   0.566 -1.9767 -1.9350  1.6337
 7400SOL    HW223875   2.807   2.420   0.572 -1.4902 -1.3525 -0.3205
 7401SOL     OW23876   7.496   6.856   5.826  0.0411 -0.3730 -0.1542
 7401SOL    HW123877   7.450   6.808   5.757 -0.1974 -0.8494  0.3373
 7401SOL    HW223878   7.588   6.853   5.799  0.0792 -1.4299  0.0542
 7402SOL     OW23879   0.468   1.714   6.849 -0.2121 -0.3766  0.2219
 7402SOL    HW123880   0.379   1.683   6.868  0.6511 -2.2120  1.5620
 7402SOL    HW223881   0.456   1.777   6.779 -2.6834  0.1601  1.0063
 7403SOL     OW23882   1.193   9.488   4.653 -0.5396  0.3103  0.2956
 7403SOL    HW123883   1.249   9.548   4.702 -1.1357  2.6584 -1.6779
 7403SOL    HW223884   1.236   9.403   4.661  0.9812  1.1805  2.2899
 7404SOL     OW23885   3.803   5.364   3.631  0.5042  0.5001  0.7093
 7404SOL    HW123886   3.849   5.416   3.565  1.8454  1.9471  2.6449
 7404SOL    HW223887   3.843   5.391   3.714 -2.2247  0.0218  2.3012
 7405SOL     OW23888   7.583   4.734   6.103 -0.3520  0.3188  0.2698
 7405SOL    HW123889   7.557   4.695   6.187 -2.0416  2.9199  1.0708
 7405SOL    HW223890   7.678   4.729   6.103 -0.3780 -1.1571  1.6022
 7406SOL     OW23891   5.872   2.700   1.031  0.2390  0.2110 -0.7767
 7406SOL    HW123892   5.871   2.770   1.097  0.0706 -0.4911 -0.0146
 7406SOL    HW223893   5.951   2.650   1.051 -1.4721 -1.9823  1.0559
 7407SOL     OW23894   4.171   5.637   6.492 -0.6928  0.8727  0.3704
 7407SOL    HW123895   4.078   5.660   6.491 -1.1603 -0.8177 -0.9933
 7407SOL    HW223896   4.190   5.614   6.401  0.7932  0.2311  0.8183
 7408SOL     OW23897   8.779   2.419   4.954  0.5543  0.2552 -0.1444
 7408SOL    HW123898   8.845   2.416   5.023  0.7517 -1.1848 -0.3700
 7408SOL    HW223899   8.822   2.381   4.877 -0.1945  0.3040 -0.5994
 7409SOL     OW23900   5.406   1.880   2.350 -0.3936  0.2622 -0.4364
 7409SOL    HW123901   5.401   1.892   2.445 -0.0646 -0.5333 -0.3072
 7409SOL    HW223902   5.486   1.925   2.324 -1.3476  1.9284 -0.6002
 7410SOL     OW23903   3.819   1.133   3.102 -0.6325 -1.1165 -0.4921
 7410SOL    HW123904   3.889   1.091   3.153 -0.7294 -1.5286 -0.6919
 7410SOL    HW223905   3.855   1.140   3.014 -1.3908 -2.7526 -0.9777
 7411SOL     OW23906   1.019   6.437   7.958 -0.4719  0.2876  0.3637
 7411SOL    HW123907   0.960   6.508   7.985 -1.1625 -0.1602  0.0478
 7411SOL    HW223908   1.023   6.444   7.863  0.5585  0.7570  0.4275
 7412SOL     OW23909   2.469   9.333   1.722 -0.4823 -0.0449  0.2680
 7412SOL    HW123910   2.467   9.413   1.774 -2.1192  0.0349  0.1432
 7412SOL    HW223911   2.383   9.330   1.680  0.8418  0.0935 -2.7676
 7413SOL     OW23912   9.574   6.168   7.259  0.1177 -0.0935 -0.0225
 7413SOL    HW123913   9.598   6.249   7.304 -0.4779  0.2892 -0.3995
 7413SOL    HW223914   9.644   6.107   7.283  2.2171  1.3162 -2.0796
 7414SOL     OW23915   7.598   3.886   2.398 -0.5157  0.1239 -0.4652
 7414SOL    HW123916   7.568   3.953   2.459  1.2822  0.2819  0.3229
 7414SOL    HW223917   7.561   3.805   2.432 -0.3933  0.3558  0.2446
 7415SOL     OW23918   8.037   7.057   0.908 -0.1842 -0.1292  0.1063
 7415SOL    HW123919   8.057   7.114   0.982  0.1589 -2.3473  1.8340
 7415SOL    HW223920   8.112   6.999   0.902 -1.1623 -1.3799 -0.5641
 7416SOL     OW23921   2.460   3.750   8.401 -0.4110 -0.3692  0.4032
 7416SOL    HW123922   2.487   3.736   8.492  0.1603 -3.1610 -0.1059
 7416SOL    HW223923   2.525   3.811   8.365  0.0654 -0.2095  1.5117
 7417SOL     OW23924   4.287   1.440   7.018  0.1037 -0.4499 -0.7346
 7417SOL    HW123925   4.223   1.369   7.014  0.0036 -0.3168 -2.4208
 7417SOL    HW223926   4.354   1.416   6.954  1.3865 -0.2222  0.4698
 7418SOL     OW23927   9.400   9.125   6.744  0.1034 -0.0253  0.1837
 7418SOL    HW123928   9.409   9.031   6.726  0.9264  0.2806 -1.1192
 7418SOL    HW223929   9.487   9.161   6.728 -0.1005  0.9026  1.1015
 7419SOL     OW23930   1.414   2.313   1.228 -0.1768  0.4137 -0.0999
 7419SOL    HW123931   1.326   2.308   1.264 -0.3707  1.6360 -0.3574
 7419SOL    HW223932   1.467   2.257   1.286 -1.2226 -0.9099 -0.3571
 7420SOL     OW23933   4.973   3.641   8.065  0.5004 -0.8727  0.0109
 7420SOL    HW123934   4.885   3.677   8.073  0.8954  0.1999 -0.2348
 7420SOL    HW223935   5.016   3.664   8.148  0.6718 -1.0439 -0.0291
 7421SOL     OW23936   2.655   8.405   4.644  0.4119 -0.0437  0.0192
 7421SOL    HW123937   2.688   8.346   4.712  3.0576  0.4153 -0.7367
 7421SOL    HW223938   2.592   8.353   4.595 -2.0003 -0.2402  3.0146
 7422SOL     OW23939   0.585   5.790   4.094  0.0579  0.2712  0.0976
 7422SOL    HW123940   0.660   5.741   4.061  0.4446  0.9559 -0.0556
 7422SOL    HW223941   0.545   5.828   4.016  1.8336  3.1253  0.4301
 7423SOL     OW23942   8.743   0.891   1.833 -0.5079 -0.2067  0.0139
 7423SOL    HW123943   8.811   0.843   1.880 -1.3964  0.3215  1.9173
 7423SOL    HW223944   8.665   0.836   1.842 -0.5883 -0.3429 -1.3216
 7424SOL     OW23945   3.358   4.130   8.729 -0.0969 -1.0858 -0.4896
 7424SOL    HW123946   3.375   4.192   8.658  1.1663 -0.5773  0.2055
 7424SOL    HW223947   3.339   4.047   8.686  0.1253 -0.6532 -1.4309
 7425SOL     OW23948   7.961   6.911   2.781  0.2951 -0.2423  0.1373
 7425SOL    HW123949   8.012   6.888   2.703  1.3046  1.9237  0.1058
 7425SOL    HW223950   7.990   6.849   2.848 -0.6942 -2.2423 -1.1758
 7426SOL     OW23951   7.157   2.135   8.809  0.8664  0.5741  0.2797
 7426SOL    HW123952   7.225   2.195   8.840  2.1055 -0.7491  0.2329
 7426SOL    HW223953   7.170   2.130   8.715  0.3758  0.7129  0.2067
 7427SOL     OW23954   5.541   6.758   4.459 -0.3643  0.5266  0.1143
 7427SOL    HW123955   5.610   6.763   4.393  0.1199  1.5371  0.6694
 7427SOL    HW223956   5.467   6.805   4.420 -1.3866 -1.9974 -1.1816
 7428SOL     OW23957   1.276   0.737   9.100 -0.1985  0.1989  0.5953
 7428SOL    HW123958   1.306   0.737   9.009 -0.6280  0.1790  0.4550
 7428SOL    HW223959   1.293   0.827   9.131  0.4596  0.0557  0.6692
 7429SOL     OW23960   0.320   6.035   6.921 -0.1599 -0.7712  0.2172
 7429SOL    HW123961   0.237   5.990   6.909 -1.1108  1.0169 -0.1666
 7429SOL    HW223962   0.300   6.128   6.910  2.1159 -0.3508 -1.2329
 7430SOL     OW23963   3.976   3.753   8.447  0.2193 -0.0363 -0.2572
 7430SOL    HW123964   3.955   3.715   8.361 -0.0330 -0.5846  0.0402
 7430SOL    HW223965   3.985   3.677   8.505 -0.7394  0.3777  0.4532
 7431SOL     OW23966   2.513   8.988   6.064 -0.1938 -0.3830 -0.1013
 7431SOL    HW123967   2.603   8.980   6.094  0.0986 -2.0638 -1.2429
 7431SOL    HW223968   2.461   8.945   6.131 -0.3932  2.0740  1.4082
 7432SOL     OW23969   5.792   3.546   9.456  0.4210  0.1533 -0.5129
 7432SOL    HW123970   5.739   3.470   9.432 -0.7519  0.4200  1.0511
 7432SOL    HW223971   5.869   3.509   9.500 -0.2778 -0.1408  0.4855
 7433SOL     OW23972   0.655   4.884   3.411 -0.0389 -0.4437 -0.0640
 7433SOL    HW123973   0.635   4.813   3.472 -0.5862 -0.3276 -0.1046
 7433SOL    HW223974   0.570   4.921   3.388  0.2385  0.2324 -0.0383
 7434SOL     OW23975   6.135   2.578   4.732 -0.3971 -0.1254  0.4107
 7434SOL    HW123976   6.192   2.592   4.656 -1.1732 -1.8926 -0.5580
 7434SOL    HW223977   6.070   2.648   4.727 -0.1177  0.0950 -0.2474
 7435SOL     OW23978   8.254   7.063   1.451 -0.8447 -0.0856 -0.1520
 7435SOL    HW123979   8.338   7.051   1.407 -0.2332 -0.2568  1.0183
 7435SOL    HW223980   8.190   7.069   1.380  0.4381  2.6836 -1.2215
 7436SOL     OW23981   2.904   1.268   3.638  0.3940 -0.6629  0.1393
 7436SOL    HW123982   2.952   1.247   3.557 -0.4195 -0.6196 -0.3713
 7436SOL    HW223983   2.936   1.205   3.702  0.7699 -0.9547 -0.3257
 7437SOL     OW23984   7.561   6.478   7.998 -0.2948  0.4970  0.2179
 7437SOL    HW123985   7.576   6.572   7.998 -0.8095  0.5840 -0.1350
 7437SOL    HW223986   7.554   6.454   8.090 -2.2709  1.1663  0.2923
 7438SOL     OW23987   7.856   0.014   9.056  0.2754  0.3523 -0.3599
 7438SOL    HW123988   7.920   0.004   8.986 -0.5438  0.8518 -1.2003
 7438SOL    HW223989   7.772  -0.011   9.016 -0.2223  0.7696  0.3961
 7439SOL     OW23990   1.823   1.678   5.452  0.1231 -0.4249 -0.2643
 7439SOL    HW123991   1.885   1.650   5.384  0.4359 -0.1631 -0.0903
 7439SOL    HW223992   1.873   1.739   5.506 -0.0472 -0.8348  0.3588
 7440SOL     OW23993   4.965   2.926   8.301  0.3976 -0.7092 -0.2604
 7440SOL    HW123994   4.906   2.949   8.230  2.9219 -0.7265 -2.5049
 7440SOL    HW223995   4.999   3.010   8.333  1.2234 -0.7906 -0.8896
 7441SOL     OW23996   9.267   1.574   3.041  0.9754 -0.5102  0.1133
 7441SOL    HW123997   9.348   1.522   3.044  1.6364  0.5239  0.9556
 7441SOL    HW223998   9.296   1.663   3.062 -0.6246 -0.4126  2.1554
 7442SOL     OW23999   9.412   1.343   1.868  0.2474 -0.1704  0.1318
 7442SOL    HW124000   9.485   1.405   1.875  0.6243 -0.4164 -1.3883
 7442SOL    HW224001   9.404   1.307   1.956 -0.8464  2.9439  1.4682
 7443SOL     OW24002   5.652   2.650   7.406  0.4887 -0.2093 -0.1729
 7443SOL    HW124003   5.639   2.680   7.316  0.9703  0.4293 -0.0333
 7443SOL    HW224004   5.615   2.719   7.460  0.9540 -0.1961  0.1364
 7444SOL     OW24005   0.019   3.436   6.926 -0.1245 -0.5956 -0.3035
 7444SOL    HW124006   0.016   3.531   6.912 -0.8271 -0.8037 -1.6452
 7444SOL    HW224007   0.011   3.426   7.021  0.9330  0.7204 -0.0496
 7445SOL     OW24008   5.873   5.966   5.811 -0.0490 -0.0874  0.1826
 7445SOL    HW124009   5.915   5.926   5.735  0.3757 -1.7244  1.2179
 7445SOL    HW224010   5.927   6.043   5.830 -0.6488  0.8159 -1.6281
 7446SOL     OW24011   3.521   2.026   5.301  0.1456  0.2502 -0.7373
 7446SOL    HW124012   3.560   2.064   5.380  0.2551 -1.2541 -0.0269
 7446SOL    HW224013   3.576   2.056   5.229  1.9413 -0.8310  0.1064
 7447SOL     OW24014   0.872   1.008   3.683  0.0214 -0.0878 -0.4068
 7447SOL    HW124015   0.888   1.100   3.659  0.3559 -0.1943 -0.5888
 7447SOL    HW224016   0.883   0.960   3.601  0.1740 -0.3338 -0.2424
 7448SOL     OW24017   9.408   9.491   2.207  0.1651  0.7191 -0.4443
 7448SOL    HW124018   9.401   9.567   2.264  0.6771  0.1112  0.4502
 7448SOL    HW224019   9.320   9.480   2.170 -0.2303  0.9924  0.3975
 7449SOL     OW24020   8.493   9.286   5.739  0.3585  0.3369 -0.0180
 7449SOL    HW124021   8.568   9.271   5.796 -0.2577 -0.8843  0.5151
 7449SOL    HW224022   8.417   9.262   5.792 -0.3836  1.1084 -0.6953
 7450SOL     OW24023   3.217   0.714   5.061  0.5239 -0.0662 -0.2954
 7450SOL    HW124024   3.301   0.736   5.022  0.3038 -1.5815 -1.7685
 7450SOL    HW224025   3.237   0.647   5.126  0.4528 -0.5579 -0.7734
 7451SOL     OW24026   9.401   0.088   2.621  0.4097  0.0784  0.0560
 7451SOL    HW124027   9.393   0.122   2.532 -0.0317 -0.0340  0.0491
 7451SOL    HW224028   9.320   0.115   2.664  0.2883 -0.5043  0.2035
 7452SOL     OW24029   3.481   6.261   8.992 -0.3598  0.3080  0.0683
 7452SOL    HW124030   3.562   6.252   9.043 -0.8397  1.0450  1.0016
 7452SOL    HW224031   3.421   6.198   9.032  0.4668 -2.1318 -2.2501
 7453SOL     OW24032   7.051   9.148   2.278 -0.3208  0.1247 -0.6665
 7453SOL    HW124033   7.049   9.122   2.186 -0.2836  2.3905 -1.3684
 7453SOL    HW224034   6.963   9.181   2.297 -0.0990  0.4582 -0.1596
 7454SOL     OW24035   8.812   3.423   8.786 -0.0640  0.2204  0.2580
 7454SOL    HW124036   8.859   3.424   8.870 -0.8298  1.5158  0.7049
 7454SOL    HW224037   8.735   3.478   8.801 -1.6797 -1.7192 -0.4918
 7455SOL     OW24038   6.141   5.602   7.119  0.3988 -0.8196 -0.5050
 7455SOL    HW124039   6.205   5.663   7.083 -0.2969 -0.3493 -0.9759
 7455SOL    HW224040   6.076   5.658   7.160 -0.6259 -1.1890 -1.5617
 7456SOL     OW24041   4.420   1.862   7.449 -0.1419  0.4037 -0.1048
 7456SOL    HW124042   4.409   1.768   7.457 -0.8909  0.4775 -0.1956
 7456SOL    HW224043   4.455   1.890   7.534  0.3415  0.0105 -0.1744
 7457SOL     OW24044   2.940   9.338   1.750  0.2254 -0.3284 -0.0153
 7457SOL    HW124045   2.995   9.401   1.704 -1.3287  1.0201 -0.1337
 7457SOL    HW224046   2.913   9.276   1.683  1.2689 -0.7873 -0.0282
 7458SOL     OW24047   6.822   1.629   9.493 -0.5064 -0.1124  0.4201
 7458SOL    HW124048   6.813   1.576   9.572 -1.1463 -1.6385 -0.6345
 7458SOL    HW224049   6.750   1.601   9.437  0.6903 -0.0183 -1.2251
 7459SOL     OW24050   6.205   5.833   8.495 -0.1795 -0.8727 -0.1862
 7459SOL    HW124051   6.197   5.816   8.401 -1.2889  1.5116 -0.6252
 7459SOL    HW224052   6.115   5.830   8.527  0.1853 -1.6172  0.8143
 7460SOL     OW24053   1.961   3.465   5.166  0.0211 -0.0944  0.0191
 7460SOL    HW124054   2.004   3.440   5.084 -0.0741  0.4782 -0.2110
 7460SOL    HW224055   1.869   3.478   5.143 -0.0156  0.0236  0.2225
 7461SOL     OW24056   0.578   5.590   3.688  0.1420 -0.3348 -0.2732
 7461SOL    HW124057   0.622   5.506   3.676  0.0363 -0.3020 -0.9295
 7461SOL    HW224058   0.640   5.644   3.736 -0.2430 -1.1652  1.2260
 7462SOL     OW24059   5.403   9.528   1.721 -0.0831  0.0390  0.1924
 7462SOL    HW124060   5.371   9.611   1.757 -3.2527 -1.2153  0.6333
 7462SOL    HW224061   5.332   9.466   1.738  1.3171 -2.3179 -1.8767
 7463SOL     OW24062   0.676   9.097   1.624  0.1108  0.4151  0.2226
 7463SOL    HW124063   0.768   9.094   1.648 -0.2604 -2.2477  1.7896
 7463SOL    HW224064   0.668   9.036   1.551 -0.6315 -0.8114  1.2831
 7464SOL     OW24065   1.664   2.505   8.993 -0.6494  0.1701 -0.0311
 7464SOL    HW124066   1.581   2.458   9.005 -1.4857  1.3983 -0.7801
 7464SOL    HW224067   1.685   2.492   8.901 -0.2818  0.2951  0.0364
 7465SOL     OW24068   4.174   1.105   5.187  0.0815 -0.8143  0.3884
 7465SOL    HW124069   4.138   1.017   5.200  0.0841 -0.6485  1.6674
 7465SOL    HW224070   4.137   1.134   5.104 -0.4799 -1.7542  0.2958
 7466SOL     OW24071   7.680   3.494   0.305  0.6515 -0.3900 -0.6368
 7466SOL    HW124072   7.694   3.580   0.345  2.9136 -0.9357 -0.1402
 7466SOL    HW224073   7.683   3.433   0.379  1.3099 -1.0886 -1.2251
 7467SOL     OW24074   1.529   9.022   2.039 -0.3215 -0.4173 -0.1085
 7467SOL    HW124075   1.494   9.087   1.979 -1.4987  0.0534  1.0469
 7467SOL    HW224076   1.583   9.071   2.101  0.3980 -0.8190 -0.3979
 7468SOL     OW24077   0.850   9.116   7.617  0.0549 -0.1173 -0.0933
 7468SOL    HW124078   0.839   9.117   7.522  2.8090 -0.8563 -0.5016
 7468SOL    HW224079   0.883   9.204   7.639  1.6132 -0.6452 -0.1973
 7469SOL     OW24080   5.688   6.773   5.665 -0.5592 -0.1252 -0.4114
 7469SOL    HW124081   5.707   6.681   5.648 -1.9159 -0.4909 -0.0322
 7469SOL    HW224082   5.650   6.805   5.583 -1.1582 -0.2098 -0.1682
 7470SOL     OW24083   1.403   0.726   0.688  0.0652  1.0320 -0.3535
 7470SOL    HW124084   1.360   0.688   0.764  1.5473  1.3378  0.6865
 7470SOL    HW224085   1.434   0.811   0.718  0.9076  1.0451 -1.2065
 7471SOL     OW24086   9.397   3.651   1.474  0.2220 -0.2547  0.5690
 7471SOL    HW124087   9.447   3.697   1.541 -1.8154 -0.5280  2.3801
 7471SOL    HW224088   9.393   3.560   1.505  0.3132 -0.6844 -0.6066
 7472SOL     OW24089   3.016   5.414   7.009  0.0764 -0.3412 -0.2902
 7472SOL    HW124090   2.989   5.489   6.958  0.5671 -0.2427 -0.4149
 7472SOL    HW224091   2.998   5.338   6.953  0.9895 -0.2081 -0.7942
 7473SOL     OW24092   2.058   9.535   5.903  0.7762 -0.4991 -0.9596
 7473SOL    HW124093   2.078   9.625   5.929  0.7656 -0.5142 -0.8998
 7473SOL    HW224094   1.976   9.514   5.948  1.2064 -0.8244 -0.3155
 7474SOL     OW24095   8.958   3.323   8.015 -0.6910  0.3429  0.0276
 7474SOL    HW124096   9.051   3.344   8.024 -0.4570 -0.6161 -0.0547
 7474SOL    HW224097   8.931   3.370   7.936  0.3006 -1.1595 -1.2781
 7475SOL     OW24098   3.117   7.695   0.535  0.8639 -0.3566 -0.2130
 7475SOL    HW124099   3.105   7.660   0.446 -0.4713 -1.1541  0.2593
 7475SOL    HW224100   3.044   7.756   0.546  2.2573  1.4492 -0.4281
 7476SOL     OW24101   0.953   2.486   8.316  0.5579 -0.1306  0.2405
 7476SOL    HW124102   0.900   2.448   8.245 -0.0076  0.2856  0.4286
 7476SOL    HW224103   0.905   2.565   8.342  1.5912  0.6052 -0.0003
 7477SOL     OW24104   4.115   3.367   7.687  0.1811 -0.7829 -0.1427
 7477SOL    HW124105   4.156   3.281   7.684  0.5428 -0.6077 -0.3362
 7477SOL    HW224106   4.023   3.350   7.703 -0.0889 -1.3085 -2.0457
 7478SOL     OW24107   7.062   8.498   8.811  0.3636 -0.4126  0.3887
 7478SOL    HW124108   7.042   8.405   8.813 -0.8415 -0.2128 -1.1068
 7478SOL    HW224109   7.010   8.535   8.882  0.3797 -0.7898  0.6010
 7479SOL     OW24110   8.661   4.963   1.364  0.6616  0.0439 -0.4725
 7479SOL    HW124111   8.587   4.986   1.308 -0.7763 -0.9173  0.9656
 7479SOL    HW224112   8.643   4.874   1.393  1.4794  0.4170  1.3151
 7480SOL     OW24113   1.602   6.521   2.123  0.1284  0.0011  0.2712
 7480SOL    HW124114   1.634   6.465   2.053  1.3959  0.1090  0.7353
 7480SOL    HW224115   1.513   6.544   2.097  0.4422 -0.2660 -1.1034
 7481SOL     OW24116   9.227   8.995   3.053  0.4160 -0.2793 -0.3034
 7481SOL    HW124117   9.265   9.083   3.049  1.5269 -0.7521 -0.2850
 7481SOL    HW224118   9.188   8.982   2.966 -2.4169  1.3531  0.5756
 7482SOL     OW24119   0.113   5.521   7.137 -0.5014  0.2576 -0.3268
 7482SOL    HW124120   0.088   5.432   7.111  0.2280 -0.6137  1.7417
 7482SOL    HW224121   0.208   5.524   7.123 -0.4943  0.6587 -0.2009
 7483SOL     OW24122   6.763   0.719   5.487  0.3232 -0.1512  0.2999
 7483SOL    HW124123   6.850   0.682   5.500 -0.0159 -1.1106 -0.0977
 7483SOL    HW224124   6.724   0.720   5.574 -0.1593 -2.0220  0.1375
 7484SOL     OW24125   8.801   6.944   7.804 -0.1740  0.7643 -0.4257
 7484SOL    HW124126   8.722   6.937   7.752 -0.4533 -0.7374  0.1430
 7484SOL    HW224127   8.777   6.999   7.878 -0.7376  0.2167 -0.1942
 7485SOL     OW24128   4.682   4.189   0.702 -0.2961 -0.2508 -0.3253
 7485SOL    HW124129   4.632   4.122   0.654 -0.6286 -0.9091  0.8970
 7485SOL    HW224130   4.734   4.232   0.634  0.9316 -2.6114 -1.0129
 7486SOL     OW24131   5.893   0.721   7.931 -0.9703 -0.0045  0.7797
 7486SOL    HW124132   5.954   0.751   7.864  0.3569 -1.1608  1.4317
 7486SOL    HW224133   5.904   0.783   8.003 -0.4786 -0.2697  0.9366
 7487SOL     OW24134   3.970   7.161   8.782  0.2252  0.0306  0.0129
 7487SOL    HW124135   4.027   7.238   8.786  1.4181 -0.8308  0.2297
 7487SOL    HW224136   4.004   7.102   8.850 -0.2362 -0.9659 -0.5907
 7488SOL     OW24137   4.199   9.059   1.375 -0.4475  0.8992 -0.0618
 7488SOL    HW124138   4.231   9.130   1.432  2.4558 -1.5809  1.6949
 7488SOL    HW224139   4.175   8.989   1.435 -0.1331 -0.7636 -1.7895
 7489SOL     OW24140   4.692   8.489   6.401  0.3225 -0.5085 -0.0700
 7489SOL    HW124141   4.730   8.541   6.471  2.3089 -0.1323 -1.3417
 7489SOL    HW224142   4.656   8.555   6.340  3.3142 -0.4044 -1.9520
 7490SOL     OW24143   3.126   8.891   6.691  0.0577  0.7966  0.1581
 7490SOL    HW124144   3.198   8.926   6.638 -0.5500  2.2965  0.2755
 7490SOL    HW224145   3.048   8.931   6.655 -0.8791 -1.4622 -0.5167
 7491SOL     OW24146   7.563   0.584   5.879  0.0844  0.9676 -0.1440
 7491SOL    HW124147   7.547   0.490   5.871 -1.5307  1.0629  1.3499
 7491SOL    HW224148   7.643   0.599   5.828  0.9571 -1.3695  0.4045
 7492SOL     OW24149   9.205   0.509   6.231  0.1834 -0.5384 -0.3985
 7492SOL    HW124150   9.290   0.518   6.188  0.9824  1.6999  1.4112
 7492SOL    HW224151   9.212   0.429   6.283  0.6793 -1.0748 -1.2797
 7493SOL     OW24152   4.156   8.030   9.504  0.0335  0.1551 -0.1000
 7493SOL    HW124153   4.093   7.968   9.539 -0.4165 -0.2667 -1.5970
 7493SOL    HW224154   4.103   8.104   9.473  0.5069  1.0018  1.0126
 7494SOL     OW24155   8.450   7.432   8.242  0.1480 -0.1575 -0.3043
 7494SOL    HW124156   8.434   7.377   8.319  0.2147 -1.8666 -1.4603
 7494SOL    HW224157   8.390   7.398   8.176  0.5967  0.8158 -1.2412
 7495SOL     OW24158   3.643   6.111   4.286  0.0482 -0.1298  0.2375
 7495SOL    HW124159   3.691   6.162   4.221  0.5489 -0.4329  0.3583
 7495SOL    HW224160   3.708   6.093   4.355  0.0757 -1.4735 -0.1122
 7496SOL     OW24161   7.433   5.740   7.241 -0.2763  0.1775  0.9508
 7496SOL    HW124162   7.362   5.697   7.290 -0.8022  0.5711  0.5456
 7496SOL    HW224163   7.481   5.789   7.307 -0.1535 -0.3878  1.2894
 7497SOL     OW24164   9.562   8.748   6.707 -0.8018 -0.4315  0.6288
 7497SOL    HW124165   9.576   8.742   6.613 -0.0338 -2.1251  0.8015
 7497SOL    HW224166   9.642   8.786   6.741 -0.2350 -1.6773  0.7550
 7498SOL     OW24167   5.572   0.293   1.532  0.5180  0.5246  0.1953
 7498SOL    HW124168   5.573   0.320   1.440  0.6419  0.3334  0.1400
 7498SOL    HW224169   5.599   0.201   1.530 -1.6944 -0.1927  0.1807
 7499SOL     OW24170   6.296   5.726   3.012  0.1554 -0.1111  0.6347
 7499SOL    HW124171   6.352   5.668   2.961 -0.9109 -1.4873  0.9546
 7499SOL    HW224172   6.355   5.793   3.047  1.1225  0.1231 -1.2973
 7500SOL     OW24173   9.665   6.730   7.886 -0.3203 -0.0693  0.0788
 7500SOL    HW124174   9.695   6.820   7.873 -0.8876  0.0026 -0.8934
 7500SOL    HW224175   9.727   6.692   7.948  0.1703  0.8656  0.1785
 7501SOL     OW24176   7.140   6.819   7.905 -0.4809  0.4177  0.9091
 7501SOL    HW124177   7.169   6.866   7.827 -3.5022  0.7960 -0.1158
 7501SOL    HW224178   7.153   6.881   7.977  1.0756  0.5619  0.5381
 7502SOL     OW24179   2.849   7.841   1.032 -0.1781 -0.3168 -0.1600
 7502SOL    HW124180   2.756   7.842   1.052 -0.3059  0.9164 -0.7645
 7502SOL    HW224181   2.855   7.867   0.940  0.7395 -0.7807 -0.2484
 7503SOL     OW24182   8.876   5.232   4.675  0.1786 -0.1571 -0.2695
 7503SOL    HW124183   8.963   5.212   4.642  0.0795  0.3855 -0.8616
 7503SOL    HW224184   8.891   5.282   4.755  0.4438  2.1677 -1.6892
 7504SOL     OW24185   2.447   4.913   0.807 -0.1589 -0.7278 -0.1232
 7504SOL    HW124186   2.488   4.997   0.785  1.5668 -0.7590  2.5394
 7504SOL    HW224187   2.357   4.936   0.830 -0.1522  0.1453 -0.8993
 7505SOL     OW24188   8.731   0.636   0.505  0.4672 -0.4890  0.2763
 7505SOL    HW124189   8.650   0.621   0.554  0.0226 -0.7996 -0.5369
 7505SOL    HW224190   8.789   0.679   0.567 -0.5938  0.4306  0.6573
 7506SOL     OW24191   9.349   7.991   8.557 -0.1688 -0.1155  0.0185
 7506SOL    HW124192   9.309   7.971   8.642 -1.0363  1.7851  0.1175
 7506SOL    HW224193   9.442   8.000   8.576 -0.0277 -1.8563  0.3211
 7507SOL     OW24194   4.188   4.846   7.950  0.3127  0.8198  0.1704
 7507SOL    HW124195   4.215   4.755   7.937 -0.3352  0.8588 -1.7472
 7507SOL    HW224196   4.213   4.891   7.869 -1.9725  1.6942 -0.1361
 7508SOL     OW24197   7.453   3.915   8.366  0.7921  0.2759 -0.0469
 7508SOL    HW124198   7.494   3.839   8.408  1.0058 -0.2798 -1.2217
 7508SOL    HW224199   7.483   3.912   8.275 -0.7097  0.6714 -0.5988
 7509SOL     OW24200   6.221   7.385   4.261  0.1938  0.1034 -0.0611
 7509SOL    HW124201   6.133   7.363   4.230 -0.8630  1.0047  2.1165
 7509SOL    HW224202   6.270   7.303   4.252 -1.5410 -1.1123  0.8535
 7510SOL     OW24203   3.102   6.727   3.331 -0.0326 -0.4651  0.0683
 7510SOL    HW124204   3.071   6.816   3.348  0.4391 -0.3119  0.1422
 7510SOL    HW224205   3.028   6.671   3.353 -0.6890 -0.0301 -0.9681
 7511SOL     OW24206   8.384   0.079   6.858 -0.1605 -0.2440  0.2185
 7511SOL    HW124207   8.380   0.023   6.780 -1.7424 -2.5472  1.8496
 7511SOL    HW224208   8.453   0.040   6.911 -0.5295  0.0263  0.8980
 7512SOL     OW24209   4.321   4.065   7.083  0.6214  0.3982  0.1004
 7512SOL    HW124210   4.403   4.015   7.075  0.6791  0.5711 -0.4680
 7512SOL    HW224211   4.264   4.008   7.134  0.8890  0.0037 -0.0305
 7513SOL     OW24212   8.782   4.421   7.058 -0.3346 -0.1914 -0.1486
 7513SOL    HW124213   8.779   4.485   6.986 -2.1940  1.0586  0.9331
 7513SOL    HW224214   8.863   4.373   7.045 -0.4893  0.1272 -2.9577
 7514SOL     OW24215   3.689   7.372   7.633 -0.1820 -0.1226 -0.1931
 7514SOL    HW124216   3.644   7.367   7.717 -2.4140 -0.1350 -1.3240
 7514SOL    HW224217   3.736   7.455   7.635 -0.7073  0.1634  0.8119
 7515SOL     OW24218   1.694   6.012   8.944 -0.2646  0.1983 -0.2703
 7515SOL    HW124219   1.640   5.936   8.966  0.0575 -0.2768 -1.0491
 7515SOL    HW224220   1.770   5.975   8.897 -0.3519  1.0311 -1.1078
 7516SOL     OW24221   9.263   5.069   6.105 -0.1925  0.6628  0.9083
 7516SOL    HW124222   9.316   5.145   6.082 -2.0564  1.4221 -1.1435
 7516SOL    HW224223   9.201   5.101   6.170  0.4471  0.3053  1.7121
 7517SOL     OW24224   5.414   6.038   8.504  0.3184 -0.1683 -0.0439
 7517SOL    HW124225   5.469   6.083   8.569 -0.2187  0.0689  0.2514
 7517SOL    HW224226   5.365   6.108   8.461 -2.0116 -0.5310  1.7769
 7518SOL     OW24227   3.660   8.639   8.466  0.1284 -0.3173  0.2194
 7518SOL    HW124228   3.592   8.604   8.524  0.0106  0.7952  0.7789
 7518SOL    HW224229   3.653   8.586   8.387 -0.2525 -1.3336  0.9135
 7519SOL     OW24230   5.291   5.080   4.873  0.0373  0.0670  0.2659
 7519SOL    HW124231   5.278   5.106   4.964 -0.9242  1.8269 -0.3297
 7519SOL    HW224232   5.386   5.077   4.863  0.1865  1.5732  0.9024
 7520SOL     OW24233   3.669   4.080   6.244 -0.1249 -0.6667 -0.3605
 7520SOL    HW124234   3.709   3.996   6.265 -0.0166 -0.7256 -0.7909
 7520SOL    HW224235   3.742   4.132   6.209 -0.3708 -0.6815 -0.8957
 7521SOL     OW24236   1.665   4.877   9.507 -0.7113 -0.1106  0.3172
 7521SOL    HW124237   1.732   4.819   9.544  0.2862  0.2589 -0.8489
 7521SOL    HW224238   1.638   4.932   9.581 -1.0965 -1.5112  1.2450
 7522SOL     OW24239   8.710   1.514   0.062 -0.0942  0.6241  0.0951
 7522SOL    HW124240   8.775   1.444   0.075  0.7736  1.3424 -0.2765
 7522SOL    HW224241   8.692   1.514  -0.032 -2.6423 -1.2857  0.4713
 7523SOL     OW24242   7.553   3.080   1.583  0.3084 -0.0646 -0.6879
 7523SOL    HW124243   7.602   3.028   1.519 -0.8948 -0.7314 -1.1159
 7523SOL    HW224244   7.485   3.123   1.531  0.9498  1.5239 -0.2499
 7524SOL     OW24245   4.038   7.820   4.531  0.1251  0.1838  0.4144
 7524SOL    HW124246   4.109   7.877   4.562  1.0268  0.5956 -2.1478
 7524SOL    HW224247   3.961   7.876   4.532  0.4595  0.6550  0.4390
 7525SOL     OW24248   2.429   3.003   8.850 -0.3938 -0.2444 -0.0432
 7525SOL    HW124249   2.407   2.926   8.798  0.0694  0.4180 -1.2638
 7525SOL    HW224250   2.345   3.047   8.865 -0.5710 -0.6166  0.0587
 7526SOL     OW24251   7.012   6.592   6.219 -0.2029 -0.6400 -0.4629
 7526SOL    HW124252   7.012   6.634   6.305 -1.4503 -0.1829 -0.6617
 7526SOL    HW224253   6.984   6.661   6.159 -3.5655 -1.9261 -0.6277
 7527SOL     OW24254   3.587   8.636   6.948 -0.7340  0.1425  0.5089
 7527SOL    HW124255   3.627   8.648   7.034 -0.8944  2.6048  0.3241
 7527SOL    HW224256   3.661   8.632   6.887 -0.6137 -1.7585  0.7135
 7528SOL     OW24257   0.714   9.029   9.057 -0.3175  0.2527  0.2933
 7528SOL    HW124258   0.694   8.947   9.102 -0.6837  0.1373 -0.0771
 7528SOL    HW224259   0.650   9.034   8.986  1.7312 -0.7862 -1.7890
 7529SOL     OW24260   9.598   9.632   2.048 -0.2094  0.3998 -0.1991
 7529SOL    HW124261   9.685   9.595   2.065 -0.3005 -0.6343 -1.7198
 7529SOL    HW224262   9.544   9.599   2.119  0.6910  1.2689  0.9113
 7530SOL     OW24263   2.754   2.514   0.267 -0.5339 -0.0021 -0.2475
 7530SOL    HW124264   2.747   2.518   0.172  0.5640  3.3592 -0.2906
 7530SOL    HW224265   2.840   2.477   0.284 -1.1313 -1.5901 -0.4625
 7531SOL     OW24266   8.324   0.152   2.593  0.1068 -0.6045 -0.1971
 7531SOL    HW124267   8.333   0.079   2.532 -0.0949 -0.8590  0.0745
 7531SOL    HW224268   8.293   0.112   2.674 -1.2121 -0.0552 -0.4053
 7532SOL     OW24269   8.609   2.839   0.822  0.1606  0.3570  0.0280
 7532SOL    HW124270   8.550   2.907   0.857 -1.1119 -0.5027 -0.3544
 7532SOL    HW224271   8.696   2.878   0.827 -0.4028  1.5817  0.8760
 7533SOL     OW24272   9.664   9.240   0.076  0.0802 -0.1627  0.2140
 7533SOL    HW124273   9.660   9.216  -0.016 -0.1774 -1.9164  0.6447
 7533SOL    HW224274   9.750   9.209   0.105  0.6677  1.4806  0.2928
 7534SOL     OW24275   0.956   6.745   1.330  0.3862 -0.3181 -0.3764
 7534SOL    HW124276   1.000   6.713   1.251  1.2965  0.6654 -0.2832
 7534SOL    HW224277   0.895   6.811   1.297 -0.1161 -0.7703 -0.3695
 7535SOL     OW24278   6.487   4.867   6.364 -0.2922  0.0035 -0.2527
 7535SOL    HW124279   6.529   4.804   6.305  0.6129  0.3599 -0.0116
 7535SOL    HW224280   6.409   4.895   6.317 -0.6004 -1.1353 -0.4565
 7536SOL     OW24281   6.789   2.267   9.214  0.1140 -0.0891  0.2623
 7536SOL    HW124282   6.831   2.329   9.273 -1.6128  0.7200  0.7060
 7536SOL    HW224283   6.835   2.185   9.229  2.7296  1.1239 -0.6367
 7537SOL     OW24284   3.357   9.282   3.480  0.3955 -0.0007 -0.0268
 7537SOL    HW124285   3.431   9.327   3.440  0.4965  1.7791  1.9567
 7537SOL    HW224286   3.355   9.315   3.570 -3.3046  0.7130 -0.2010
 7538SOL     OW24287   3.368   7.722   8.862  0.3494  0.0695  0.3779
 7538SOL    HW124288   3.296   7.763   8.815  1.5821  1.1006 -0.6624
 7538SOL    HW224289   3.325   7.664   8.925 -1.3807 -0.7785 -1.4685
 7539SOL     OW24290   0.914   8.859   7.082  0.1242  0.2168 -0.0450
 7539SOL    HW124291   0.958   8.817   7.156  0.6430  0.5011 -0.1871
 7539SOL    HW224292   0.977   8.852   7.010 -0.6305 -0.6387 -0.6480
 7540SOL     OW24293   5.533   9.373   4.331 -1.0171  0.2435 -0.0417
 7540SOL    HW124294   5.527   9.429   4.253 -3.3165 -0.3041 -0.3422
 7540SOL    HW224295   5.485   9.421   4.398 -0.9023 -0.2707  0.4140
 7541SOL     OW24296   7.330   4.705   1.361 -0.2378  0.0159 -0.5267
 7541SOL    HW124297   7.419   4.682   1.388 -0.1900  1.7038  0.9447
 7541SOL    HW224298   7.302   4.771   1.424 -2.3621 -0.0912 -1.2668
 7542SOL     OW24299   8.274   2.657   5.978 -0.0353 -0.3846  0.4743
 7542SOL    HW124300   8.222   2.579   5.999 -2.0209  0.7517  0.0335
 7542SOL    HW224301   8.296   2.695   6.063  0.9088 -1.3804  0.6903
 7543SOL     OW24302   8.582   9.075   4.979  0.1849 -0.5395  0.1467
 7543SOL    HW124303   8.602   9.038   5.065  1.1697 -1.8811 -0.6155
 7543SOL    HW224304   8.638   9.152   4.972  0.7585 -0.9313  0.3573
 7544SOL     OW24305   7.845   4.049   6.125 -0.4389  0.6192  0.0095
 7544SOL    HW124306   7.775   4.034   6.062 -0.5206 -0.7235  0.4028
 7544SOL    HW224307   7.912   3.984   6.104  0.7522  1.9308 -0.4172
 7545SOL     OW24308   9.374   2.298   5.105 -0.9638 -0.1168  0.0423
 7545SOL    HW124309   9.298   2.262   5.058 -0.2446 -0.5022 -0.8496
 7545SOL    HW224310   9.397   2.376   5.055 -0.2853 -0.4429 -0.1599
 7546SOL     OW24311   2.526   2.508   3.426 -0.0235  0.5016  0.1186
 7546SOL    HW124312   2.473   2.572   3.379 -0.4462  0.5781  0.6913
 7546SOL    HW224313   2.465   2.437   3.448 -0.2433  1.2152  1.9911
 7547SOL     OW24314   4.846   3.324   4.305  0.4777  0.5014 -0.1300
 7547SOL    HW124315   4.878   3.413   4.320  1.8111 -0.1579  1.1370
 7547SOL    HW224316   4.915   3.282   4.253  0.7520 -0.3237  0.8612
 7548SOL     OW24317   2.025   7.219   6.688 -0.5544  0.1297  0.0413
 7548SOL    HW124318   2.086   7.293   6.689 -0.3317  0.0532 -2.2986
 7548SOL    HW224319   2.075   7.147   6.727  0.5387  0.3412 -0.8905
 7549SOL     OW24320   8.379   1.671   0.229  0.6668 -0.2857 -0.3698
 7549SOL    HW124321   8.428   1.752   0.212 -0.8265  1.0132  1.1240
 7549SOL    HW224322   8.327   1.658   0.150  1.4739 -0.2116 -0.9237
 7550SOL     OW24323   9.588   6.407   7.024  0.7030 -0.6071  0.3485
 7550SOL    HW124324   9.615   6.478   6.965  1.0910 -0.5890  0.5491
 7550SOL    HW224325   9.667   6.355   7.037  0.5904 -0.6721  0.7726
 7551SOL     OW24326   6.565   0.087   7.988 -0.0818 -0.4414 -0.4967
 7551SOL    HW124327   6.559  -0.006   8.012  0.2331 -0.1410  0.8201
 7551SOL    HW224328   6.627   0.089   7.916  0.9336 -1.1351  0.3187
 7552SOL     OW24329   7.233   3.650   8.591 -0.1235  0.2112  0.4614
 7552SOL    HW124330   7.158   3.595   8.567  0.9692 -1.4483  0.7411
 7552SOL    HW224331   7.245   3.708   8.516 -2.1163  1.0238  0.7073
 7553SOL     OW24332   7.728   0.159   4.349  0.1779 -0.1169 -0.6200
 7553SOL    HW124333   7.658   0.194   4.295 -0.6182 -1.9765 -0.8469
 7553SOL    HW224334   7.695   0.166   4.439  0.4699  0.6405 -0.5577
 7554SOL     OW24335   7.835   3.868   8.654 -0.1137 -0.5921 -0.6743
 7554SOL    HW124336   7.810   3.883   8.563  1.6498  0.1741 -1.0661
 7554SOL    HW224337   7.763   3.905   8.705 -1.1261 -1.0282 -1.7312
 7555SOL     OW24338   0.422   6.674   7.919  0.2607 -0.1899 -0.2380
 7555SOL    HW124339   0.450   6.748   7.865  1.0066  0.0174  0.4204
 7555SOL    HW224340   0.424   6.599   7.859  1.6923 -0.0721 -0.3606
 7556SOL     OW24341   5.255   1.357   6.089  0.3322  0.5847  0.3004
 7556SOL    HW124342   5.283   1.307   6.012 -0.7153  0.0777  0.2363
 7556SOL    HW224343   5.227   1.291   6.152  1.0250  1.0067  1.0654
 7557SOL     OW24344   4.630   3.048   1.914 -0.5561 -0.0054  0.9219
 7557SOL    HW124345   4.623   3.133   1.870  1.6548 -1.2367 -2.1142
 7557SOL    HW224346   4.711   3.053   1.965  2.2876 -1.5836 -2.9778
 7558SOL     OW24347   1.755   0.553   2.974  0.6395  0.0621  0.5925
 7558SOL    HW124348   1.821   0.510   2.921  1.3616  0.8796  0.8104
 7558SOL    HW224349   1.804   0.616   3.028 -0.2435  0.2872  1.1545
 7559SOL     OW24350   6.740   6.028   0.077  0.1736  0.1974  0.1018
 7559SOL    HW124351   6.782   6.112   0.058 -0.3062  0.4057 -0.0625
 7559SOL    HW224352   6.724   6.030   0.172  2.9987 -1.0437  0.7064
 7560SOL     OW24353   8.634   6.046   4.293  0.3906 -0.3251 -0.0361
 7560SOL    HW124354   8.563   6.059   4.230  0.7640 -1.5362 -0.7487
 7560SOL    HW224355   8.601   6.083   4.374 -0.1143  1.2743 -0.9322
 7561SOL     OW24356   7.036   7.314   3.750  0.1328 -0.3744 -0.1738
 7561SOL    HW124357   7.091   7.284   3.823  1.0491  0.5126 -0.4748
 7561SOL    HW224358   7.056   7.407   3.741 -1.0564 -0.1447 -0.6329
 7562SOL     OW24359   1.447   9.364   2.990  0.0377  0.1700 -0.4390
 7562SOL    HW124360   1.368   9.313   3.006  1.2530 -2.1991 -1.3833
 7562SOL    HW224361   1.493   9.365   3.074 -0.9918  1.6375  0.1346
 7563SOL     OW24362   7.379   1.718   2.919  0.2727  0.5296  0.0844
 7563SOL    HW124363   7.399   1.665   2.996  0.8571  0.5136 -0.0723
 7563SOL    HW224364   7.422   1.672   2.846 -1.4614 -0.2331 -0.5016
 7564SOL     OW24365   2.528   7.215   7.702  0.1095 -0.2325  0.0460
 7564SOL    HW124366   2.521   7.122   7.680  0.0098 -0.3742  0.6455
 7564SOL    HW224367   2.470   7.226   7.777 -0.8065  0.5680 -0.7484
 7565SOL     OW24368   2.614   9.639   6.519  0.1142 -0.4072 -0.2747
 7565SOL    HW124369   2.608   9.735   6.515 -0.5814 -0.2751  2.4917
 7565SOL    HW224370   2.525   9.609   6.502  0.1514 -0.5344 -0.2413
 7566SOL     OW24371   9.501   9.306   8.232 -0.3038  0.2183 -0.0445
 7566SOL    HW124372   9.552   9.375   8.190  0.3250 -0.9218 -1.2157
 7566SOL    HW224373   9.425   9.295   8.175 -2.8359  2.9573  2.4552
 7567SOL     OW24374   0.996   4.780   8.964 -0.2956 -0.0503 -0.0796
 7567SOL    HW124375   1.062   4.842   8.995  0.3425 -0.8047  0.1083
 7567SOL    HW224376   1.042   4.696   8.961 -0.0251  0.0813 -3.9636
 7568SOL     OW24377   0.244   3.437   1.833  0.8534  0.2799  0.4661
 7568SOL    HW124378   0.210   3.368   1.889 -1.1905 -0.1609 -1.1610
 7568SOL    HW224379   0.178   3.507   1.839  0.7414  0.3457 -1.0550
 7569SOL     OW24380   7.941   3.913   1.924  0.1130 -0.2049  0.4613
 7569SOL    HW124381   7.915   3.866   1.845 -2.8980  3.2938 -0.9225
 7569SOL    HW224382   8.009   3.974   1.896 -1.2958  1.3845  0.3209
 7570SOL     OW24383   6.348   2.184   2.401  0.0021 -0.0789 -0.5667
 7570SOL    HW124384   6.408   2.110   2.411  0.7026  0.3228 -1.6066
 7570SOL    HW224385   6.386   2.236   2.330 -1.8315 -0.0542 -1.5754
 7571SOL     OW24386   6.269   5.873   6.312  0.2411 -0.1176  0.4212
 7571SOL    HW124387   6.202   5.907   6.371  0.1177 -0.4935  0.4995
 7571SOL    HW224388   6.336   5.941   6.310 -0.6181  0.7502 -0.4922
 7572SOL     OW24389   2.485   5.550   6.831  0.1452  0.1095 -0.2351
 7572SOL    HW124390   2.411   5.544   6.770 -1.3793  1.5158  1.3642
 7572SOL    HW224391   2.555   5.498   6.789 -1.4196 -0.5264 -2.2360
 7573SOL     OW24392   3.862   0.839   8.345 -0.2353  0.3086  0.0645
 7573SOL    HW124393   3.876   0.790   8.264 -2.0536 -2.0945  1.0798
 7573SOL    HW224394   3.931   0.808   8.405 -1.7345 -1.6024  0.8964
 7574SOL     OW24395   2.562   7.867   2.000  0.4409  0.1285  0.1226
 7574SOL    HW124396   2.519   7.794   2.045 -1.1326  0.6869 -0.4368
 7574SOL    HW224397   2.495   7.935   1.993  0.9014  0.4123 -2.2714
 7575SOL     OW24398   1.173   1.255   5.136  0.0728  0.4420 -0.0076
 7575SOL    HW124399   1.091   1.241   5.183  0.2386  1.9516  0.8093
 7575SOL    HW224400   1.153   1.234   5.045 -0.4661 -1.8306  0.5767
 7576SOL     OW24401   7.990   5.000   8.877 -0.5614 -0.2574 -0.1882
 7576SOL    HW124402   8.026   4.916   8.850  0.0921 -0.0836  0.1400
 7576SOL    HW224403   7.929   4.978   8.948  0.2264 -0.3714  0.4609
 7577SOL     OW24404   8.035   6.074   7.653 -0.0794 -0.0406  0.1392
 7577SOL    HW124405   8.091   6.035   7.586 -0.4156 -1.4182  0.6301
 7577SOL    HW224406   8.001   6.000   7.702 -0.3876  0.9027  1.4079
 7578SOL     OW24407   6.232   2.647   3.952  0.1818 -0.3645  0.3630
 7578SOL    HW124408   6.238   2.728   4.003 -1.6509 -0.7456  1.2310
 7578SOL    HW224409   6.323   2.629   3.927  0.6299  2.0448 -0.0314
 7579SOL     OW24410   2.129   8.191   7.055  0.0570  0.0216  0.3477
 7579SOL    HW124411   2.154   8.099   7.063  0.2376  0.1500  1.3511
 7579SOL    HW224412   2.040   8.196   7.089 -0.0964  0.1607 -0.0581
 7580SOL     OW24413   4.011   0.046   6.756 -0.4539 -0.4464  0.2632
 7580SOL    HW124414   3.937   0.105   6.746  0.8031  0.8132 -3.4045
 7580SOL    HW224415   3.989  -0.030   6.701  1.1176  0.2868 -1.5279
 7581SOL     OW24416   4.039   3.672   3.301  0.4172  0.4062 -0.4241
 7581SOL    HW124417   4.115   3.675   3.243  1.3162  0.2556  0.7054
 7581SOL    HW224418   4.032   3.761   3.337  0.6912  0.1737  0.2314
 7582SOL     OW24419   0.043   7.692   1.047  0.7253 -0.4847 -0.3716
 7582SOL    HW124420   0.036   7.779   1.088  0.0677 -0.1314 -1.1981
 7582SOL    HW224421  -0.044   7.654   1.058  0.7980 -0.7345 -0.6624
 7583SOL     OW24422   4.149   3.504   1.516  0.7038 -0.0839  0.6254
 7583SOL    HW124423   4.114   3.592   1.527 -1.5142 -0.7258 -0.7981
 7583SOL    HW224424   4.146   3.466   1.604 -1.0252  0.3393  0.7888
 7584SOL     OW24425   3.389   9.216   7.460  0.5483 -0.8189 -0.1977
 7584SOL    HW124426   3.418   9.127   7.440  1.6789 -0.8569  1.4972
 7584SOL    HW224427   3.447   9.272   7.409  2.2711 -0.9709  1.5109
 7585SOL     OW24428   8.813   5.817   8.303 -0.0396 -0.3505  0.1430
 7585SOL    HW124429   8.853   5.788   8.221 -0.4077 -0.1645 -0.1084
 7585SOL    HW224430   8.809   5.912   8.295 -1.3266 -0.4135 -0.2241
 7586SOL     OW24431   6.232   2.152   5.496  0.6864 -0.1559  0.2335
 7586SOL    HW124432   6.272   2.071   5.463  0.9769 -0.9672  2.4277
 7586SOL    HW224433   6.145   2.125   5.526  0.9776  0.2086  1.4523
 7587SOL     OW24434   7.653   0.874   0.173 -0.1144 -0.2180  0.2184
 7587SOL    HW124435   7.718   0.932   0.213 -0.5885  0.2557  0.3157
 7587SOL    HW224436   7.705   0.808   0.127  0.4352  0.6871 -0.4848
 7588SOL     OW24437   3.277   9.084   0.230  0.0674 -0.1642  0.9586
 7588SOL    HW124438   3.241   9.016   0.287 -0.5381 -1.0398 -0.4124
 7588SOL    HW224439   3.211   9.152   0.229  0.1518 -0.0743  1.4226
 7589SOL     OW24440   3.128   4.880   8.238  0.2459  0.7389 -0.4008
 7589SOL    HW124441   3.182   4.942   8.287  0.8240 -0.4706  0.5671
 7589SOL    HW224442   3.093   4.821   8.305 -1.9517  1.2121 -1.0554
 7590SOL     OW24443   8.682   2.907   5.889 -0.1167  0.4102 -0.0191
 7590SOL    HW124444   8.776   2.919   5.902 -0.1772  1.1063 -0.2162
 7590SOL    HW224445   8.659   2.833   5.947  0.9242 -1.2050 -1.5629
 7591SOL     OW24446   0.111   9.341   3.287 -0.7417 -0.5663 -0.1546
 7591SOL    HW124447   0.038   9.401   3.299 -1.1862 -0.6390 -2.0881
 7591SOL    HW224448   0.090   9.265   3.341 -2.4223 -0.8308 -1.1325
 7592SOL     OW24449   6.282   9.460   7.811 -0.6092 -0.0312 -0.4329
 7592SOL    HW124450   6.316   9.383   7.765 -1.8331 -0.7264 -0.2284
 7592SOL    HW224451   6.344   9.475   7.882 -1.7608 -2.5975  1.2650
 7593SOL     OW24452   4.593   6.789   5.489  0.2667  0.3595  0.3570
 7593SOL    HW124453   4.507   6.749   5.481  0.5049  0.1977 -3.3825
 7593SOL    HW224454   4.575   6.882   5.503 -0.6623  0.5405 -1.6110
 7594SOL     OW24455   9.025   8.243   9.659 -0.7648  0.0905 -0.8899
 7594SOL    HW124456   9.113   8.246   9.623 -0.3623  0.2765  0.0892
 7594SOL    HW224457   8.993   8.156   9.638 -1.0414  0.6079 -2.8198
 7595SOL     OW24458   4.443   6.124   7.396 -0.2502  0.5363  0.4844
 7595SOL    HW124459   4.357   6.118   7.437 -0.8407 -0.3127 -0.7975
 7595SOL    HW224460   4.429   6.178   7.318  1.1078  3.1853  1.9263
 7596SOL     OW24461   8.846   0.011   4.439  0.6311  0.2668  0.1130
 7596SOL    HW124462   8.919  -0.043   4.407  0.9061  0.1796  0.8784
 7596SOL    HW224463   8.882   0.058   4.514  0.2518  1.1515 -0.2362
 7597SOL     OW24464   3.023   3.507   7.719 -0.0701 -0.5715  0.3833
 7597SOL    HW124465   3.109   3.543   7.741 -0.7784  0.8657  0.9190
 7597SOL    HW224466   2.990   3.565   7.650 -1.3245 -0.0349  1.4041
 7598SOL     OW24467   0.990   5.601   7.885 -0.1505 -0.0632 -0.6585
 7598SOL    HW124468   0.923   5.536   7.909 -0.2032  1.2206  3.3209
 7598SOL    HW224469   0.959   5.682   7.925  2.6686  1.0879 -0.6362
 7599SOL     OW24470   5.976   7.518   6.930 -0.0977 -0.6596 -0.1891
 7599SOL    HW124471   6.047   7.580   6.914 -1.5258  0.8183 -1.1092
 7599SOL    HW224472   5.999   7.441   6.878  1.8257 -1.0759  1.1606
 7600SOL     OW24473   9.144   3.349   1.152  0.2528  0.1941  0.0229
 7600SOL    HW124474   9.101   3.406   1.088  1.7153 -0.0410 -1.2385
 7600SOL    HW224475   9.232   3.335   1.116  0.4429 -1.6089  1.0675
 7601SOL     OW24476   8.357   2.501   8.701  0.5072 -0.0578 -0.3973
 7601SOL    HW124477   8.429   2.476   8.758 -0.0397 -1.1758 -0.1599
 7601SOL    HW224478   8.303   2.422   8.694 -1.3028  1.0443  0.3418
 7602SOL     OW24479   0.885   9.477   7.345 -0.5485 -0.4325  0.3709
 7602SOL    HW124480   0.807   9.461   7.397 -0.1681 -2.5952  0.3781
 7602SOL    HW224481   0.930   9.392   7.342  1.1863  0.4549 -0.6273
 7603SOL     OW24482   7.959   6.005   1.926 -0.0239  0.2446 -0.3532
 7603SOL    HW124483   8.027   6.072   1.936 -0.1385  0.1053  1.9152
 7603SOL    HW224484   7.877   6.053   1.935 -0.1615  0.0411 -0.5099
 7604SOL     OW24485   1.187   7.167   7.978  0.0335  0.3163 -0.0713
 7604SOL    HW124486   1.127   7.163   7.903  0.7588  1.9483 -0.7922
 7604SOL    HW224487   1.129   7.179   8.054 -0.6393  0.4979 -0.5949
 7605SOL     OW24488   2.222   6.320   3.647 -0.1377 -0.1627  0.2299
 7605SOL    HW124489   2.134   6.284   3.655  0.4719 -1.8556 -0.2130
 7605SOL    HW224490   2.238   6.364   3.731 -1.4716  0.3730  0.2247
 7606SOL     OW24491   7.545   4.349   1.459 -0.3221  0.5932 -0.5889
 7606SOL    HW124492   7.628   4.369   1.416 -1.1047  2.8412 -1.2078
 7606SOL    HW224493   7.570   4.311   1.543  1.3838  2.2470 -0.2799
 7607SOL     OW24494   8.335   7.022   1.801 -0.0254 -0.5042 -0.2288
 7607SOL    HW124495   8.389   7.008   1.723 -0.8606 -0.9948 -0.7306
 7607SOL    HW224496   8.331   7.117   1.810 -0.1916 -0.4336 -0.9779
 7608SOL     OW24497   4.593   9.199   2.084 -0.3939  0.1999 -0.9386
 7608SOL    HW124498   4.511   9.246   2.098 -0.2149  0.3760 -0.4819
 7608SOL    HW224499   4.656   9.267   2.062  0.0500  0.2656  0.5014
 7609SOL     OW24500   3.433   8.149   5.807  0.1285  0.0578  0.6641
 7609SOL    HW124501   3.463   8.079   5.865 -0.5039  0.5802  1.6613
 7609SOL    HW224502   3.339   8.154   5.822  0.1008  0.8339  0.2975
 7610SOL     OW24503   7.649   7.951   0.960  0.3691 -0.6103  0.5244
 7610SOL    HW124504   7.593   7.918   0.890  1.1182 -3.4883  1.1837
 7610SOL    HW224505   7.731   7.903   0.950  0.6961 -0.6745  2.9983
 7611SOL     OW24506   1.266   7.402   3.152  0.1741  0.1206 -0.5613
 7611SOL    HW124507   1.267   7.394   3.057 -1.1710 -1.9693 -0.4520
 7611SOL    HW224508   1.203   7.471   3.170 -3.4016 -2.6778 -1.1708
 7612SOL     OW24509   0.529   9.152   0.592  0.3815 -0.0206 -0.0491
 7612SOL    HW124510   0.459   9.217   0.598  0.0836 -0.1507 -1.7167
 7612SOL    HW224511   0.491   9.073   0.630  0.1247  0.2841  0.3362
 7613SOL     OW24512   5.360   8.892   7.935 -0.3458  0.1321 -0.4835
 7613SOL    HW124513   5.425   8.929   7.994  0.0528 -0.5049 -0.5116
 7613SOL    HW224514   5.410   8.867   7.857 -0.0169 -3.0308  0.5820
 7614SOL     OW24515   6.276   5.887   9.570  0.1200  0.0935  0.0239
 7614SOL    HW124516   6.280   5.914   9.478  1.7157  1.5855  0.4602
 7614SOL    HW224517   6.280   5.792   9.568  0.8438  0.1325 -1.4346
 7615SOL     OW24518   1.117   0.699   6.129 -0.2674 -0.1833 -0.6940
 7615SOL    HW124519   1.038   0.658   6.164  0.4424 -0.2002  0.9718
 7615SOL    HW224520   1.085   0.757   6.060 -1.4686 -2.0948 -1.8196
 7616SOL     OW24521   3.969   0.161   3.148 -0.0790  0.0775  0.5472
 7616SOL    HW124522   4.038   0.126   3.092 -0.1362  0.5685  0.1680
 7616SOL    HW224523   4.014   0.216   3.212 -0.2078  1.2728 -0.3692
 7617SOL     OW24524   0.228   0.990   2.432 -0.2236 -0.1882  0.1925
 7617SOL    HW124525   0.190   0.932   2.497 -1.8094  2.0746  1.4039
 7617SOL    HW224526   0.216   1.078   2.467 -0.3183  1.0906 -2.7330
 7618SOL     OW24527   7.622   1.311   8.197  0.1121 -0.3790  0.0094
 7618SOL    HW124528   7.568   1.278   8.269  1.0113 -0.7288  0.5332
 7618SOL    HW224529   7.630   1.236   8.137 -1.0642  0.0576 -0.7448
 7619SOL     OW24530   7.294   6.498   4.626  0.0574  0.3380  0.3083
 7619SOL    HW124531   7.330   6.572   4.675 -0.6072  0.7186  0.2192
 7619SOL    HW224532   7.322   6.421   4.676  0.6540  0.6497  0.4606
 7620SOL     OW24533   4.123   1.109   4.024 -0.5482  0.3219 -0.2513
 7620SOL    HW124534   4.199   1.055   4.003 -0.8229 -0.6880  1.2352
 7620SOL    HW224535   4.113   1.166   3.947 -0.3943 -1.8887 -2.0374
 7621SOL     OW24536   7.938   7.390   4.702 -1.1948  0.1374 -0.1419
 7621SOL    HW124537   7.946   7.349   4.789  0.4066 -0.1616 -0.4052
 7621SOL    HW224538   7.973   7.478   4.714  0.0697 -0.2620 -0.7043
 7622SOL     OW24539   5.209   7.789   6.861  0.1244  0.0241 -0.1529
 7622SOL    HW124540   5.196   7.881   6.839  2.3742  0.3606 -0.3129
 7622SOL    HW224541   5.266   7.756   6.791 -0.9544 -1.6120 -0.3115
 7623SOL     OW24542   8.226   4.343   0.251  0.3740  0.4338  0.1647
 7623SOL    HW124543   8.256   4.408   0.187 -0.7981  1.2536  0.4122
 7623SOL    HW224544   8.139   4.319   0.220  0.2645 -0.0266  0.8303
 7624SOL     OW24545   7.612   0.274   6.700 -0.1446  0.7742  0.5184
 7624SOL    HW124546   7.531   0.268   6.649  0.0386  0.0598  0.3003
 7624SOL    HW224547   7.680   0.242   6.640  0.0356 -0.3503  1.2876
 7625SOL     OW24548   3.038   0.749   7.419 -0.1544  0.3155 -0.1898
 7625SOL    HW124549   3.096   0.820   7.393  1.5638 -1.8519 -2.8166
 7625SOL    HW224550   3.081   0.670   7.388 -2.2217 -1.9034  2.0875
 7626SOL     OW24551   2.744   8.140   8.442  0.0290  0.3922 -0.1643
 7626SOL    HW124552   2.828   8.121   8.399  0.6170 -1.7969  1.7777
 7626SOL    HW224553   2.769   8.179   8.526 -0.9324  0.3926  0.1279
 7627SOL     OW24554   4.962   5.717   1.003  0.4719  0.9251  0.6871
 7627SOL    HW124555   4.899   5.742   0.936 -0.4209 -0.0555  1.1429
 7627SOL    HW224556   5.020   5.793   1.011 -0.9994  2.0792  0.6741
 7628SOL     OW24557   2.832   4.283   6.918 -0.1505  0.5995 -0.6280
 7628SOL    HW124558   2.811   4.268   7.010 -0.0179 -2.8955 -1.0395
 7628SOL    HW224559   2.760   4.337   6.886 -0.7951  0.9412  1.2634
 7629SOL     OW24560   0.896   8.688   9.676  0.2415 -0.3369  0.1791
 7629SOL    HW124561   0.829   8.627   9.705 -0.1074 -0.1574 -0.2374
 7629SOL    HW224562   0.954   8.636   9.621  0.0238 -0.3295 -0.0603
 7630SOL     OW24563   0.604   4.632   2.956 -0.1434  0.2185 -0.5562
 7630SOL    HW124564   0.562   4.683   3.025  0.3565  0.5140 -0.4668
 7630SOL    HW224565   0.564   4.665   2.875  1.1464  1.7564 -0.6227
 7631SOL     OW24566   2.213   9.429   7.518 -0.3575 -0.2989  0.5947
 7631SOL    HW124567   2.179   9.348   7.555  0.6792 -1.3470 -0.6401
 7631SOL    HW224568   2.136   9.471   7.478 -0.6393 -1.5005 -0.1889
 7632SOL     OW24569   7.728   4.570   3.557 -0.4417 -0.7346  0.5922
 7632SOL    HW124570   7.771   4.654   3.540  0.0236 -1.1628 -0.4040
 7632SOL    HW224571   7.709   4.534   3.470 -3.5618 -0.2219  0.9434
 7633SOL     OW24572   7.343   1.309   5.213 -0.0512  0.4245  0.2390
 7633SOL    HW124573   7.320   1.255   5.289  1.4463 -0.4451  0.1076
 7633SOL    HW224574   7.340   1.249   5.139 -0.7932  1.1074 -0.3049
 7634SOL     OW24575   3.836   0.655   2.468  0.2096 -0.2188 -0.0653
 7634SOL    HW124576   3.871   0.632   2.383 -0.9719  0.8963 -0.8975
 7634SOL    HW224577   3.760   0.597   2.480 -0.3427  0.4295 -0.3391
 7635SOL     OW24578   8.767   7.355   5.398 -0.1096 -0.3715  0.5658
 7635SOL    HW124579   8.758   7.277   5.453  2.0918 -0.4312  0.9355
 7635SOL    HW224580   8.787   7.426   5.460 -0.8896  0.2626  0.1161
 7636SOL     OW24581   8.372   1.458   2.713  0.9622  0.1966  0.4333
 7636SOL    HW124582   8.325   1.515   2.774  2.0677  2.5638 -0.7982
 7636SOL    HW224583   8.307   1.432   2.648  0.1014 -1.2424  1.7939
 7637SOL     OW24584   5.845   4.740   9.568 -0.0142  0.1696 -0.0864
 7637SOL    HW124585   5.750   4.752   9.569 -0.0208  0.3757 -1.4389
 7637SOL    HW224586   5.880   4.821   9.531  0.5923 -0.3854 -0.7694
 7638SOL     OW24587   8.636   9.585   9.312 -0.7969 -0.3285  0.1486
 7638SOL    HW124588   8.687   9.609   9.389 -0.7544 -0.6676  0.2284
 7638SOL    HW224589   8.687   9.515   9.271  0.3915  1.3925 -1.4719
 7639SOL     OW24590   9.325   8.670   8.217  0.3665 -0.3938 -0.1227
 7639SOL    HW124591   9.238   8.710   8.221 -0.2165 -1.4558 -1.3987
 7639SOL    HW224592   9.385   8.744   8.209 -0.2724  0.4384  2.0865
 7640SOL     OW24593   6.113   3.513   5.383  0.1686  0.3135 -0.1659
 7640SOL    HW124594   6.160   3.431   5.371 -0.0260  0.1686  0.0612
 7640SOL    HW224595   6.037   3.491   5.437 -0.8145  0.3114 -1.4759
 7641SOL     OW24596   2.721   8.387   5.608  0.0777 -0.4149 -0.0184
 7641SOL    HW124597   2.739   8.469   5.562 -0.5203 -0.8244 -1.0197
 7641SOL    HW224598   2.805   8.363   5.648  0.0621  1.1055  1.0220
 7642SOL     OW24599   5.394   6.077   3.199  0.5344 -0.0263  0.0681
 7642SOL    HW124600   5.347   5.996   3.178  2.4070 -1.5850  1.4390
 7642SOL    HW224601   5.399   6.124   3.116 -2.8800  0.0180 -0.2488
 7643SOL     OW24602   0.906   4.019   5.698  0.1364  0.3522  0.1324
 7643SOL    HW124603   0.857   3.936   5.696 -2.0920  1.5486  0.7464
 7643SOL    HW224604   0.871   4.068   5.623  0.8221  1.0435  0.2645
 7644SOL     OW24605   0.085   3.190   8.943 -0.3769  0.2974  0.7061
 7644SOL    HW124606   0.001   3.175   8.986 -1.9888  1.9730 -1.5761
 7644SOL    HW224607   0.145   3.213   9.014 -1.6805 -1.3459  2.4554
 7645SOL     OW24608   7.173   7.416   1.514 -0.1456  1.0696 -0.4896
 7645SOL    HW124609   7.178   7.349   1.583  0.8678  1.4605 -0.1743
 7645SOL    HW224610   7.119   7.375   1.446  1.3957 -0.5417 -0.8011
 7646SOL     OW24611   7.871   1.332   4.725 -0.3137  0.3466 -0.5404
 7646SOL    HW124612   7.805   1.363   4.787 -0.4519  1.6330 -1.2965
 7646SOL    HW224613   7.857   1.238   4.720  0.1573  0.0675  1.9168
 7647SOL     OW24614   2.880   6.343   4.409 -0.2386 -0.3601  0.3217
 7647SOL    HW124615   2.903   6.381   4.324  1.9572  0.9032  1.3994
 7647SOL    HW224616   2.788   6.368   4.423  0.1065  1.5568 -0.5952
 7648SOL     OW24617   0.458   3.235   6.599 -0.2364  0.0908  0.2980
 7648SOL    HW124618   0.420   3.184   6.670 -1.8327  0.0836 -0.5222
 7648SOL    HW224619   0.412   3.206   6.520  0.4081  1.1873 -0.5187
 7649SOL     OW24620   8.480   7.562   5.904  0.0090  0.2895  0.0969
 7649SOL    HW124621   8.526   7.595   5.981 -0.7248  0.6023  0.4126
 7649SOL    HW224622   8.516   7.613   5.831  0.4018  0.2878  0.2847
 7650SOL     OW24623   2.708   4.857   2.820  0.4401  0.6501 -0.2293
 7650SOL    HW124624   2.709   4.762   2.815 -0.4754  0.5953  0.2559
 7650SOL    HW224625   2.727   4.887   2.731 -3.3621 -0.0596 -1.4920
 7651SOL     OW24626   2.577   5.540   0.092 -0.0360 -0.1622  0.1927
 7651SOL    HW124627   2.574   5.616   0.033 -0.9568  0.2063  0.6848
 7651SOL    HW224628   2.583   5.464   0.034 -1.4713  0.1604 -0.4185
 7652SOL     OW24629   6.009   9.109   4.272 -0.3239  0.3602  0.8607
 7652SOL    HW124630   5.993   9.037   4.211  1.6325 -0.7953  1.6059
 7652SOL    HW224631   5.923   9.149   4.285 -1.6689 -2.2972  0.9611
 7653SOL     OW24632   6.053   4.981   4.680  0.0730 -0.0232 -0.4968
 7653SOL    HW124633   6.074   5.047   4.746  1.0435 -0.3553 -0.4438
 7653SOL    HW224634   6.002   5.027   4.614  0.8314  0.8204 -0.5169
 7654SOL     OW24635   8.112   5.909   2.342  0.2232  0.4077  0.3802
 7654SOL    HW124636   8.060   5.838   2.304  0.0798  1.0553 -0.6898
 7654SOL    HW224637   8.109   5.894   2.436 -0.9011 -0.2500  0.2550
 7655SOL     OW24638   3.017   1.117   3.809 -0.4728 -0.1349 -0.6558
 7655SOL    HW124639   3.044   1.117   3.901  1.9642 -2.6420 -1.2175
 7655SOL    HW224640   3.097   1.139   3.760 -1.4063 -0.0584 -2.2199
 7656SOL     OW24641   4.922   7.168   6.051  0.3463 -0.1271 -0.1092
 7656SOL    HW124642   4.927   7.142   6.143  2.1325  0.6344  0.0523
 7656SOL    HW224643   4.828   7.172   6.032 -0.0723  0.3006  1.8627
 7657SOL     OW24644   5.499   2.126   5.894  0.0992 -0.5707 -0.6382
 7657SOL    HW124645   5.466   2.213   5.872 -0.8538 -0.5825  0.6290
 7657SOL    HW224646   5.588   2.141   5.924 -0.6288  0.2405  1.2614
 7658SOL     OW24647   0.801   1.052   5.883  0.4008 -0.0221  0.3286
 7658SOL    HW124648   0.827   1.143   5.894 -1.1915  0.1982  2.9807
 7658SOL    HW224649   0.792   1.041   5.789 -2.3275  3.4637 -0.0029
 7659SOL     OW24650   2.987   4.363   9.333  0.3309 -0.7684  0.2899
 7659SOL    HW124651   2.922   4.341   9.399  2.2033  0.0946  2.5652
 7659SOL    HW224652   3.052   4.293   9.339  0.3237 -0.8940 -0.9520
 7660SOL     OW24653   0.278   1.398   1.230  0.1627 -0.0116  0.5674
 7660SOL    HW124654   0.235   1.480   1.254  1.5425  1.2352 -1.0087
 7660SOL    HW224655   0.365   1.424   1.201  0.2640 -1.9057 -1.0283
 7661SOL     OW24656   4.040   8.036   7.228 -0.2391  0.4267  0.6800
 7661SOL    HW124657   3.951   8.025   7.262 -1.2550 -1.7705 -2.2065
 7661SOL    HW224658   4.090   7.964   7.268 -1.1168 -1.3732 -1.2168
 7662SOL     OW24659   0.849   6.650   8.125  0.0502  0.3590 -0.2142
 7662SOL    HW124660   0.872   6.681   8.038  0.5413  0.4999 -0.0415
 7662SOL    HW224661   0.839   6.730   8.177 -0.6032  0.2865 -0.2306
 7663SOL     OW24662   4.092   6.733   3.819  0.3562  0.2340  0.3088
 7663SOL    HW124663   4.072   6.649   3.778 -1.1902  0.6272  0.1788
 7663SOL    HW224664   4.007   6.777   3.825  0.9001  1.1321  1.8482
 7664SOL     OW24665   7.236   8.924   1.195 -0.0337  0.3712  0.3166
 7664SOL    HW124666   7.248   8.973   1.114  0.4702 -0.7756 -0.3278
 7664SOL    HW224667   7.240   8.990   1.264  3.5736  0.9275 -0.2666
 7665SOL     OW24668   2.455   5.145   2.577 -0.1111 -0.3000  0.0240
 7665SOL    HW124669   2.479   5.053   2.565  1.4787 -0.0608  1.0224
 7665SOL    HW224670   2.363   5.150   2.551 -0.4968 -2.3609  0.8414
 7666SOL     OW24671   2.920   2.456   0.849 -0.7053 -0.9771  0.0850
 7666SOL    HW124672   2.990   2.400   0.816  1.0593  1.3217 -0.3271
 7666SOL    HW224673   2.857   2.460   0.777  1.1159  0.6927 -1.5393
 7667SOL     OW24674   9.541   7.355   1.010  0.2013  0.2657  0.5238
 7667SOL    HW124675   9.496   7.275   1.037  0.0469 -0.4309 -1.6265
 7667SOL    HW224676   9.479   7.425   1.028 -1.8318 -0.6687 -2.3143
 7668SOL     OW24677   6.934   3.248   8.094 -0.0077  0.0407 -0.4123
 7668SOL    HW124678   6.960   3.306   8.166 -0.0827 -0.4916  0.0491
 7668SOL    HW224679   6.998   3.177   8.097 -0.8618 -0.7235  0.0474
 7669SOL     OW24680   4.265   2.280   6.663  0.9469  0.3668  0.5719
 7669SOL    HW124681   4.262   2.351   6.598  1.2952 -0.2124 -0.0985
 7669SOL    HW224682   4.181   2.286   6.709  1.8363  2.6266  2.0937
 7670SOL     OW24683   4.996   8.589   2.034 -0.1898 -0.0713 -0.1635
 7670SOL    HW124684   4.921   8.622   1.984  0.6724 -2.6516 -3.5585
 7670SOL    HW224685   5.073   8.622   1.987  0.7143 -0.9287  0.6553
 7671SOL     OW24686   7.695   1.356   8.896  1.1145 -0.3491 -0.0614
 7671SOL    HW124687   7.628   1.423   8.909  0.4746 -0.5546 -2.0132
 7671SOL    HW224688   7.760   1.374   8.964 -0.5070  0.3538  1.3961
 7672SOL     OW24689   7.792   4.527   5.963  0.2608  0.8432  0.4249
 7672SOL    HW124690   7.838   4.443   5.955 -0.3696  0.6753 -2.5899
 7672SOL    HW224691   7.818   4.560   6.049  3.1785 -0.8748  0.3420
 7673SOL     OW24692   8.737   3.291   3.997  0.5466 -0.0811 -0.2630
 7673SOL    HW124693   8.831   3.286   3.976  0.6132  1.0022 -0.2748
 7673SOL    HW224694   8.697   3.221   3.945  1.1523  0.4329 -1.4679
 7674SOL     OW24695   7.706   5.862   8.360  0.5417  0.1157 -0.7643
 7674SOL    HW124696   7.705   5.779   8.408  0.6009  0.4267 -0.2190
 7674SOL    HW224697   7.680   5.838   8.271 -0.2486 -0.3766 -0.4210
 7675SOL     OW24698   4.328   3.690   3.748  0.2183 -0.3413 -0.5345
 7675SOL    HW124699   4.395   3.647   3.801 -1.2173 -2.4499 -0.2605
 7675SOL    HW224700   4.350   3.783   3.751  1.7866 -0.7000  1.4163
 7676SOL     OW24701   7.445   2.512   6.332  0.6510 -0.3736  0.1568
 7676SOL    HW124702   7.433   2.607   6.330  0.7520 -0.3684 -0.1961
 7676SOL    HW224703   7.429   2.483   6.242  3.4077 -0.3321 -0.4517
 7677SOL     OW24704   7.831   2.763   1.453 -0.1134  0.0396  0.1312
 7677SOL    HW124705   7.812   2.713   1.533  2.7208 -0.2328  0.7696
 7677SOL    HW224706   7.894   2.829   1.482  0.4298  0.3996 -1.7558
 7678SOL     OW24707   1.633   0.823   8.599 -0.0052 -0.3110 -0.1669
 7678SOL    HW124708   1.569   0.885   8.563  0.1881 -0.0272 -0.0284
 7678SOL    HW224709   1.706   0.825   8.537 -0.3075 -0.9562 -0.5497
 7679SOL     OW24710   2.411   1.413   4.835  0.1075  0.1319  0.3073
 7679SOL    HW124711   2.461   1.340   4.870  1.1117  1.1286  1.0386
 7679SOL    HW224712   2.431   1.414   4.742  0.4879 -0.2184  0.3838
 7680SOL     OW24713   2.631   3.787   6.070 -0.7786  0.3650 -0.4558
 7680SOL    HW124714   2.592   3.852   6.128 -2.8368  0.1794 -1.5337
 7680SOL    HW224715   2.603   3.813   5.983 -1.1265 -1.6037 -0.9789
 7681SOL     OW24716   0.363   0.918   3.522  0.2252  0.1421  0.4502
 7681SOL    HW124717   0.285   0.973   3.534 -0.0266  0.2031 -1.2660
 7681SOL    HW224718   0.329   0.832   3.500  0.6474 -0.0857  0.6779
 7682SOL     OW24719   6.658   6.238   3.992  0.3191 -0.2492  0.4270
 7682SOL    HW124720   6.571   6.198   3.993  0.0013  0.3845 -0.2689
 7682SOL    HW224721   6.716   6.172   4.028 -0.2091 -1.2684 -0.5473
 7683SOL     OW24722   3.373   2.277   7.007 -0.3375 -0.0380 -0.5705
 7683SOL    HW124723   3.299   2.247   7.060 -0.8112 -0.7252 -1.5993
 7683SOL    HW224724   3.342   2.357   6.965  0.5546  1.3852  1.3116
 7684SOL     OW24725   1.392   4.424   1.970 -0.5804 -0.2437  0.2390
 7684SOL    HW124726   1.327   4.449   2.036 -0.5843  1.4997 -0.3684
 7684SOL    HW224727   1.465   4.483   1.984  0.1798 -1.0609 -0.1832
 7685SOL     OW24728   8.421   4.907   6.437  0.7068 -0.3623 -0.5093
 7685SOL    HW124729   8.345   4.966   6.438  1.5530  0.7654 -0.4266
 7685SOL    HW224730   8.466   4.929   6.355  1.6545 -0.0570  0.0756
 7686SOL     OW24731   1.225   0.476   7.939 -0.2935  0.0806  0.3384
 7686SOL    HW124732   1.233   0.570   7.928 -1.1399  0.2478  1.0294
 7686SOL    HW224733   1.235   0.462   8.033  0.8882 -0.6427  0.1240
 7687SOL     OW24734   3.806   2.727   2.474  0.7116  0.1443 -0.0767
 7687SOL    HW124735   3.719   2.693   2.500 -0.5607  1.7422 -1.9904
 7687SOL    HW224736   3.828   2.789   2.543  0.6414 -0.6962  0.7328
 7688SOL     OW24737   2.348   7.271   1.119 -0.8382  0.0732  0.4045
 7688SOL    HW124738   2.331   7.236   1.206 -0.4829  0.7901  0.7792
 7688SOL    HW224739   2.442   7.258   1.106 -0.9405 -0.2831  0.0112
 7689SOL     OW24740   0.643   5.984   2.098  0.1352 -0.3568 -0.1156
 7689SOL    HW124741   0.734   5.974   2.127  0.7923  1.4978 -1.3495
 7689SOL    HW224742   0.649   5.991   2.003 -1.3594 -0.7476 -0.2556
 7690SOL     OW24743   2.120   0.647   7.316 -0.5161  0.1419 -0.2119
 7690SOL    HW124744   2.198   0.663   7.263 -2.4790  0.7000 -3.1745
 7690SOL    HW224745   2.085   0.735   7.333 -0.5196 -0.0994  1.1415
 7691SOL     OW24746   4.147   2.113   3.739  0.2303 -0.1014 -0.3161
 7691SOL    HW124747   4.180   2.203   3.740 -0.4967  0.1785 -0.3925
 7691SOL    HW224748   4.145   2.087   3.831  0.9538 -0.2367 -0.3364
 7692SOL     OW24749   2.999   8.893   4.917 -0.3103  0.5478 -0.2285
 7692SOL    HW124750   2.985   8.948   4.840 -0.5296  0.8688  0.0347
 7692SOL    HW224751   2.949   8.814   4.900 -0.5987  0.7431 -0.2830
 7693SOL     OW24752   1.258   3.234   1.886 -0.7750 -0.2584 -0.5048
 7693SOL    HW124753   1.325   3.174   1.920 -0.0976 -0.5314 -2.2027
 7693SOL    HW224754   1.307   3.298   1.834 -1.6000  1.1906  0.4375
 7694SOL     OW24755   4.532   9.281   3.102 -0.0500 -0.2041  0.3146
 7694SOL    HW124756   4.510   9.273   3.010 -0.1246 -0.3813  0.3469
 7694SOL    HW224757   4.572   9.367   3.110  2.2165 -1.1102 -0.3531
 7695SOL     OW24758   6.093   5.949   9.335  0.5680  0.1365  0.1445
 7695SOL    HW124759   6.044   5.867   9.344 -2.4383  1.7288 -0.3200
 7695SOL    HW224760   6.163   5.929   9.273  1.5117 -2.6517  1.9624
 7696SOL     OW24761   0.733   3.723   3.126  0.3732  0.4127  0.1525
 7696SOL    HW124762   0.812   3.776   3.136  1.1812 -0.9505  1.4551
 7696SOL    HW224763   0.766   3.634   3.111 -0.9259 -0.0939  0.2017
 7697SOL     OW24764   7.908   6.362   3.013 -0.4669 -0.1059  0.3623
 7697SOL    HW124765   7.851   6.322   3.078 -0.0951 -2.9340 -0.8773
 7697SOL    HW224766   7.984   6.393   3.063 -0.6771 -1.2111  1.4113
 7698SOL     OW24767   1.825   4.828   8.838 -0.4248 -0.0723  0.1759
 7698SOL    HW124768   1.828   4.796   8.748 -1.2852  0.5515 -0.0900
 7698SOL    HW224769   1.872   4.912   8.835 -0.2301 -0.1733  0.3657
 7699SOL     OW24770   7.113   8.353   8.256 -0.2465  0.4577 -0.0219
 7699SOL    HW124771   7.161   8.361   8.338 -1.3053 -0.8525  0.7772
 7699SOL    HW224772   7.036   8.409   8.267 -1.1818 -0.8769  0.5435
 7700SOL     OW24773   4.791   5.034   6.493 -0.3691 -0.2879 -0.2950
 7700SOL    HW124774   4.742   4.966   6.446  0.5345 -1.1703 -0.0034
 7700SOL    HW224775   4.873   5.041   6.445 -0.2143  0.1676  0.0370
 7701SOL     OW24776   0.649   1.007   4.501  0.3570 -0.8193  0.3339
 7701SOL    HW124777   0.575   1.006   4.440  2.2198  0.8643 -2.1685
 7701SOL    HW224778   0.610   1.031   4.585 -2.2025 -2.1910 -0.3424
 7702SOL     OW24779   9.243   1.368   4.621 -0.3744 -0.3737  0.1114
 7702SOL    HW124780   9.310   1.395   4.684 -0.3303  0.3080 -0.2243
 7702SOL    HW224781   9.293   1.338   4.545 -0.4430  0.9568 -0.4812
 7703SOL     OW24782   5.628   1.700   7.429  0.2698 -0.4023 -0.3823
 7703SOL    HW124783   5.588   1.772   7.381 -4.1589 -0.6975  2.3772
 7703SOL    HW224784   5.638   1.732   7.518  3.9194 -1.3865 -0.2647
 7704SOL     OW24785   4.803   1.922   2.370  0.2306  0.0133  0.4451
 7704SOL    HW124786   4.841   1.956   2.451  0.6780 -0.8050  0.5795
 7704SOL    HW224787   4.713   1.898   2.394 -0.0067  0.8323  0.4124
 7705SOL     OW24788   4.439   9.429   5.800 -0.3160  0.1934 -0.2905
 7705SOL    HW124789   4.351   9.397   5.821  0.2378 -0.4085  1.2907
 7705SOL    HW224790   4.484   9.352   5.764 -0.3711  0.4347 -0.8713
 7706SOL     OW24791   5.467   2.354   6.735  0.2407  0.0460  0.0694
 7706SOL    HW124792   5.419   2.342   6.816 -0.5669 -0.5573 -0.4812
 7706SOL    HW224793   5.483   2.265   6.703 -0.1762  0.2875 -0.8420
 7707SOL     OW24794   3.791   9.232   5.002 -0.2996 -0.0292 -0.0381
 7707SOL    HW124795   3.724   9.244   4.934  1.0858 -1.0555 -1.6737
 7707SOL    HW224796   3.747   9.181   5.070 -1.6307  0.7238 -0.2862
 7708SOL     OW24797   4.024   4.421   3.171 -0.3686 -0.2297 -0.2298
 7708SOL    HW124798   4.108   4.401   3.212  0.0437 -0.0239 -0.9465
 7708SOL    HW224799   3.974   4.466   3.239  0.2968  0.1017  0.0475
 7709SOL     OW24800   0.247   0.684   5.959  0.0117 -0.5772 -0.3449
 7709SOL    HW124801   0.322   0.649   5.910  1.2903  0.5991  0.6822
 7709SOL    HW224802   0.271   0.671   6.051 -0.4253  0.9894  0.0246
 7710SOL     OW24803   3.487   1.449   4.679 -0.1593 -0.2657  0.3031
 7710SOL    HW124804   3.473   1.523   4.738  0.6890  1.2545 -1.3157
 7710SOL    HW224805   3.582   1.444   4.669 -0.2519 -0.9728 -0.3192
 7711SOL     OW24806   5.813   3.036   7.095 -0.4091 -0.0824 -0.2303
 7711SOL    HW124807   5.843   2.979   7.165 -0.4014 -1.4680 -1.3171
 7711SOL    HW224808   5.719   3.048   7.110 -0.7844 -1.8319 -0.9229
 7712SOL     OW24809   1.269   2.596   0.398 -0.1071 -0.5538 -0.2810
 7712SOL    HW124810   1.201   2.594   0.331 -0.7403  1.7009  0.2182
 7712SOL    HW224811   1.334   2.658   0.364  0.9461 -1.4581 -0.0077
 7713SOL     OW24812   4.104   8.359   7.420 -0.4938 -0.1200 -0.1429
 7713SOL    HW124813   4.130   8.302   7.492 -0.2745 -0.7548 -0.7174
 7713SOL    HW224814   4.180   8.415   7.405 -0.4701 -0.1167 -0.0081
 7714SOL     OW24815   1.590   5.988   8.011 -0.0826 -0.1024  0.0376
 7714SOL    HW124816   1.647   6.037   8.071 -0.0231 -1.6117  1.2796
 7714SOL    HW224817   1.503   5.997   8.049 -0.1323 -0.5926  0.0507
 7715SOL     OW24818   3.911   3.319   2.688 -0.0648 -0.2696 -0.2767
 7715SOL    HW124819   3.920   3.401   2.639 -3.3509 -0.3122 -1.1811
 7715SOL    HW224820   3.907   3.251   2.621 -0.6777 -0.7805  0.2598
 7716SOL     OW24821   4.690   8.262   8.762 -0.1902  0.6914  0.0738
 7716SOL    HW124822   4.692   8.329   8.830 -0.3609  0.2279  0.5418
 7716SOL    HW224823   4.758   8.199   8.788 -1.5044 -0.4791  0.8707
 7717SOL     OW24824   2.492   3.388   2.910  0.4043 -0.2232 -0.3928
 7717SOL    HW124825   2.480   3.317   2.973  3.5907 -1.7591 -1.2997
 7717SOL    HW224826   2.529   3.460   2.961  0.2378 -0.3894 -0.0329
 7718SOL     OW24827   6.951   0.238   8.045 -0.1302 -0.0671 -0.5630
 7718SOL    HW124828   6.893   0.313   8.035  0.7238  1.1953  2.5789
 7718SOL    HW224829   6.894   0.166   8.072 -0.4535  0.7618  1.0455
 7719SOL     OW24830   6.148   2.230   1.066  0.0266 -0.0151 -0.0934
 7719SOL    HW124831   6.230   2.206   1.109 -0.8764  0.1253  1.7894
 7719SOL    HW224832   6.175   2.264   0.980  1.7224 -2.3968 -0.5895
 7720SOL     OW24833   4.303   4.484   6.701  0.5180  0.1217  0.1489
 7720SOL    HW124834   4.242   4.558   6.699  0.6654  0.4275  2.9772
 7720SOL    HW224835   4.247   4.408   6.689  0.1990  0.5936 -1.5849
 7721SOL     OW24836   2.799   4.784   6.287  1.0945  0.7632 -0.2969
 7721SOL    HW124837   2.711   4.768   6.253  1.3307  0.4360 -0.7558
 7721SOL    HW224838   2.802   4.737   6.370  0.8239  0.7985 -0.2676
 7722SOL     OW24839   5.051   1.660   8.508 -1.4060  0.2815  0.7222
 7722SOL    HW124840   5.051   1.670   8.413 -2.6173  0.9635  0.7708
 7722SOL    HW224841   5.106   1.732   8.540  0.5350 -1.0271  0.4872
 7723SOL     OW24842   4.890   1.492   2.805  0.2881  0.5695 -1.0189
 7723SOL    HW124843   4.892   1.582   2.836 -0.0800  0.1085  0.4640
 7723SOL    HW224844   4.805   1.483   2.762 -1.3948  0.0144  2.0728
 7724SOL     OW24845   4.738   2.740   3.404 -0.2985  0.8650 -0.3380
 7724SOL    HW124846   4.715   2.709   3.316  0.9107  0.7052 -0.6291
 7724SOL    HW224847   4.667   2.799   3.429 -0.6537  0.9247 -1.4453
 7725SOL     OW24848   0.372   0.292   4.003 -0.6312 -0.1029 -0.5765
 7725SOL    HW124849   0.401   0.339   3.925 -1.4591  1.9147  0.2488
 7725SOL    HW224850   0.300   0.237   3.973 -0.3917  0.0114 -1.3845
 7726SOL     OW24851   7.174   7.751   3.570  0.4593  0.1717  0.1804
 7726SOL    HW124852   7.249   7.787   3.525 -0.7589  4.5292  1.2032
 7726SOL    HW224853   7.117   7.718   3.500  1.6191  0.3181 -0.8635
 7727SOL     OW24854   2.273   2.395   8.222  0.5448 -0.3845  0.0239
 7727SOL    HW124855   2.225   2.434   8.149 -0.9631 -2.5181 -0.2548
 7727SOL    HW224856   2.331   2.331   8.181  1.1568 -0.2018  0.5935
 7728SOL     OW24857   6.230   5.890   3.729  0.1330  0.2248 -0.0140
 7728SOL    HW124858   6.252   5.962   3.670 -2.2458  3.2117  2.3763
 7728SOL    HW224859   6.154   5.849   3.690  1.3956 -1.0118 -1.2990
 7729SOL     OW24860   3.864   6.032   3.501 -0.0296 -0.0081  0.5039
 7729SOL    HW124861   3.801   6.000   3.436 -0.5668  0.5760  0.7243
 7729SOL    HW224862   3.899   5.952   3.541  0.3382 -0.3842 -0.5148
 7730SOL     OW24863   0.658   1.952   0.178 -0.2161  0.4243  0.4041
 7730SOL    HW124864   0.729   1.897   0.210 -0.9479 -0.9615 -0.2813
 7730SOL    HW224865   0.688   2.042   0.195  1.9897 -0.0715 -0.4560
 7731SOL     OW24866   5.955   9.356   4.876  0.1554 -0.6349  0.2789
 7731SOL    HW124867   6.019   9.360   4.947 -0.4624  0.4288  0.8024
 7731SOL    HW224868   5.895   9.429   4.893 -0.5391 -0.9136 -0.8292
 7732SOL     OW24869   0.343   3.844   2.677 -0.9202 -0.2293 -0.2315
 7732SOL    HW124870   0.436   3.868   2.670 -0.9930 -0.0307 -0.5347
 7732SOL    HW224871   0.316   3.880   2.762 -1.2991  1.7376 -1.1179
 7733SOL     OW24872   9.228   1.084   3.897 -0.4315  0.0433  0.1437
 7733SOL    HW124873   9.272   1.006   3.863 -2.3461  0.4136 -3.7328
 7733SOL    HW224874   9.297   1.148   3.907  0.6029 -0.8502 -0.9905
 7734SOL     OW24875   3.553   4.962   3.962 -0.4159 -0.0761  0.1149
 7734SOL    HW124876   3.634   4.931   4.002 -0.4916  1.0132  1.1628
 7734SOL    HW224877   3.486   4.899   3.990  0.2537 -1.8266 -1.9424
 7735SOL     OW24878   2.095   8.473   8.916 -0.1988 -0.4798  0.3308
 7735SOL    HW124879   2.162   8.540   8.932  1.3420 -1.6665 -0.9026
 7735SOL    HW224880   2.065   8.449   9.004  0.9914  0.0919  0.9219
 7736SOL     OW24881   2.344   5.082   3.996  0.2078 -0.1282  0.3802
 7736SOL    HW124882   2.293   5.106   4.073 -1.2957  0.8745 -0.8798
 7736SOL    HW224883   2.422   5.137   4.000  1.5889 -2.0514  2.6069
 7737SOL     OW24884   4.834   7.515   6.316 -0.2873 -0.6114  0.4067
 7737SOL    HW124885   4.845   7.550   6.227  0.6755  0.8078  1.0541
 7737SOL    HW224886   4.923   7.509   6.350 -0.7561  1.1924  2.1243
 7738SOL     OW24887   3.589   9.164   3.732  0.6346  0.4167  0.4006
 7738SOL    HW124888   3.621   9.116   3.656 -2.1376  1.6684 -1.7358
 7738SOL    HW224889   3.628   9.250   3.725 -0.7387  1.0103 -0.5626
 7739SOL     OW24890   6.747   5.304   6.690 -0.6259  0.5723  0.5045
 7739SOL    HW124891   6.818   5.346   6.738 -1.2904 -0.2541  2.2688
 7739SOL    HW224892   6.693   5.376   6.659 -0.4844  1.1155  1.4880
 7740SOL     OW24893   1.655   4.104   6.279  0.4357 -0.4090 -0.4729
 7740SOL    HW124894   1.570   4.096   6.235  0.9551 -0.3722 -1.5211
 7740SOL    HW224895   1.677   4.197   6.270  0.8432 -0.5274 -0.7140
 7741SOL     OW24896   2.423   7.123   2.850  0.2168 -0.5486 -0.5041
 7741SOL    HW124897   2.421   7.051   2.913  3.3981  0.1064  0.5191
 7741SOL    HW224898   2.474   7.089   2.776  2.5570  0.7621  0.3685
 7742SOL     OW24899   6.265   8.261   5.603  0.0492 -0.4604  0.1820
 7742SOL    HW124900   6.235   8.305   5.523  0.6832 -0.1738  0.0975
 7742SOL    HW224901   6.245   8.168   5.588 -0.1740 -0.3592 -0.1570
 7743SOL     OW24902   4.609   1.767   1.643 -0.1581 -0.4220 -0.0349
 7743SOL    HW124903   4.621   1.861   1.629  2.4889 -0.3953  1.6381
 7743SOL    HW224904   4.540   1.742   1.582  1.3270  1.9665 -2.9687
 7744SOL     OW24905   9.209   7.770   0.804 -0.7337  0.2459  0.1423
 7744SOL    HW124906   9.305   7.774   0.806 -0.6040 -1.9781  0.8073
 7744SOL    HW224907   9.188   7.739   0.717 -0.8226  0.2473  0.1631
 7745SOL     OW24908   8.521   0.746   1.371  0.4892 -0.3701  0.3056
 7745SOL    HW124909   8.611   0.776   1.357  0.3259  0.8658  1.6029
 7745SOL    HW224910   8.470   0.789   1.303  0.7072 -0.0297  0.3526
 7746SOL     OW24911   3.344   4.791   1.897 -0.1519  0.4345 -0.4993
 7746SOL    HW124912   3.248   4.794   1.901 -0.1145  0.2522  1.6480
 7746SOL    HW224913   3.363   4.715   1.842 -1.3053 -1.1095  1.0864
 7747SOL     OW24914   1.307   2.699   5.154  0.0140 -0.7923 -0.1829
 7747SOL    HW124915   1.398   2.681   5.176  0.4336  1.8326  0.5804
 7747SOL    HW224916   1.306   2.707   5.059  0.5879 -0.7269 -0.1859
 7748SOL     OW24917   7.364   5.011   6.680  0.1649 -0.0814 -0.2274
 7748SOL    HW124918   7.382   4.919   6.661 -1.0585 -0.5464  0.7091
 7748SOL    HW224919   7.339   5.012   6.772 -0.5857  1.0667 -0.4145
 7749SOL     OW24920   4.633   8.486   5.050 -0.1786 -0.3506 -0.1083
 7749SOL    HW124921   4.571   8.536   5.103 -0.6301  1.0572 -1.8530
 7749SOL    HW224922   4.711   8.478   5.105 -0.9155  0.2912  1.0784
 7750SOL     OW24923   6.517   5.936   6.701  0.7405  0.3747 -0.5982
 7750SOL    HW124924   6.486   5.935   6.791  2.2982  0.4348 -0.0460
 7750SOL    HW224925   6.488   5.852   6.665  1.3807 -0.2852  0.3970
 7751SOL     OW24926   6.599   0.852   8.235  0.0072  0.3351 -0.8736
 7751SOL    HW124927   6.621   0.940   8.205  0.5504 -0.0350 -1.6047
 7751SOL    HW224928   6.521   0.828   8.184 -0.0833  0.3592 -0.7454
 7752SOL     OW24929   3.980   3.824   2.551  0.4055 -0.6611  0.5021
 7752SOL    HW124930   3.941   3.737   2.551  0.0196 -0.5414 -1.3472
 7752SOL    HW224931   3.921   3.877   2.497  1.4183  0.3417  0.3267
 7753SOL     OW24932   0.251   4.615   0.849  0.0650 -0.5443  0.1207
 7753SOL    HW124933   0.322   4.617   0.785  0.3855 -2.0155  0.3670
 7753SOL    HW224934   0.210   4.530   0.835 -1.9827  0.4702 -0.3197
 7754SOL     OW24935   4.348   5.632   1.112 -0.0094  0.0029  0.1587
 7754SOL    HW124936   4.308   5.629   1.199 -1.9659 -0.8481 -0.7224
 7754SOL    HW224937   4.441   5.648   1.129 -0.5886  1.4596  2.3189
 7755SOL     OW24938   6.377   7.483   2.423 -0.0617  0.0635  0.0845
 7755SOL    HW124939   6.447   7.418   2.420 -1.3911 -1.4094 -0.1560
 7755SOL    HW224940   6.345   7.488   2.332 -0.7542  0.1528  0.3274
 7756SOL     OW24941   5.906   4.056   0.499  0.0427 -0.0005  0.3067
 7756SOL    HW124942   5.898   4.147   0.529  1.2167 -0.2865  1.6278
 7756SOL    HW224943   5.824   4.015   0.527  1.1838 -0.3274  3.6800
 7757SOL     OW24944   2.072   4.167   4.359 -0.3343  0.1151 -0.3076
 7757SOL    HW124945   2.010   4.214   4.415 -0.6021 -0.5644 -0.0241
 7757SOL    HW224946   2.102   4.233   4.296  1.0135  1.2555  1.4394
 7758SOL     OW24947   0.130   6.021   8.594  0.2712 -0.2374  0.6141
 7758SOL    HW124948   0.090   5.971   8.523  1.3480 -1.1835  0.6457
 7758SOL    HW224949   0.055   6.051   8.646 -0.4490 -1.5647  0.4115
 7759SOL     OW24950   4.395   8.555   2.661  0.2902 -0.2227  0.0852
 7759SOL    HW124951   4.419   8.485   2.600  1.1241 -0.7304  0.9726
 7759SOL    HW224952   4.307   8.531   2.691  0.2802 -0.4973 -0.1535
 7760SOL     OW24953   0.701   2.359   6.666 -0.3636  0.1758 -0.7187
 7760SOL    HW124954   0.796   2.364   6.673 -0.2432 -1.1343 -1.1779
 7760SOL    HW224955   0.675   2.298   6.734 -1.0493  1.5759  0.3356
 7761SOL     OW24956   2.787   8.465   0.909  0.3608 -0.1558 -0.0016
 7761SOL    HW124957   2.741   8.381   0.917  2.3498 -1.3944 -0.9270
 7761SOL    HW224958   2.782   8.503   0.997 -0.8209 -1.0773  0.3632
 7762SOL     OW24959   5.685   5.135   2.738 -0.5569  0.0172 -0.0625
 7762SOL    HW124960   5.636   5.176   2.809 -1.3067  0.5858 -0.8954
 7762SOL    HW224961   5.763   5.189   2.727 -0.0217 -0.5308  0.8412
 7763SOL     OW24962   7.790   6.834   5.932  0.2321 -0.1841  0.0263
 7763SOL    HW124963   7.809   6.869   5.845 -0.5635 -0.1709 -0.1533
 7763SOL    HW224964   7.810   6.906   5.992 -1.8412  0.7823 -0.3729
 7764SOL     OW24965   7.714   7.786   1.221 -0.2812  0.4151  0.7477
 7764SOL    HW124966   7.777   7.804   1.152 -0.4449  1.2257  0.8085
 7764SOL    HW224967   7.633   7.825   1.191 -0.8457 -0.8763  0.5385
 7765SOL     OW24968   2.902   0.205   7.389 -0.2798  0.1600 -0.1720
 7765SOL    HW124969   2.901   0.251   7.472  1.2766 -1.0266  0.5604
 7765SOL    HW224970   2.832   0.141   7.396 -0.6513  0.5775 -0.0826
 7766SOL     OW24971   0.279   1.701   4.399 -0.6357 -0.4776 -0.2180
 7766SOL    HW124972   0.363   1.731   4.364 -0.1704 -2.9831 -1.4261
 7766SOL    HW224973   0.301   1.627   4.456 -1.6529  1.7068  3.4017
 7767SOL     OW24974   5.800   5.053   1.675 -0.3265  0.2351  0.0039
 7767SOL    HW124975   5.713   5.044   1.636 -0.7793  0.6836  0.8835
 7767SOL    HW224976   5.799   5.138   1.718  0.4032  0.0635  0.3825
 7768SOL     OW24977   8.348   8.415   4.695 -1.2537 -0.8195  0.2261
 7768SOL    HW124978   8.298   8.338   4.723 -1.5328 -0.2282  1.4159
 7768SOL    HW224979   8.432   8.407   4.739  0.7536 -2.9832 -3.4783
 7769SOL     OW24980   1.893   6.492   3.066  0.9225 -0.1323 -0.4714
 7769SOL    HW124981   1.903   6.401   3.092  1.5533  0.0042 -0.2111
 7769SOL    HW224982   1.895   6.541   3.148 -1.1399  0.0096 -0.4497
 7770SOL     OW24983   2.037   1.416   8.841 -0.1020 -0.5685  0.3961
 7770SOL    HW124984   1.986   1.434   8.761  0.3750 -0.8645  0.0200
 7770SOL    HW224985   2.060   1.323   8.834  1.3292 -0.2170  0.0642
 7771SOL     OW24986   2.320   8.944   8.000 -0.2023  0.1833  0.0215
 7771SOL    HW124987   2.232   8.942   7.962  0.1200  2.0207 -0.9145
 7771SOL    HW224988   2.311   9.002   8.076  0.0380 -0.2520  0.3827
 7772SOL     OW24989   1.068   1.000   0.848  0.4281  0.2135 -0.5074
 7772SOL    HW124990   1.074   0.973   0.756 -0.1335 -0.0611 -0.4700
 7772SOL    HW224991   1.080   1.095   0.846 -1.7554  0.5358 -1.1356
 7773SOL     OW24992   2.758   9.528   5.655 -0.4020 -0.5129  0.0629
 7773SOL    HW124993   2.719   9.615   5.651  0.9063  0.1027  0.1080
 7773SOL    HW224994   2.713   9.478   5.587 -0.4477  0.5093 -0.6767
 7774SOL     OW24995   3.913   8.984   0.130  0.2858 -0.3522  0.3135
 7774SOL    HW124996   3.993   8.979   0.182 -0.1242 -2.4007  0.8275
 7774SOL    HW224997   3.927   8.922   0.058  1.2187  2.9892 -2.7483
 7775SOL     OW24998   7.178   2.101   5.984  0.5472 -0.5524  0.0378
 7775SOL    HW124999   7.099   2.048   5.973 -0.8199  1.5329 -0.7480
 7775SOL    HW225000   7.242   2.041   6.022 -1.1603 -2.5163 -0.0226
 7776SOL     OW25001   2.576   1.565   3.348  0.6324  0.0409 -0.5069
 7776SOL    HW125002   2.505   1.623   3.376 -1.4657 -2.3783 -0.4416
 7776SOL    HW225003   2.587   1.583   3.255  1.5768  1.9808 -0.0902
 7777SOL     OW25004   4.070   2.899   0.280  0.2207  0.1060 -0.5193
 7777SOL    HW125005   4.076   2.810   0.247 -0.7779 -0.2821  0.3114
 7777SOL    HW225006   4.161   2.925   0.296  0.5435 -0.5935 -1.1810
 7778SOL     OW25007   7.365   6.433   9.454  0.0296 -0.3112 -0.0329
 7778SOL    HW125008   7.426   6.419   9.381 -0.1185 -1.6776  0.0825
 7778SOL    HW225009   7.417   6.415   9.532 -0.1322 -0.0389  0.1379
 7779SOL     OW25010   4.462   2.744   2.649 -0.4980  0.7029 -0.0586
 7779SOL    HW125011   4.366   2.748   2.646 -0.7194 -1.6847  1.1832
 7779SOL    HW225012   4.483   2.747   2.743  0.4979 -0.2371 -0.2307
 7780SOL     OW25013   4.019   0.463   5.888  0.0520  0.2302  0.1385
 7780SOL    HW125014   4.076   0.433   5.958 -1.3981  0.2647  1.3939
 7780SOL    HW225015   3.971   0.384   5.861 -1.3855  0.7338  1.1378
 7781SOL     OW25016   3.934   0.702   9.122  0.0354 -0.3580  0.4168
 7781SOL    HW125017   3.906   0.654   9.044 -0.2744  2.0488 -1.0455
 7781SOL    HW225018   4.010   0.654   9.154 -0.8749 -2.3977 -0.2955
 7782SOL     OW25019   8.193   8.848   2.794 -0.1939  0.4491  0.1294
 7782SOL    HW125020   8.117   8.793   2.774  1.0117 -1.8207  1.3862
 7782SOL    HW225021   8.225   8.814   2.878  2.3597  1.1199 -0.5086
 7783SOL     OW25022   0.844   7.572   3.534 -0.2339 -0.4179 -0.4556
 7783SOL    HW125023   0.808   7.572   3.623  0.2380 -0.5281 -0.2659
 7783SOL    HW225024   0.915   7.508   3.536 -0.3234 -0.5382 -0.9556
 7784SOL     OW25025   0.191   7.088   9.609 -0.2382  0.1020  0.6243
 7784SOL    HW125026   0.251   7.076   9.536 -0.8374 -0.0571  0.1547
 7784SOL    HW225027   0.222   7.167   9.653 -0.0289  0.3432  0.0489
 7785SOL     OW25028   7.103   0.446   3.104  0.2672  0.5700  0.2453
 7785SOL    HW125029   7.047   0.522   3.111  0.7038  1.1025 -1.4995
 7785SOL    HW225030   7.175   0.463   3.164  1.0966  2.2531 -1.1455
 7786SOL     OW25031   1.345   3.440   4.852 -0.2580  0.3105  0.1708
 7786SOL    HW125032   1.279   3.394   4.801 -2.0334  2.8469 -0.0371
 7786SOL    HW225033   1.382   3.504   4.791 -0.2655  1.3730  1.2452
 7787SOL     OW25034   8.333   2.098   9.189 -0.7569 -0.4889 -0.2575
 7787SOL    HW125035   8.350   2.187   9.220  1.4396 -1.4972  1.6960
 7787SOL    HW225036   8.240   2.084   9.208 -0.9090  1.0574  0.2844
 7788SOL     OW25037   3.104   8.202   5.325  0.2853  0.6335 -0.0194
 7788SOL    HW125038   3.104   8.174   5.416  0.1494  0.2510 -0.1370
 7788SOL    HW225039   3.102   8.121   5.274  3.2242  0.6794 -0.4165
 7789SOL     OW25040   1.353   6.105   1.601 -0.0590  0.3871 -0.1401
 7789SOL    HW125041   1.446   6.085   1.595 -0.3513 -1.3184  0.4635
 7789SOL    HW225042   1.343   6.189   1.556  1.5882  0.0430 -1.2129
 7790SOL     OW25043   4.349   7.009   8.282 -0.2287  0.0673 -0.0053
 7790SOL    HW125044   4.338   7.098   8.315 -0.6681 -0.0582  0.1835
 7790SOL    HW225045   4.415   6.970   8.340  1.2088  0.7871 -1.0884
 7791SOL     OW25046   2.921   2.490   1.179 -0.3786  0.5265 -0.1424
 7791SOL    HW125047   2.940   2.398   1.199 -0.0308  0.5314 -0.4341
 7791SOL    HW225048   2.919   2.493   1.084  2.2916  1.3238 -0.2576
 7792SOL     OW25049   6.967   8.427   4.196 -0.4153  0.0976 -0.1726
 7792SOL    HW125050   6.873   8.433   4.180 -0.3064  0.9441 -0.5685
 7792SOL    HW225051   6.998   8.362   4.134 -0.6387  0.3115 -0.5085
 7793SOL     OW25052   4.067   3.839   6.842  0.4139  0.3325 -0.2955
 7793SOL    HW125053   4.039   3.808   6.928 -0.5935 -1.4976 -1.2367
 7793SOL    HW225054   4.153   3.878   6.857  0.0296  0.5332  1.6164
 7794SOL     OW25055   7.021   1.608   8.062 -0.2043 -0.4784  0.2591
 7794SOL    HW125056   7.022   1.661   8.143  0.3240  0.0084 -0.0552
 7794SOL    HW225057   6.931   1.577   8.055 -0.5848  0.5606  0.3482
 7795SOL     OW25058   1.350   0.717   6.891 -0.1040  0.6568  0.2344
 7795SOL    HW125059   1.378   0.801   6.854  1.5322 -0.0564 -0.2873
 7795SOL    HW225060   1.427   0.661   6.882 -1.3864 -1.1344 -0.1383
 7796SOL     OW25061   6.967   9.422   2.128  0.3597  0.1118 -0.4602
 7796SOL    HW125062   6.905   9.483   2.169  0.9450  0.6866 -0.4009
 7796SOL    HW225063   7.040   9.478   2.101  0.3470 -0.3907 -1.5473
 7797SOL     OW25064   7.661   4.573   6.839  0.9355  0.2211  0.7066
 7797SOL    HW125065   7.591   4.507   6.841  1.3808 -0.2888 -0.2604
 7797SOL    HW225066   7.615   4.656   6.855  0.2431 -0.2076  1.0229
 7798SOL     OW25067   1.953   4.032   4.757  0.4484 -0.2674 -0.0809
 7798SOL    HW125068   1.904   3.954   4.731  0.4981  0.1922 -1.6132
 7798SOL    HW225069   1.984   4.070   4.675 -1.7443  2.8157  0.3248
 7799SOL     OW25070   5.919   5.039   7.889 -0.1514  0.1732  0.1634
 7799SOL    HW125071   5.909   5.027   7.983  1.3352 -0.7806  0.2438
 7799SOL    HW225072   5.866   5.116   7.868 -1.5592 -0.3750  1.5341
 7800SOL     OW25073   2.298   6.450   4.873 -0.4359 -0.0525  0.1787
 7800SOL    HW125074   2.387   6.439   4.839 -0.8298 -1.6665 -0.4163
 7800SOL    HW225075   2.310   6.502   4.953  0.9564  0.3225 -0.2382
 7801SOL     OW25076   1.381   0.851   6.370 -0.4338 -0.0263 -0.0691
 7801SOL    HW125077   1.335   0.875   6.290  0.8300  0.4889 -0.6569
 7801SOL    HW225078   1.317   0.799   6.419 -0.6286 -1.9967 -2.2365
 7802SOL     OW25079   4.225   5.797   7.494 -0.2281 -0.1050 -0.3536
 7802SOL    HW125080   4.149   5.814   7.550 -1.1621  1.2747 -1.9474
 7802SOL    HW225081   4.294   5.854   7.528 -0.9694  1.1772 -0.9170
 7803SOL     OW25082   4.076   7.559   5.151 -0.1021 -0.0628  0.4630
 7803SOL    HW125083   4.152   7.613   5.174  0.6870 -1.6520  1.7965
 7803SOL    HW225084   4.015   7.571   5.224  0.3003 -1.3301  1.0333
 7804SOL     OW25085   6.861   5.892   3.616  0.1335  0.2816  0.4979
 7804SOL    HW125086   6.814   5.905   3.699 -0.5014  0.7138  0.0848
 7804SOL    HW225087   6.893   5.980   3.593  0.9888  0.0225  0.6764
 7805SOL     OW25088   4.715   3.982   6.333  0.4200 -0.0156 -0.3840
 7805SOL    HW125089   4.791   4.021   6.288  1.1510  0.1699  0.9553
 7805SOL    HW225090   4.643   4.043   6.315  1.2217  1.2554  0.5279
 7806SOL     OW25091   0.939   2.817   7.803 -0.3521  0.6955 -0.0442
 7806SOL    HW125092   1.020   2.868   7.793  1.6778 -2.2743  0.1459
 7806SOL    HW225093   0.924   2.816   7.898  0.2428  0.0244  0.0459
 7807SOL     OW25094   3.792   1.651   7.645 -0.3981  0.3961 -0.3697
 7807SOL    HW125095   3.779   1.739   7.682 -1.1851  0.4858 -0.8454
 7807SOL    HW225096   3.833   1.667   7.560 -0.8005  0.3159 -0.5779
 7808SOL     OW25097   1.019   1.327   0.554  0.0515 -0.4183  0.4099
 7808SOL    HW125098   1.061   1.366   0.631 -2.3192  1.5052  0.8450
 7808SOL    HW225099   0.933   1.298   0.586 -0.2558 -1.3027 -1.1148
 7809SOL     OW25100   4.777   8.755   3.968  0.9746  0.2528 -0.5946
 7809SOL    HW125101   4.844   8.823   3.953  1.7602 -0.7710 -2.0354
 7809SOL    HW225102   4.819   8.674   3.938  0.1366 -0.9250  1.2806
 7810SOL     OW25103   4.657   4.830   2.100 -0.4358  0.1705  0.1540
 7810SOL    HW125104   4.704   4.840   2.017 -0.9830  1.1983 -0.0555
 7810SOL    HW225105   4.584   4.772   2.080 -0.1743 -0.1379  0.0896
 7811SOL     OW25106   8.101   6.028   3.931  0.2044 -0.3114  0.1969
 7811SOL    HW125107   8.146   5.955   3.887  0.6334 -1.2220  2.0283
 7811SOL    HW225108   8.036   6.058   3.868  0.4718 -1.8643 -0.8738
 7812SOL     OW25109   5.171   3.279   4.920 -0.3499 -0.2228  0.0279
 7812SOL    HW125110   5.129   3.276   4.834  1.3004  0.4720 -0.8600
 7812SOL    HW225111   5.194   3.188   4.939 -1.6843 -0.5269  0.2633
 7813SOL     OW25112   4.735   1.858   4.909  0.4208 -0.1048  0.2313
 7813SOL    HW125113   4.793   1.796   4.865  0.1336 -0.6777  0.6486
 7813SOL    HW225114   4.792   1.931   4.933  1.1450 -0.9810  1.2952
 7814SOL     OW25115   5.158   8.098   6.879  0.0723  0.1246 -0.2054
 7814SOL    HW125116   5.179   8.183   6.840 -2.2792 -0.1816 -2.3123
 7814SOL    HW225117   5.077   8.113   6.927 -0.2872 -0.9012 -0.4812
 7815SOL     OW25118   0.625   5.198   7.384  0.1375 -0.0104  0.3387
 7815SOL    HW125119   0.574   5.117   7.383  2.2255 -1.3975  0.4971
 7815SOL    HW225120   0.679   5.191   7.462  0.0722  1.7764  0.5908
 7816SOL     OW25121   0.500   9.336   6.028  0.6572  0.1531 -0.3953
 7816SOL    HW125122   0.439   9.264   6.046 -1.5600  2.2482  1.0895
 7816SOL    HW225123   0.518   9.328   5.935 -0.4713 -1.6191 -0.5261
 7817SOL     OW25124   4.783   0.928   5.712  0.3255 -0.1087 -0.0672
 7817SOL    HW125125   4.693   0.916   5.742 -0.1435 -0.7083 -1.5930
 7817SOL    HW225126   4.776   0.931   5.616  2.1161 -2.1684 -0.3519
 7818SOL     OW25127   3.197   9.123   3.873  0.0118 -0.0761  0.7924
 7818SOL    HW125128   3.161   9.183   3.939 -0.4846 -0.1953  0.6346
 7818SOL    HW225129   3.233   9.180   3.805 -2.5197  0.1162 -0.5077
 7819SOL     OW25130   7.905   8.085   4.160 -0.1091 -0.0623  0.8120
 7819SOL    HW125131   7.894   8.174   4.194 -3.0282  0.0619 -0.1641
 7819SOL    HW225132   7.916   8.030   4.238  0.0876  0.9540  1.5147
 7820SOL     OW25133   2.324   0.513   8.062 -0.0588 -0.0912  0.2671
 7820SOL    HW125134   2.320   0.421   8.038 -0.1484 -0.1245  0.4110
 7820SOL    HW225135   2.242   0.530   8.108  0.3192 -0.1435  0.9727
 7821SOL     OW25136   7.217   0.465   0.143  0.4408  0.6492  0.3198
 7821SOL    HW125137   7.305   0.435   0.165  0.9847  1.1014 -1.1652
 7821SOL    HW225138   7.230   0.532   0.076 -1.0565  0.5068 -0.1507
 7822SOL     OW25139   4.106   4.926   3.582 -0.4521  0.6557 -0.0995
 7822SOL    HW125140   4.027   4.930   3.636 -0.8255  0.1862 -0.5936
 7822SOL    HW225141   4.092   4.992   3.514 -1.1052 -0.4290 -1.0589
 7823SOL     OW25142   8.893   0.138   4.833  0.1167  0.2511 -0.0048
 7823SOL    HW125143   8.967   0.115   4.777  0.6449 -1.9850  1.4814
 7823SOL    HW225144   8.923   0.216   4.881  0.2836  1.1898 -1.5608
 7824SOL     OW25145   1.338   6.221   6.887 -0.1219  0.2456 -0.1190
 7824SOL    HW125146   1.366   6.138   6.926  2.0562 -0.3244 -2.5912
 7824SOL    HW225147   1.374   6.288   6.945  1.0064 -0.5620  0.1662
 7825SOL     OW25148   4.098   4.453   5.555 -0.4093 -0.3148  0.4323
 7825SOL    HW125149   4.136   4.389   5.494 -2.9434 -0.2262 -1.4030
 7825SOL    HW225150   4.131   4.538   5.525 -1.6555 -0.2694 -0.9206
 7826SOL     OW25151   7.849   6.794   4.394  0.4641 -0.2406 -0.3946
 7826SOL    HW125152   7.803   6.853   4.454 -0.2385 -3.2864  2.3478
 7826SOL    HW225153   7.938   6.789   4.428  0.6076 -0.4582 -0.7952
 7827SOL     OW25154   2.138   1.334   1.812 -0.2868 -0.1780 -0.2165
 7827SOL    HW125155   2.088   1.361   1.890 -0.4254  2.0689 -1.0116
 7827SOL    HW225156   2.167   1.245   1.832 -1.9604 -0.3981  1.5847
 7828SOL     OW25157   4.660   5.087   3.696  0.0500  0.5242 -0.0450
 7828SOL    HW125158   4.711   5.010   3.719  0.0015  0.4900 -0.0502
 7828SOL    HW225159   4.569   5.062   3.713  0.2211  1.6681  3.1327
 7829SOL     OW25160   9.402   8.545   3.952  0.9462  0.2966  0.0203
 7829SOL    HW125161   9.339   8.616   3.962  1.2544  0.4201  1.1229
 7829SOL    HW225162   9.370   8.496   3.875 -1.5959 -0.7348  1.5865
 7830SOL     OW25163   9.488   0.565   1.837  0.7386 -0.0962 -0.3805
 7830SOL    HW125164   9.438   0.646   1.827 -1.2000 -1.0811  0.7081
 7830SOL    HW225165   9.430   0.496   1.804  2.4965 -1.0393 -1.6841
 7831SOL     OW25166   6.608   4.560   5.245 -0.3581  0.6493  0.3347
 7831SOL    HW125167   6.646   4.472   5.249  1.2800  1.2896 -0.3723
 7831SOL    HW225168   6.567   4.565   5.159 -0.6607  0.4960  0.4702
 7832SOL     OW25169   3.185   8.316   2.348  0.4356  0.0080 -0.0080
 7832SOL    HW125170   3.108   8.297   2.402  0.4869 -1.0663 -0.2806
 7832SOL    HW225171   3.166   8.273   2.265  2.3396 -2.4476  0.7006
 7833SOL     OW25172   1.698   2.179   9.047  0.5119 -0.4031 -0.2106
 7833SOL    HW125173   1.749   2.255   9.076 -1.3028  0.8971 -0.2275
 7833SOL    HW225174   1.611   2.215   9.029  0.0614 -2.1839 -1.9193
 7834SOL     OW25175   1.540   5.095   5.421  0.4850  0.1913 -0.0933
 7834SOL    HW125176   1.635   5.108   5.416  0.3003  1.4141 -0.9123
 7834SOL    HW225177   1.516   5.061   5.334  0.0815  0.6062 -0.1468
 7835SOL     OW25178   6.578   8.861   8.809  0.1033  0.8240  0.0991
 7835SOL    HW125179   6.573   8.795   8.740  0.1973  2.3795 -1.4587
 7835SOL    HW225180   6.513   8.927   8.784  0.1444  1.4335  1.5045
 7836SOL     OW25181   1.363   8.767   7.607 -0.0552  0.5907 -0.1273
 7836SOL    HW125182   1.442   8.723   7.575  0.5205 -0.1335  2.0895
 7836SOL    HW225183   1.305   8.695   7.633  0.0691  1.0769  1.6518
 7837SOL     OW25184   1.142   5.115   9.019 -0.5105 -0.4081  0.4727
 7837SOL    HW125185   1.224   5.162   9.008 -1.6862  2.7008  3.3487
 7837SOL    HW225186   1.162   5.044   9.079  0.2542 -0.2198  0.4447
 7838SOL     OW25187   4.999   8.177   5.206 -0.0719  0.0697 -0.1842
 7838SOL    HW125188   4.920   8.217   5.243 -0.3422  0.1249 -0.7933
 7838SOL    HW225189   4.988   8.083   5.219 -0.0192  0.1112  0.1511
 7839SOL     OW25190   2.346   4.432   2.813 -0.1130 -0.4604 -0.1065
 7839SOL    HW125191   2.301   4.387   2.884 -0.5383 -0.9799 -0.6968
 7839SOL    HW225192   2.346   4.524   2.839 -0.1981 -0.6557  0.5978
 7840SOL     OW25193   1.762   6.260   7.788 -0.3143 -0.3022 -0.8653
 7840SOL    HW125194   1.696   6.269   7.857  0.5347 -2.7358  0.3675
 7840SOL    HW225195   1.835   6.214   7.830  0.8990 -0.4292 -2.9767
 7841SOL     OW25196   3.523   6.734   5.624 -0.1017  0.3209 -0.2010
 7841SOL    HW125197   3.491   6.822   5.605  0.2567  0.2707 -1.0855
 7841SOL    HW225198   3.544   6.735   5.718  0.6375  1.4206 -0.3591
 7842SOL     OW25199   2.464   5.568   8.276 -0.1132  0.4983 -0.2529
 7842SOL    HW125200   2.431   5.596   8.362 -0.2129 -1.5460  0.4383
 7842SOL    HW225201   2.386   5.560   8.222 -0.1439  1.0018 -0.2831
 7843SOL     OW25202   9.241   4.132   1.081  0.6059 -0.1746 -0.3767
 7843SOL    HW125203   9.170   4.150   1.143 -0.7126  1.9714 -2.3394
 7843SOL    HW225204   9.199   4.134   0.995  2.9516  0.8490 -1.6010
 7844SOL     OW25205   3.446   9.048   1.969  0.0698 -0.1474  0.4238
 7844SOL    HW125206   3.485   9.136   1.958  1.3689 -0.8298 -0.8549
 7844SOL    HW225207   3.400   9.053   2.052  0.1369  1.7473  0.4109
 7845SOL     OW25208   0.412   6.265   1.294 -0.1976 -0.1307  0.3038
 7845SOL    HW125209   0.505   6.263   1.318 -0.4190  1.5045  1.4111
 7845SOL    HW225210   0.372   6.323   1.358 -2.3041 -2.0318  0.8091
 7846SOL     OW25211   2.617   5.045   7.399  0.1824 -0.1958  0.5431
 7846SOL    HW125212   2.524   5.050   7.420 -0.2299 -0.0776 -1.1646
 7846SOL    HW225213   2.649   4.968   7.447 -0.5299  0.3844  1.9927
 7847SOL     OW25214   5.333   8.055   7.851  0.4553 -0.0887 -0.1099
 7847SOL    HW125215   5.365   8.131   7.898 -1.5044  0.4966  0.3944
 7847SOL    HW225216   5.362   7.980   7.902 -0.3516  0.4746  1.2150
 7848SOL     OW25217   4.387   7.061   3.828  0.3894  0.2358 -0.0570
 7848SOL    HW125218   4.431   6.979   3.850 -0.7601 -0.2290  0.5909
 7848SOL    HW225219   4.307   7.035   3.783  0.0164  0.9884  0.1377
 7849SOL     OW25220   1.610   7.829   5.284  0.8434 -0.1243  0.3695
 7849SOL    HW125221   1.517   7.844   5.299  0.4109 -1.8304 -0.4311
 7849SOL    HW225222   1.645   7.915   5.261 -0.2251  0.8152  2.0460
 7850SOL     OW25223   2.704   0.610   4.457  0.1973  0.2422 -0.6929
 7850SOL    HW125224   2.613   0.633   4.472  0.0410 -0.8106  0.1505
 7850SOL    HW225225   2.705   0.568   4.371  0.1859  1.6968 -1.4245
 7851SOL     OW25226   7.049   9.549   1.325  0.1246  0.0606 -0.1497
 7851SOL    HW125227   7.074   9.592   1.243 -0.9768  0.7558 -0.1412
 7851SOL    HW225228   7.101   9.594   1.392  1.6014 -1.0286 -0.5302
 7852SOL     OW25229   3.419   2.029   0.682 -0.0474 -0.0762 -0.0140
 7852SOL    HW125230   3.508   1.994   0.676 -0.5358 -1.4278  0.3396
 7852SOL    HW225231   3.385   2.024   0.593 -0.0941 -0.4339  0.0250
 7853SOL     OW25232   5.401   6.904   2.653 -1.0952 -0.2721  0.0905
 7853SOL    HW125233   5.473   6.909   2.716  0.6419 -1.3917 -1.6970
 7853SOL    HW225234   5.391   6.994   2.622 -1.2798  0.1012  1.1939
 7854SOL     OW25235   4.839   4.354   6.911  0.6554  0.1805 -0.7723
 7854SOL    HW125236   4.845   4.278   6.852  0.7238  0.2664 -0.8754
 7854SOL    HW225237   4.894   4.421   6.870 -1.0523  1.0194 -1.8090
 7855SOL     OW25238   5.192   4.613   6.380 -0.3157  0.1182 -0.6769
 7855SOL    HW125239   5.109   4.648   6.412 -0.5871  1.6324 -2.8420
 7855SOL    HW225240   5.256   4.643   6.445 -1.3791 -0.9289  0.9354
 7856SOL     OW25241   1.915   1.616   2.442 -0.5669  0.3906  0.2623
 7856SOL    HW125242   1.887   1.524   2.446 -1.8547  0.7991  1.2315
 7856SOL    HW225243   1.870   1.658   2.515  0.5841  1.6563  0.2880
 7857SOL     OW25244   8.696   5.247   5.518  0.3774 -0.3872  0.2637
 7857SOL    HW125245   8.600   5.245   5.519  0.3067 -2.3994 -1.6262
 7857SOL    HW225246   8.721   5.215   5.605 -0.6884 -0.8177  0.4296
 7858SOL     OW25247   8.662   8.366   3.962  0.5253  0.1269  0.1057
 7858SOL    HW125248   8.610   8.286   3.955 -0.3817  0.6140  0.9945
 7858SOL    HW225249   8.713   8.369   3.881  1.3600 -1.8832  0.4928
 7859SOL     OW25250   6.766   0.303   0.320  0.1780  0.2625 -0.7653
 7859SOL    HW125251   6.833   0.334   0.381  0.3191  0.4621 -1.0204
 7859SOL    HW225252   6.804   0.225   0.279  0.6481  0.9231 -1.6121
 7860SOL     OW25253   6.897   2.519   0.932 -0.1392  0.2878 -0.1149
 7860SOL    HW125254   6.820   2.470   0.961 -0.8539  1.7399  0.5304
 7860SOL    HW225255   6.941   2.460   0.871 -1.8482 -0.5347 -0.6213
 7861SOL     OW25256   6.239   1.687   9.001  0.3151  0.4115 -0.4454
 7861SOL    HW125257   6.310   1.659   8.943  2.0506  1.7795  0.9119
 7861SOL    HW225258   6.200   1.762   8.956 -2.4556 -2.0901 -2.6863
 7862SOL     OW25259   6.652   7.726   4.516 -0.2456  0.4299  0.1939
 7862SOL    HW125260   6.613   7.801   4.562 -0.0948  1.9646 -2.0393
 7862SOL    HW225261   6.705   7.683   4.583  0.3887  2.8515  1.3871
 7863SOL     OW25262   9.260   7.075   3.919  0.2946  0.3029 -0.4231
 7863SOL    HW125263   9.310   7.091   3.999 -0.8976 -0.3240  0.4760
 7863SOL    HW225264   9.217   7.158   3.901 -2.2958 -0.4214  1.6894
 7864SOL     OW25265   5.722   3.851   1.916 -0.4311  0.9624 -0.2880
 7864SOL    HW125266   5.710   3.853   1.821  1.5334  0.5715 -0.5849
 7864SOL    HW225267   5.635   3.835   1.951 -0.8375 -1.3263 -2.1466
 7865SOL     OW25268   8.700   0.959   4.601  0.0662  0.3515  0.5949
 7865SOL    HW125269   8.714   1.017   4.676  2.1553 -1.9275  2.1199
 7865SOL    HW225270   8.610   0.930   4.610 -0.9368  2.9672 -0.0307
 7866SOL     OW25271   7.328   2.041   8.163  0.1544  0.2449  0.4282
 7866SOL    HW125272   7.239   2.058   8.132  0.4488  0.2641 -0.4316
 7866SOL    HW225273   7.369   1.990   8.093  1.2337  1.3579  0.2067
 7867SOL     OW25274   8.391   0.618   3.132  0.1555  0.0303 -0.1259
 7867SOL    HW125275   8.394   0.708   3.166 -0.6380 -0.0070  0.0806
 7867SOL    HW225276   8.432   0.624   3.046 -1.5012  0.9919 -0.9053
 7868SOL     OW25277   4.452   0.049   0.958 -0.5157  0.3202  0.0189
 7868SOL    HW125278   4.381   0.112   0.973 -0.8244  0.1801 -0.8480
 7868SOL    HW225279   4.409  -0.032   0.935 -0.0946 -0.0551  0.5232
 7869SOL     OW25280   5.223   8.947   6.492 -0.1316  0.3632  1.0729
 7869SOL    HW125281   5.317   8.939   6.481 -0.0866  1.2674  0.7771
 7869SOL    HW225282   5.192   8.991   6.413 -1.0690 -1.5996  0.2651
 7870SOL     OW25283   3.096   2.203   0.359 -0.5546 -0.1992  0.1759
 7870SOL    HW125284   3.122   2.209   0.451 -0.2533 -1.0938  0.1523
 7870SOL    HW225285   3.106   2.111   0.337 -1.9979 -0.2473 -0.3554
 7871SOL     OW25286   1.151   2.281   1.380  0.4609 -0.4340  0.1098
 7871SOL    HW125287   1.205   2.349   1.420  1.6069 -2.4382  2.2055
 7871SOL    HW225288   1.146   2.212   1.446 -1.6833 -1.8869 -1.4367
 7872SOL     OW25289   2.249   5.970   1.832  0.1922 -0.8506 -0.1575
 7872SOL    HW125290   2.312   5.952   1.762 -0.3283  0.2534 -0.9551
 7872SOL    HW225291   2.299   5.961   1.913  1.3163 -0.2661 -0.7679
 7873SOL     OW25292   2.563   3.206   4.156 -0.7406  0.7599 -0.5088
 7873SOL    HW125293   2.639   3.169   4.201 -0.8958  1.9078  0.7639
 7873SOL    HW225294   2.488   3.177   4.206 -1.1650 -0.2906 -1.7098
 7874SOL     OW25295   4.497   4.648   9.100 -0.1428  0.0576  0.3830
 7874SOL    HW125296   4.486   4.572   9.157  0.1359  1.1454  1.9596
 7874SOL    HW225297   4.411   4.663   9.061 -0.4496 -0.4496  0.8648
 7875SOL     OW25298   9.278   5.667   5.576  0.2195 -0.5237 -0.2762
 7875SOL    HW125299   9.188   5.696   5.559  0.3577  0.3722  0.4837
 7875SOL    HW225300   9.275   5.629   5.663  0.6829 -0.0169 -0.0347
 7876SOL     OW25301   3.890   7.713   6.974  0.4369  0.0783 -0.0977
 7876SOL    HW125302   3.955   7.650   7.003  1.0111  1.8106  2.8276
 7876SOL    HW225303   3.938   7.773   6.917  0.3761 -0.8964 -1.2103
 7877SOL     OW25304   1.577   6.185   3.193  0.2079  0.4355  0.0279
 7877SOL    HW125305   1.534   6.186   3.108  0.1836 -0.6974  0.0090
 7877SOL    HW225306   1.587   6.277   3.216 -2.6839  0.7664  0.2749
 7878SOL     OW25307   3.009   2.147   3.062  0.0061  0.0247 -0.0710
 7878SOL    HW125308   3.018   2.067   3.010  1.4593 -0.3564  0.7224
 7878SOL    HW225309   2.935   2.130   3.120 -1.2165  0.2007 -1.5059
 7879SOL     OW25310   4.779   4.712   3.217  0.0644 -0.0577  0.6162
 7879SOL    HW125311   4.794   4.781   3.281  1.9330  1.1633 -1.0150
 7879SOL    HW225312   4.719   4.750   3.153  0.2862 -0.3224  0.2478
 7880SOL     OW25313   1.835   8.888   4.855  0.4867  0.1054  0.0910
 7880SOL    HW125314   1.823   8.971   4.810  1.2052  0.2659  0.1853
 7880SOL    HW225315   1.862   8.827   4.786 -0.8713 -0.2819 -0.1420
 7881SOL     OW25316   6.044   0.995   8.277  0.4262 -0.1431 -0.3423
 7881SOL    HW125317   5.952   0.986   8.254  0.6024 -0.8635 -0.8336
 7881SOL    HW225318   6.091   0.967   8.198  1.0684 -1.8843  0.5989
 7882SOL     OW25319   2.734   2.827   1.419  0.3363  0.3845  0.3986
 7882SOL    HW125320   2.685   2.841   1.338  0.8694 -0.2398 -0.0422
 7882SOL    HW225321   2.765   2.914   1.444  0.2241  0.5708 -0.1046
 7883SOL     OW25322   5.484   6.192   7.955 -0.0422  0.0210 -0.1411
 7883SOL    HW125323   5.490   6.275   8.003 -1.3524 -0.8907  1.7275
 7883SOL    HW225324   5.574   6.160   7.951  0.2366  0.6258  0.8300
 7884SOL     OW25325   2.189   8.156   2.569  0.4663 -0.1035  0.6319
 7884SOL    HW125326   2.185   8.077   2.623 -1.5357 -0.5493 -0.0710
 7884SOL    HW225327   2.105   8.200   2.584  1.1775  1.4401  0.3063
 7885SOL     OW25328   5.961   1.111   0.633 -0.1148 -0.9415  0.4306
 7885SOL    HW125329   5.918   1.140   0.714 -0.2640  0.7665 -0.2091
 7885SOL    HW225330   6.054   1.116   0.653 -0.1098  0.6938  0.1607
 7886SOL     OW25331   5.211   7.626   3.083 -0.5977  0.6061 -0.0771
 7886SOL    HW125332   5.157   7.677   3.023 -0.7777  0.2906 -0.1882
 7886SOL    HW225333   5.234   7.548   3.033  0.8163  1.1994 -0.3986
 7887SOL     OW25334   2.448   7.660   2.588  0.2674 -0.9297 -0.1042
 7887SOL    HW125335   2.356   7.674   2.566  0.8462 -1.3728 -3.2796
 7887SOL    HW225336   2.481   7.747   2.611 -0.9336 -0.8040  1.2787
 7888SOL     OW25337   7.451   2.935   7.314 -0.3855 -0.4344 -0.4704
 7888SOL    HW125338   7.540   2.969   7.299 -0.7217  1.4755  1.3800
 7888SOL    HW225339   7.446   2.856   7.259  2.5516 -0.7831 -0.4016
 7889SOL     OW25340   8.603   5.140   2.471 -0.1609 -0.1305  0.5139
 7889SOL    HW125341   8.590   5.199   2.397  1.2968 -0.3583  0.0428
 7889SOL    HW225342   8.519   5.095   2.481 -1.1214  1.5633  0.5011
 7890SOL     OW25343   8.586   9.471   3.827  0.4199  0.1161 -0.1148
 7890SOL    HW125344   8.659   9.498   3.882 -0.1399  0.6647  0.3702
 7890SOL    HW225345   8.576   9.542   3.763 -1.5998  1.5821  1.6862
 7891SOL     OW25346   1.234   6.078   1.854  0.3791 -0.1269 -0.0801
 7891SOL    HW125347   1.281   6.149   1.898  0.3948  0.6613 -1.3326
 7891SOL    HW225348   1.288   6.057   1.778 -0.6056 -0.1279 -0.7979
 7892SOL     OW25349   5.187   1.996   6.368  0.0892 -0.0024  0.1355
 7892SOL    HW125350   5.102   2.036   6.348  0.0872 -0.7087 -1.4687
 7892SOL    HW225351   5.251   2.059   6.333  0.1130 -0.8438 -1.4239
 7893SOL     OW25352   2.575   7.424   1.818 -0.6346  0.8678  0.1115
 7893SOL    HW125353   2.663   7.457   1.803 -0.8674  1.0184 -0.9559
 7893SOL    HW225354   2.529   7.497   1.861 -0.0681  0.5561  1.2802
 7894SOL     OW25355   3.776   5.332   4.565  0.5134 -0.2497  0.2285
 7894SOL    HW125356   3.721   5.403   4.530  1.6553  0.6667  0.2335
 7894SOL    HW225357   3.799   5.360   4.653 -1.7314 -2.2076  1.5425
 7895SOL     OW25358   6.285   1.990   1.781 -0.2491  0.5830  0.1678
 7895SOL    HW125359   6.371   1.964   1.749 -0.2520  0.3776  0.3239
 7895SOL    HW225360   6.233   1.909   1.781 -0.8483  0.9376 -1.1764
 7896SOL     OW25361   9.672   7.359   2.798  0.2439 -0.0613 -0.1503
 7896SOL    HW125362   9.743   7.317   2.848  0.5741  0.6888  0.0182
 7896SOL    HW225363   9.604   7.377   2.863 -0.8439 -2.2760 -0.5745
 7897SOL     OW25364   1.792   5.637   9.401 -0.1562  0.1920  0.8658
 7897SOL    HW125365   1.805   5.637   9.495 -1.9584  0.6797  1.1360
 7897SOL    HW225366   1.833   5.719   9.371 -0.0418  0.2858  1.2757
 7898SOL     OW25367   9.281   4.695   5.834 -0.0335  0.3104 -0.1233
 7898SOL    HW125368   9.276   4.600   5.827 -0.8922  0.4664 -2.0060
 7898SOL    HW225369   9.197   4.720   5.872 -0.0796  0.3700 -0.2649
 7899SOL     OW25370   0.503   8.977   6.991 -0.2764  0.6872  0.2019
 7899SOL    HW125371   0.445   8.993   7.065 -2.5064 -1.7639 -0.8694
 7899SOL    HW225372   0.452   9.005   6.914  1.4269  1.8628 -0.5579
 7900SOL     OW25373   0.121   3.959   4.727 -0.0993  0.5547  0.1494
 7900SOL    HW125374   0.079   3.919   4.804  2.6257 -0.8368  1.0464
 7900SOL    HW225375   0.134   3.886   4.666 -0.8198  1.3620 -1.0010
 7901SOL     OW25376   5.909   3.622   5.101 -0.1313 -0.4059 -0.3016
 7901SOL    HW125377   5.975   3.684   5.131 -0.2953 -0.4834  0.2355
 7901SOL    HW225378   5.948   3.536   5.118 -0.2627 -0.4495 -0.2162
 7902SOL     OW25379   1.669   6.108   4.200 -0.0299 -0.8446 -0.1439
 7902SOL    HW125380   1.631   6.177   4.255 -1.9708 -0.7946 -1.4707
 7902SOL    HW225381   1.622   6.114   4.117  0.0920 -3.4279 -0.4868
 7903SOL     OW25382   5.510   9.656   7.471  0.0842 -0.2716  0.2038
 7903SOL    HW125383   5.534   9.747   7.452 -0.3169 -0.1404  0.3128
 7903SOL    HW225384   5.593   9.609   7.474  0.3264  0.1776  0.6045
 7904SOL     OW25385   7.063   4.230   4.413 -0.3501 -0.6538 -0.6433
 7904SOL    HW125386   6.975   4.198   4.393 -0.7510  0.3677 -0.5812
 7904SOL    HW225387   7.075   4.213   4.506 -0.7247 -0.2575 -0.5198
 7905SOL     OW25388   0.511   8.478   8.747  0.2056 -0.3378 -0.1626
 7905SOL    HW125389   0.546   8.545   8.689  1.1311 -2.1101 -1.7602
 7905SOL    HW225390   0.587   8.427   8.775 -0.4347 -0.5787  1.2371
 7906SOL     OW25391   4.868   3.074   3.663 -0.2484  0.0187  0.1367
 7906SOL    HW125392   4.866   3.015   3.739  0.7944 -1.0347 -0.6052
 7906SOL    HW225393   4.879   3.015   3.588 -2.5234  0.9096 -1.0012
 7907SOL     OW25394   1.924   1.199   6.487 -0.0422 -0.6082 -0.4170
 7907SOL    HW125395   1.862   1.242   6.427 -1.7017 -0.8141  1.0739
 7907SOL    HW225396   1.877   1.193   6.570  1.9511 -0.9233  0.7563
 7908SOL     OW25397   2.594   8.478   2.686  0.3626  0.0872  0.2392
 7908SOL    HW125398   2.580   8.512   2.774 -1.2480 -1.4766  0.6258
 7908SOL    HW225399   2.518   8.508   2.636 -0.2691 -1.5042  0.1825
 7909SOL     OW25400   1.176   8.798   4.607 -0.3833  0.1198 -0.5297
 7909SOL    HW125401   1.266   8.825   4.623 -0.2168 -1.0975  0.9212
 7909SOL    HW225402   1.183   8.711   4.568 -0.9205  0.2757 -0.9898
 7910SOL     OW25403   0.673   7.047   2.982 -0.1944 -0.2687  0.4614
 7910SOL    HW125404   0.703   7.023   3.070  1.6032  1.2734  0.3262
 7910SOL    HW225405   0.588   7.005   2.974  1.2612 -3.8018  1.4433
 7911SOL     OW25406   6.739   9.039   8.458  0.2203 -0.5171 -0.4532
 7911SOL    HW125407   6.747   9.003   8.369  0.6576  1.4007 -1.2384
 7911SOL    HW225408   6.699   9.125   8.445  1.3105  0.2652  1.0885
 7912SOL     OW25409   1.651   7.671   5.529 -0.0153  0.3400  0.1026
 7912SOL    HW125410   1.646   7.736   5.459  1.8568 -1.5203 -1.9286
 7912SOL    HW225411   1.563   7.668   5.567 -1.4286  0.6820 -2.8996
 7913SOL     OW25412   7.406   8.590   3.204  0.3076 -0.5687  0.1875
 7913SOL    HW125413   7.421   8.676   3.165 -1.6354 -0.0593  0.4577
 7913SOL    HW225414   7.448   8.595   3.290  0.3936  0.0314  0.1126
 7914SOL     OW25415   4.070   3.642   3.736 -0.2035 -0.1212 -0.3016
 7914SOL    HW125416   4.054   3.580   3.665 -1.4236  0.4362 -0.5445
 7914SOL    HW225417   4.164   3.658   3.733 -0.1383 -0.5839 -1.3965
 7915SOL     OW25418   8.038   7.370   8.696  0.1771 -0.3483 -0.2190
 7915SOL    HW125419   8.018   7.356   8.603 -1.4781  2.3682 -0.4131
 7915SOL    HW225420   8.131   7.350   8.704  0.4657 -0.2761 -2.5849
 7916SOL     OW25421   5.903   8.834   7.054  0.5937 -0.1738  0.0161
 7916SOL    HW125422   5.998   8.847   7.058  0.5292  0.4788 -0.4442
 7916SOL    HW225423   5.884   8.774   7.127  1.5202 -1.3195 -0.6526
 7917SOL     OW25424   1.784   3.493   5.824 -0.0622 -0.0692  0.2813
 7917SOL    HW125425   1.690   3.510   5.817 -0.0751 -0.1021  0.3823
 7917SOL    HW225426   1.824   3.556   5.763 -0.1051  0.3697  0.7023
 7918SOL     OW25427   2.954   5.281   3.500  0.3108 -0.3052  0.5320
 7918SOL    HW125428   2.965   5.355   3.560  0.5167  0.4049 -0.3505
 7918SOL    HW225429   2.893   5.223   3.544  1.6298 -0.5549  2.1210
 7919SOL     OW25430   0.278   5.765   6.057 -0.1707  0.3243  0.7565
 7919SOL    HW125431   0.328   5.771   6.138  1.9360  0.9780 -0.5215
 7919SOL    HW225432   0.223   5.843   6.057  1.3934  1.4584  0.5860
 7920SOL     OW25433   0.040   0.700   0.159  0.6150  0.2997  0.8458
 7920SOL    HW125434   0.051   0.646   0.080  1.4652 -2.4840  2.7197
 7920SOL    HW225435  -0.030   0.761   0.136 -1.2437 -2.3410 -1.1356
 7921SOL     OW25436   1.389   4.228   0.670 -0.0292 -0.2858 -0.0850
 7921SOL    HW125437   1.329   4.153   0.679 -0.1793 -0.1753 -0.1551
 7921SOL    HW225438   1.331   4.304   0.666  0.1453 -0.1171  0.5232
 7922SOL     OW25439   7.545   1.619   7.853 -0.6297 -0.6951  0.0747
 7922SOL    HW125440   7.526   1.630   7.946 -2.0282 -1.5639 -0.0804
 7922SOL    HW225441   7.460   1.600   7.813 -0.3632  1.3731 -1.6718
 7923SOL     OW25442   6.166   5.669   7.966  0.2625  0.3423 -0.1601
 7923SOL    HW125443   6.257   5.694   7.952 -0.4114  2.2652 -1.5780
 7923SOL    HW225444   6.156   5.587   7.917  1.3188 -0.1171  0.3744
 7924SOL     OW25445   1.378   3.883   2.406 -0.3433  0.2152 -0.0079
 7924SOL    HW125446   1.463   3.901   2.447 -0.3415  0.6279 -0.1809
 7924SOL    HW225447   1.397   3.875   2.313 -0.0892 -2.3926  0.1950
 7925SOL     OW25448   0.283   8.489   1.992  0.1013  0.2564 -0.0224
 7925SOL    HW125449   0.212   8.553   1.977  0.5138  1.0269  1.1778
 7925SOL    HW225450   0.305   8.500   2.084  1.9595  0.2115 -0.4290
 7926SOL     OW25451   2.088   9.422   9.338  0.4491 -0.1274  0.4309
 7926SOL    HW125452   2.060   9.420   9.247 -1.9341 -0.6160  1.0780
 7926SOL    HW225453   2.094   9.515   9.359 -1.3538  0.0402  0.3649
 7927SOL     OW25454   9.048   1.539   3.184  0.3309 -0.0124  0.1924
 7927SOL    HW125455   9.099   1.557   3.105  1.8529 -1.5821  0.7589
 7927SOL    HW225456   9.112   1.541   3.255 -0.8319  0.3374  1.2580
 7928SOL     OW25457   2.221   8.770   2.894 -0.0509 -0.0559  0.1061
 7928SOL    HW125458   2.152   8.808   2.949  0.4853  0.2506  0.5822
 7928SOL    HW225459   2.222   8.677   2.917 -0.7413 -0.1861 -0.3776
 7929SOL     OW25460   4.712   7.832   0.240 -0.1628  0.1515 -0.4158
 7929SOL    HW125461   4.784   7.876   0.195 -0.0616 -1.2601 -1.7141
 7929SOL    HW225462   4.633   7.867   0.199 -0.0806 -0.8730 -1.4890
 7930SOL     OW25463   0.109   3.826   1.409 -0.0897  0.2533 -0.5514
 7930SOL    HW125464   0.113   3.861   1.320 -0.8155 -1.2651 -1.2308
 7930SOL    HW225465   0.199   3.798   1.428 -0.0926 -0.1789 -1.1478
 7931SOL     OW25466   3.745   2.686   8.192 -0.0010 -0.2262 -0.8039
 7931SOL    HW125467   3.725   2.592   8.196 -0.1442 -0.1624  0.3535
 7931SOL    HW225468   3.667   2.726   8.154  0.3847 -0.6551 -2.0897
 7932SOL     OW25469   5.481   9.023   1.043 -0.1271  0.4253  0.2004
 7932SOL    HW125470   5.433   9.044   1.123 -1.2904 -0.5173 -0.2312
 7932SOL    HW225471   5.546   8.958   1.070 -2.0539 -1.6963  0.0066
 7933SOL     OW25472   6.577   5.880   8.034 -0.3232 -0.1145  0.1608
 7933SOL    HW125473   6.548   5.898   8.123 -0.0619  0.7738  0.0801
 7933SOL    HW225474   6.667   5.914   8.031 -0.4222  0.1123 -0.5130
 7934SOL     OW25475   5.090   1.301   2.273 -0.3370  0.3445 -0.4086
 7934SOL    HW125476   5.136   1.296   2.358 -0.8148 -2.4988 -0.2178
 7934SOL    HW225477   5.144   1.360   2.220  0.8052  0.9874  1.3714
 7935SOL     OW25478   8.453   4.542   1.965  0.4813  0.7022  0.3035
 7935SOL    HW125479   8.481   4.531   2.055  2.4247 -0.4806 -0.3867
 7935SOL    HW225480   8.528   4.582   1.921  0.3221 -0.5091 -1.1652
 7936SOL     OW25481   8.202   6.328   6.778  0.0204  0.3038  0.3930
 7936SOL    HW125482   8.241   6.336   6.865  0.4936  2.9570  0.0261
 7936SOL    HW225483   8.108   6.330   6.794  0.0344 -1.5063  0.9451
 7937SOL     OW25484   8.418   0.067   4.409 -0.1395  0.6111  0.1042
 7937SOL    HW125485   8.461   0.042   4.491 -0.4178  0.0516  0.0858
 7937SOL    HW225486   8.476   0.132   4.370  0.2805  0.4630  0.4733
 7938SOL     OW25487   0.123   3.237   1.985  0.1968  0.2223 -0.1041
 7938SOL    HW125488   0.161   3.156   1.952  0.5964  0.4954 -0.3356
 7938SOL    HW225489   0.072   3.211   2.061 -0.1608 -0.3259 -0.5196
 7939SOL     OW25490   3.553   9.396   6.044 -0.3115 -0.1219  0.4482
 7939SOL    HW125491   3.560   9.485   6.079 -1.1305  0.0170  0.2836
 7939SOL    HW225492   3.559   9.340   6.122  2.2466 -0.0625  0.3739
 7940SOL     OW25493   0.969   5.519   5.975  0.4416  0.5942  0.3632
 7940SOL    HW125494   0.915   5.598   5.975  0.0843  0.3509 -0.0183
 7940SOL    HW225495   0.910   5.449   5.951  0.5976  0.0890  1.3924
 7941SOL     OW25496   7.624   8.369   8.632 -0.4745 -0.3348 -0.1690
 7941SOL    HW125497   7.674   8.411   8.562 -1.0717  0.1644 -0.3027
 7941SOL    HW225498   7.631   8.275   8.614  1.7634 -0.4104  0.7338
 7942SOL     OW25499   4.259   6.839   5.655  0.1432 -0.2195 -0.5120
 7942SOL    HW125500   4.301   6.803   5.577  3.0835 -1.0547  1.2665
 7942SOL    HW225501   4.227   6.763   5.703  0.6549  0.0257  0.2500
 7943SOL     OW25502   2.820   9.185   6.249 -0.2333  0.0202 -0.1619
 7943SOL    HW125503   2.841   9.252   6.184 -0.2391 -1.2574 -1.5438
 7943SOL    HW225504   2.726   9.192   6.262 -0.0874  0.9343  0.4885
 7944SOL     OW25505   8.623   6.237   2.513  0.9002  0.4347  0.2836
 7944SOL    HW125506   8.697   6.297   2.504  0.0340  1.5241  0.1653
 7944SOL    HW225507   8.655   6.153   2.479  1.3378  1.4891 -2.1484
 7945SOL     OW25508   8.332   5.603   5.759 -0.4372 -0.2112 -0.6350
 7945SOL    HW125509   8.378   5.614   5.675 -0.4207 -0.6383 -0.6823
 7945SOL    HW225510   8.268   5.674   5.759  0.7082  0.8721 -0.2267
 7946SOL     OW25511   8.376   3.797   7.656 -0.1042  0.6064  0.4089
 7946SOL    HW125512   8.296   3.812   7.705 -0.5183 -0.7612  0.2011
 7946SOL    HW225513   8.447   3.817   7.718 -0.5659  2.1965  0.4746
 7947SOL     OW25514   3.129   1.803   1.593 -0.1665 -0.2972 -0.1735
 7947SOL    HW125515   3.093   1.804   1.681 -0.5416  0.3002 -0.3264
 7947SOL    HW225516   3.162   1.892   1.579  1.6385 -0.8877  0.0629
 7948SOL     OW25517   6.175   5.716   4.364 -0.0751  0.1126 -0.5879
 7948SOL    HW125518   6.256   5.709   4.414 -0.1454 -0.0374 -0.4952
 7948SOL    HW225519   6.160   5.810   4.356 -0.5323  0.1391  0.4361
 7949SOL     OW25520   9.668   4.536   6.670 -0.2629  0.6825 -0.0862
 7949SOL    HW125521   9.704   4.569   6.588  0.6988 -2.3503 -0.9906
 7949SOL    HW225522   9.578   4.511   6.648 -0.0423 -0.0231 -0.1928
 7950SOL     OW25523   4.331   6.084   3.457  0.1673 -0.3870 -0.1074
 7950SOL    HW125524   4.258   6.146   3.461 -0.5733 -1.1298 -1.5172
 7950SOL    HW225525   4.401   6.133   3.413 -0.3385 -0.4479 -1.0081
 7951SOL     OW25526   2.378   1.216   5.838 -0.9306 -0.1142 -0.0035
 7951SOL    HW125527   2.288   1.184   5.838 -0.7664 -0.6133  1.2853
 7951SOL    HW225528   2.399   1.229   5.745 -0.6776 -4.7267 -0.8535
 7952SOL     OW25529   7.829   7.153   6.451 -0.1433  1.0714  0.2084
 7952SOL    HW125530   7.902   7.214   6.460  1.4096 -0.9222  2.1430
 7952SOL    HW225531   7.866   7.067   6.472 -2.7851 -0.2111  0.0739
 7953SOL     OW25532   6.381   8.871   3.251 -0.0998  0.1360  0.1435
 7953SOL    HW125533   6.296   8.905   3.280  0.2585 -1.0979  2.8774
 7953SOL    HW225534   6.444   8.937   3.280  0.0729 -0.0196  0.1226
 7954SOL     OW25535   6.710   0.364   6.304 -0.0620 -0.2609 -0.4070
 7954SOL    HW125536   6.761   0.285   6.323 -0.2466 -0.5148 -0.9240
 7954SOL    HW225537   6.776   0.432   6.293  0.3016 -0.8232 -2.2353
 7955SOL     OW25538   0.990   4.824   6.916  0.2003  0.8108 -0.2962
 7955SOL    HW125539   1.024   4.861   6.834 -1.0167  0.5792 -0.9419
 7955SOL    HW225540   0.915   4.771   6.888  0.7121 -0.5318  0.8250
 7956SOL     OW25541   6.176   2.136   5.072  0.0292 -0.8031 -0.0547
 7956SOL    HW125542   6.182   2.227   5.042  1.1266 -1.1633 -1.0065
 7956SOL    HW225543   6.088   2.129   5.110 -1.0690 -0.0233 -2.2770
 7957SOL     OW25544   0.594   2.883   7.715  0.0131 -0.2874 -0.2983
 7957SOL    HW125545   0.649   2.811   7.683  1.2148  0.5050 -0.0626
 7957SOL    HW225546   0.535   2.901   7.641 -0.5002 -1.6730 -0.2636
 7958SOL     OW25547   9.266   2.841   4.786  0.0387  0.0990 -0.0551
 7958SOL    HW125548   9.188   2.893   4.767 -0.4418 -0.5230  0.1847
 7958SOL    HW225549   9.263   2.827   4.881  1.5345  1.7804  0.2925
 7959SOL     OW25550   2.837   0.811   8.623 -0.1797  0.0464 -0.4487
 7959SOL    HW125551   2.828   0.802   8.718  0.2680 -0.4319 -0.4486
 7959SOL    HW225552   2.823   0.723   8.589  0.9028 -0.0365 -0.7181
 7960SOL     OW25553   9.581   2.381   1.095  0.5681  0.0413  0.7250
 7960SOL    HW125554   9.500   2.395   1.046  1.4024 -0.2110 -0.7913
 7960SOL    HW225555   9.635   2.458   1.074  1.6298 -0.9261 -0.2385
 7961SOL     OW25556   8.424   1.531   7.695  0.5139  0.5884  0.1236
 7961SOL    HW125557   8.365   1.534   7.620 -1.1340 -0.7217  1.3040
 7961SOL    HW225558   8.510   1.511   7.657 -0.5922 -1.9640 -1.3127
 7962SOL     OW25559   2.751   1.433   5.439  0.1551  0.3961 -0.0134
 7962SOL    HW125560   2.751   1.354   5.493  0.8459  0.1107 -0.4205
 7962SOL    HW225561   2.778   1.503   5.499  0.6617  0.1272  0.0750
 7963SOL     OW25562   4.798   6.849   0.567  0.0942  0.5667  0.1151
 7963SOL    HW125563   4.799   6.942   0.542 -1.2492 -0.0016 -2.3642
 7963SOL    HW225564   4.817   6.802   0.487  0.1378 -1.3509  1.1905
 7964SOL     OW25565   8.167   3.924   9.072  0.1187  0.2286  0.0467
 7964SOL    HW125566   8.211   3.920   8.987 -0.3552 -0.6495 -0.1771
 7964SOL    HW225567   8.107   3.998   9.064  0.6003  0.6031 -0.1213
 7965SOL     OW25568   0.972   7.216   4.542 -0.3023 -0.6077 -0.1813
 7965SOL    HW125569   0.970   7.295   4.595 -0.3310 -1.5489  1.2857
 7965SOL    HW225570   1.052   7.223   4.491 -1.1490  1.1404 -1.3636
 7966SOL     OW25571   3.498   5.846   7.014  0.8353 -0.0693 -0.4030
 7966SOL    HW125572   3.410   5.835   6.977  1.4789 -1.2125 -1.6928
 7966SOL    HW225573   3.491   5.811   7.103 -0.2705  0.8621 -0.1065
 7967SOL     OW25574   0.720   5.185   3.216 -0.0798  0.1571  0.4522
 7967SOL    HW125575   0.815   5.190   3.227  0.1102  2.7989 -1.3640
 7967SOL    HW225576   0.709   5.136   3.134 -0.2802 -0.1597  0.6709
 7968SOL     OW25577   7.606   1.920   4.489  0.0303 -0.2694  0.2576
 7968SOL    HW125578   7.684   1.957   4.529 -0.3120  0.6331  0.1082
 7968SOL    HW225579   7.538   1.927   4.557  0.3043 -2.0321  0.7825
 7969SOL     OW25580   4.649   9.073   0.132  0.2566  0.2005 -0.2529
 7969SOL    HW125581   4.592   9.097   0.058 -0.3799 -1.3076 -0.2885
 7969SOL    HW225582   4.700   9.152   0.149 -2.2582  1.8448  0.1658
 7970SOL     OW25583   5.771   5.904   2.288 -0.4368  0.1445  0.2261
 7970SOL    HW125584   5.811   5.911   2.374  1.3714 -1.0831 -0.4554
 7970SOL    HW225585   5.696   5.964   2.291  2.1268  3.6340  1.1600
 7971SOL     OW25586   9.319   0.800   6.170 -0.1637  0.6089 -0.0987
 7971SOL    HW125587   9.359   0.887   6.171  0.7098  0.2848 -1.7162
 7971SOL    HW225588   9.225   0.816   6.163 -0.3556  1.3907  2.9338
 7972SOL     OW25589   3.273   8.769   6.906 -0.6679 -0.4370 -0.1747
 7972SOL    HW125590   3.250   8.779   6.814 -0.5713  1.6910 -0.0215
 7972SOL    HW225591   3.368   8.773   6.908 -0.7007  0.3616  0.0782
 7973SOL     OW25592   2.483   3.660   6.308  0.2560  0.4409 -0.9992
 7973SOL    HW125593   2.439   3.660   6.223  0.3096  0.3725 -1.0271
 7973SOL    HW225594   2.536   3.739   6.308  0.7324  0.1209 -1.2766
 7974SOL     OW25595   6.159   8.814   2.905  0.4367 -0.3020  0.6788
 7974SOL    HW125596   6.179   8.732   2.950  0.7780 -0.6894 -0.1399
 7974SOL    HW225597   6.202   8.805   2.820  1.3386  1.1561  0.9462
 7975SOL     OW25598   9.535   9.522   2.566  0.0509  0.6805  0.6012
 7975SOL    HW125599   9.496   9.610   2.565 -0.6242  0.3796  0.0309
 7975SOL    HW225600   9.630   9.538   2.571  0.0235  1.4751 -0.8724
 7976SOL     OW25601   7.521   6.888   8.656 -0.3953 -0.0970 -0.6879
 7976SOL    HW125602   7.535   6.952   8.727  1.6386 -0.1214 -1.0021
 7976SOL    HW225603   7.465   6.821   8.695  0.7554 -0.1645  0.9669
 7977SOL     OW25604   6.445   5.396   7.165  0.0808 -0.3772 -0.1465
 7977SOL    HW125605   6.383   5.327   7.140 -0.8441  1.0111 -1.8664
 7977SOL    HW225606   6.394   5.454   7.222  0.3956 -0.2572  0.0136
 7978SOL     OW25607   2.556   2.614   5.694  0.1689  0.1580  0.1269
 7978SOL    HW125608   2.487   2.568   5.743 -0.8840  1.6218  0.0635
 7978SOL    HW225609   2.593   2.676   5.756  0.8276  0.0111 -0.1094
 7979SOL     OW25610   6.618   9.562   4.291 -0.3215  0.0868  0.2017
 7979SOL    HW125611   6.648   9.550   4.201 -1.0275  2.1892 -0.3736
 7979SOL    HW225612   6.675   9.630   4.326 -2.0753  1.6043  0.2459
 7980SOL     OW25613   5.206   1.093   8.328  0.0330  0.2120  0.4461
 7980SOL    HW125614   5.262   1.089   8.251  0.3619  1.4754  0.5975
 7980SOL    HW225615   5.216   1.182   8.361 -1.7727  0.3650  0.6937
 7981SOL     OW25616   9.581   4.070   6.589 -0.4642  0.4052 -0.7754
 7981SOL    HW125617   9.567   3.982   6.624 -0.9002  0.1957 -1.4553
 7981SOL    HW225618   9.554   4.128   6.661 -0.5490 -0.0143 -0.4606
 7982SOL     OW25619   0.439   4.688   3.867 -0.0748  0.7236 -0.1270
 7982SOL    HW125620   0.385   4.765   3.848 -1.3422  0.0512  0.6095
 7982SOL    HW225621   0.402   4.652   3.948 -0.9298 -1.8854 -1.5600
 7983SOL     OW25622   4.272   6.553   4.415 -0.1026  0.7396 -0.5227
 7983SOL    HW125623   4.303   6.464   4.435 -2.8983 -0.1006  0.5807
 7983SOL    HW225624   4.293   6.604   4.492  1.2942  1.0065 -1.0610
 7984SOL     OW25625   1.656   6.517   5.948 -0.2829 -0.4968  0.2043
 7984SOL    HW125626   1.689   6.512   5.858 -1.5331  1.4383 -0.4305
 7984SOL    HW225627   1.726   6.561   5.997 -0.9992  1.7232 -0.6685
 7985SOL     OW25628   5.702   0.537   6.350 -0.2627 -0.0897 -0.1107
 7985SOL    HW125629   5.682   0.628   6.370  1.6241  0.3404  0.0156
 7985SOL    HW225630   5.631   0.487   6.388 -1.8082  1.3753 -0.9534
 7986SOL     OW25631   1.733   4.538   2.102  0.3019  0.0282 -0.2195
 7986SOL    HW125632   1.784   4.476   2.155 -1.8506 -0.5048  1.3732
 7986SOL    HW225633   1.754   4.623   2.139 -1.2209 -0.3420  1.6598
 7987SOL     OW25634   7.723   6.985   7.743  0.1197 -0.5097 -0.4344
 7987SOL    HW125635   7.720   7.080   7.751  1.7906 -0.3935 -0.9482
 7987SOL    HW225636   7.783   6.957   7.812 -0.6334 -1.2480 -0.0538
 7988SOL     OW25637   9.401   4.174   5.971 -0.0634  0.1122 -0.3575
 7988SOL    HW125638   9.413   4.191   5.877  0.8938  0.2425 -0.2137
 7988SOL    HW225639   9.321   4.121   5.975  0.3529 -0.6112 -1.3231
 7989SOL     OW25640   8.761   5.635   2.066  0.7593  0.2936 -0.2372
 7989SOL    HW125641   8.828   5.641   2.134  1.4897  0.2978 -0.9354
 7989SOL    HW225642   8.794   5.690   1.995  0.2622 -0.1086 -0.7922
 7990SOL     OW25643   5.107   4.752   7.003  0.3058 -0.6512 -0.0268
 7990SOL    HW125644   5.193   4.765   7.043  0.6266  0.5734 -1.0437
 7990SOL    HW225645   5.057   4.830   7.028 -0.9132 -1.8151  1.4267
 7991SOL     OW25646   3.793   1.718   8.475  0.8552  0.1023 -0.3313
 7991SOL    HW125647   3.776   1.721   8.381 -1.0016  0.3611 -0.0407
 7991SOL    HW225648   3.727   1.776   8.513  0.8015 -0.9014  1.2096
 7992SOL     OW25649   4.705   1.668   9.435 -0.1837  0.0858  0.1680
 7992SOL    HW125650   4.752   1.751   9.438 -2.2724  1.3323  1.9582
 7992SOL    HW225651   4.750   1.612   9.498 -0.5159  0.9350  1.1826
 7993SOL     OW25652   8.410   2.014   1.314 -0.1286 -0.3103 -0.5910
 7993SOL    HW125653   8.320   1.980   1.322 -0.4519  0.3790 -1.1903
 7993SOL    HW225654   8.432   2.000   1.222 -0.0728  0.6225 -0.7248
 7994SOL     OW25655   1.974   6.087   2.904 -0.0724  0.4304 -0.1471
 7994SOL    HW125656   1.995   6.142   2.979  0.8720 -0.6829  0.4436
 7994SOL    HW225657   2.051   6.092   2.848 -1.0194  1.7650 -1.4022
 7995SOL     OW25658   2.561   8.334   3.247  0.6822  0.1148  0.2995
 7995SOL    HW125659   2.640   8.386   3.231  0.5563 -0.1290 -1.2402
 7995SOL    HW225660   2.544   8.291   3.164 -1.2675  0.4152  0.5099
 7996SOL     OW25661   1.721   4.820   9.075 -0.3064  0.1391 -0.3779
 7996SOL    HW125662   1.734   4.824   8.981 -0.3794 -0.0462 -0.3956
 7996SOL    HW225663   1.749   4.732   9.100  1.3652  0.7467  0.0275
 7997SOL     OW25664   8.423   5.086   0.899  0.2068  0.5876  0.3767
 7997SOL    HW125665   8.479   5.163   0.903 -0.2590  1.0268 -0.9585
 7997SOL    HW225666   8.438   5.051   0.811 -3.1117  1.9228 -0.8794
 7998SOL     OW25667   8.735   9.440   2.047  0.1154 -0.4571  0.7129
 7998SOL    HW125668   8.741   9.365   1.988 -0.5136  0.1260 -0.1232
 7998SOL    HW225669   8.810   9.494   2.025  0.0960 -0.4258  0.7227
 7999SOL     OW25670   0.043   9.431   8.841  0.3900 -1.0888 -0.2036
 7999SOL    HW125671   0.104   9.495   8.803 -0.4943  0.4670  0.8948
 7999SOL    HW225672   0.039   9.361   8.776  3.0641 -1.0986 -0.4780
 8000SOL     OW25673   2.045   2.936   2.249  0.2191  0.2858 -0.0750
 8000SOL    HW125674   2.018   3.023   2.278  0.2143  0.3444 -0.2536
 8000SOL    HW225675   2.088   2.952   2.165  1.8409  0.3512  0.7117
 8001SOL     OW25676   8.289   6.753   9.377  0.3113 -0.0731  0.0699
 8001SOL    HW125677   8.206   6.707   9.390  0.0721  0.3298 -0.0102
 8001SOL    HW225678   8.351   6.684   9.352  0.5168 -0.7213  2.1305
 8002SOL     OW25679   4.724   3.305   7.712 -0.5815  0.3208 -0.0412
 8002SOL    HW125680   4.687   3.294   7.624  0.9433 -0.7320 -0.5801
 8002SOL    HW225681   4.804   3.355   7.699  0.2843 -0.8665  0.5891
 8003SOL     OW25682   7.273   8.555   2.212 -0.3066 -0.1294 -0.5152
 8003SOL    HW125683   7.366   8.560   2.235 -0.2709 -0.0806 -0.6693
 8003SOL    HW225684   7.265   8.477   2.158 -0.2498  0.1898 -0.9883
 8004SOL     OW25685   8.547   0.494   8.996 -0.4633  0.7672 -0.3892
 8004SOL    HW125686   8.584   0.411   8.966 -2.1368 -0.9318  1.8581
 8004SOL    HW225687   8.466   0.504   8.947 -0.9399  0.3526  0.3076
 8005SOL     OW25688   3.234   2.303   8.999  0.2535  0.3390  0.2999
 8005SOL    HW125689   3.248   2.319   8.905  1.6526 -0.1685  0.3998
 8005SOL    HW225690   3.269   2.382   9.041  0.2575  0.2710  0.4230
 8006SOL     OW25691   4.602   2.158   3.677  0.1529  0.0095  0.6073
 8006SOL    HW125692   4.694   2.135   3.688  0.3259  1.1644  1.8917
 8006SOL    HW225693   4.555   2.075   3.687  0.8936 -0.2033  2.7148
 8007SOL     OW25694   2.820   5.701   9.146 -0.3528 -0.0320  0.3263
 8007SOL    HW125695   2.753   5.752   9.193  0.4920 -0.4778  2.0975
 8007SOL    HW225696   2.775   5.620   9.123 -0.2674 -0.6840  2.2418
 8008SOL     OW25697   2.825   5.811   7.191  0.2100 -0.3873  0.4577
 8008SOL    HW125698   2.795   5.898   7.219  0.3790 -0.5825  1.2658
 8008SOL    HW225699   2.849   5.823   7.099  0.6665  0.5382  0.6774
 8009SOL     OW25700   1.279   9.162   4.834 -0.0938  0.0492 -0.1011
 8009SOL    HW125701   1.290   9.070   4.856  0.9369  0.2688  0.3483
 8009SOL    HW225702   1.210   9.163   4.768  1.0477 -1.1999 -1.3488
 8010SOL     OW25703   3.158   4.372   4.638 -0.7581 -0.1873 -0.3862
 8010SOL    HW125704   3.164   4.468   4.637  0.2878 -0.1966  1.1207
 8010SOL    HW225705   3.243   4.344   4.673 -1.3569 -1.6308 -0.0348
 8011SOL     OW25706   7.743   5.098   3.841  0.0653 -0.4046 -0.3472
 8011SOL    HW125707   7.742   5.019   3.896  0.2025  0.4942  1.0084
 8011SOL    HW225708   7.692   5.075   3.764  2.5702 -2.8147 -1.4576
 8012SOL     OW25709   3.938   7.851   2.865 -0.2685 -0.3506  0.1893
 8012SOL    HW125710   3.913   7.852   2.957 -3.7952  1.1228 -0.6124
 8012SOL    HW225711   4.021   7.900   2.861  1.8563 -3.3227  2.8212
 8013SOL     OW25712   8.902   5.306   4.942 -0.7207  0.1948 -0.2655
 8013SOL    HW125713   8.872   5.254   5.017  0.3596  0.5197  0.4035
 8013SOL    HW225714   8.945   5.382   4.980 -1.6559  1.2601 -1.2322
 8014SOL     OW25715   7.305   0.407   5.163 -0.3606  0.0174  0.1139
 8014SOL    HW125716   7.221   0.381   5.200 -0.8808 -0.7284 -1.5070
 8014SOL    HW225717   7.370   0.371   5.224 -1.1963  0.2262  1.1487
 8015SOL     OW25718   7.161   4.309   0.135 -0.2686 -0.4437  0.6436
 8015SOL    HW125719   7.154   4.330   0.228 -0.1532  0.0415  0.5479
 8015SOL    HW225720   7.184   4.216   0.133  2.2260  0.0682  1.2061
 8016SOL     OW25721   5.315   9.179   4.466 -0.0191 -0.0098 -0.6525
 8016SOL    HW125722   5.270   9.131   4.396  0.2104 -0.5599 -0.4266
 8016SOL    HW225723   5.408   9.158   4.453  0.1225  0.6998 -0.7944
 8017SOL     OW25724   5.981   9.630   9.585 -0.2007  0.0810  0.1053
 8017SOL    HW125725   5.929   9.631   9.505 -1.4129  0.7477  0.8753
 8017SOL    HW225726   5.986   9.721   9.612 -0.4888 -0.2103  1.2066
 8018SOL     OW25727   5.948   4.431   8.133 -0.1627 -0.2622  0.2020
 8018SOL    HW125728   5.934   4.462   8.223  1.0375  3.0744 -0.6242
 8018SOL    HW225729   5.930   4.337   8.137 -1.7338  0.0474  3.5550
 8019SOL     OW25730   3.268   6.979   7.561 -0.3141  0.1388 -0.4998
 8019SOL    HW125731   3.268   7.048   7.628  0.6850  0.3018 -0.6522
 8019SOL    HW225732   3.255   6.898   7.610 -0.3263  0.3273 -0.1851
 8020SOL     OW25733   3.573   7.825   6.192 -0.0054 -0.8011 -0.0776
 8020SOL    HW125734   3.595   7.860   6.278 -0.1827  1.3624 -0.8589
 8020SOL    HW225735   3.641   7.760   6.174  0.9990 -0.0812  1.0031
 8021SOL     OW25736   9.568   8.122   5.964 -0.2203 -0.0788 -0.0173
 8021SOL    HW125737   9.521   8.045   5.995  0.6219 -0.5880  0.0165
 8021SOL    HW225738   9.642   8.132   6.024  1.2342 -0.8769 -1.5606
 8022SOL     OW25739   3.786   8.654   2.578  0.4378 -0.7185 -0.3900
 8022SOL    HW125740   3.782   8.697   2.493 -0.7922  2.7391  1.1827
 8022SOL    HW225741   3.739   8.572   2.566 -0.6756  0.1744 -2.7992
 8023SOL     OW25742   7.024   5.102   9.404 -0.6126 -0.4753  0.1549
 8023SOL    HW125743   6.937   5.104   9.363 -0.0908 -1.9480 -1.1184
 8023SOL    HW225744   7.085   5.116   9.331  0.2531 -0.5372  0.8564
 8024SOL     OW25745   3.626   0.210   2.827 -0.2880 -0.2821 -0.4291
 8024SOL    HW125746   3.560   0.219   2.896  1.4800 -1.7406  1.5988
 8024SOL    HW225747   3.676   0.291   2.831 -0.2564 -0.3171 -0.0286
 8025SOL     OW25748   4.147   0.987   1.423  0.0187 -0.1338 -0.6490
 8025SOL    HW125749   4.172   1.077   1.444 -0.2203 -0.8031  3.2962
 8025SOL    HW225750   4.051   0.988   1.428  0.0224 -0.6261 -0.4368
 8026SOL     OW25751   4.961   0.993   8.328  0.2096  0.1550 -0.1281
 8026SOL    HW125752   5.054   1.007   8.341  0.1520 -0.1783  0.6717
 8026SOL    HW225753   4.933   1.067   8.273  0.6664  1.0591  0.8275
 8027SOL     OW25754   6.510   6.080   5.572 -0.0733  0.3425  0.1608
 8027SOL    HW125755   6.588   6.133   5.589 -0.1484  0.4408  0.2011
 8027SOL    HW225756   6.533   6.028   5.495  1.0775 -1.6966  1.7840
 8028SOL     OW25757   8.404   7.306   6.258  0.0762  0.0930 -0.1722
 8028SOL    HW125758   8.409   7.213   6.277  0.7593 -0.0180 -0.8699
 8028SOL    HW225759   8.402   7.311   6.163  0.5217  0.8120 -0.1488
 8029SOL     OW25760   1.898   1.611   8.306  0.4562  0.2616  0.6154
 8029SOL    HW125761   1.881   1.593   8.399  0.9981  0.3832  0.7438
 8029SOL    HW225762   1.989   1.641   8.304  0.1724  1.1500  0.1641
 8030SOL     OW25763   6.443   3.208   5.951  0.9595  0.1336 -0.1318
 8030SOL    HW125764   6.514   3.153   5.984  0.8531  0.3819  0.5305
 8030SOL    HW225765   6.422   3.266   6.024  0.8874  0.8746 -0.7262
 8031SOL     OW25766   6.158   1.596   2.672 -0.6646 -0.3309 -0.0809
 8031SOL    HW125767   6.230   1.653   2.642 -0.8478 -0.7111 -1.2995
 8031SOL    HW225768   6.148   1.617   2.764 -0.8806  1.8014 -0.5348
 8032SOL     OW25769   6.976   7.542   8.736 -0.1992  0.3020 -0.2098
 8032SOL    HW125770   6.988   7.447   8.736 -0.0247  0.2666 -2.9009
 8032SOL    HW225771   6.912   7.557   8.806 -0.8683 -1.8797 -0.2674
 8033SOL     OW25772   4.502   4.833   6.482 -0.2698  0.4184 -0.0426
 8033SOL    HW125773   4.419   4.880   6.496 -0.4681  0.0577 -0.0068
 8033SOL    HW225774   4.510   4.776   6.559 -1.0393 -1.1109 -1.0734
 8034SOL     OW25775   4.540   5.367   1.336  0.5360  0.4861  0.7772
 8034SOL    HW125776   4.575   5.399   1.254  0.6845 -0.4882  0.4449
 8034SOL    HW225777   4.459   5.416   1.348 -0.0694 -0.1343 -0.5288
 8035SOL     OW25778   0.550   1.584   2.993  0.2447 -0.1287  0.0760
 8035SOL    HW125779   0.544   1.671   2.951 -0.1280  1.1704  2.6359
 8035SOL    HW225780   0.592   1.529   2.927 -1.6102  1.3603 -2.5484
 8036SOL     OW25781   3.899   8.029   1.936 -0.6654 -0.1405  0.0385
 8036SOL    HW125782   3.971   8.032   1.999  0.0636  1.7321 -0.8002
 8036SOL    HW225783   3.854   7.947   1.954  1.3272 -1.0791  0.9884
 8037SOL     OW25784   4.851   7.585   8.876 -0.1579  0.6580  0.2700
 8037SOL    HW125785   4.859   7.514   8.812 -2.5477  0.5228 -0.0015
 8037SOL    HW225786   4.919   7.568   8.941  0.0334 -1.2427 -0.3683
 8038SOL     OW25787   7.937   4.248   7.754 -0.2815  0.3309 -0.0009
 8038SOL    HW125788   7.856   4.202   7.775 -0.1941  0.1460 -0.0656
 8038SOL    HW225789   7.932   4.265   7.660 -1.7775  3.2807  0.4797
 8039SOL     OW25790   4.369   7.748   9.316 -0.1923  0.1941 -0.5888
 8039SOL    HW125791   4.359   7.788   9.402 -0.7513  1.9312 -1.4204
 8039SOL    HW225792   4.460   7.716   9.314 -0.8379 -2.0358  1.4671
 8040SOL     OW25793   2.398   2.404   0.796  0.1102  0.2223  0.3047
 8040SOL    HW125794   2.486   2.422   0.828 -0.5154  3.5324  0.5631
 8040SOL    HW225795   2.401   2.424   0.703 -0.0172 -1.2227 -0.0210
 8041SOL     OW25796   0.886   1.242   1.434  0.0853 -0.8422  0.4715
 8041SOL    HW125797   0.878   1.294   1.513  0.1035 -1.7427  1.0834
 8041SOL    HW225798   0.876   1.305   1.362  2.3375  0.3821  1.1321
 8042SOL     OW25799   7.205   7.966   1.067  0.0050 -0.1579  0.4189
 8042SOL    HW125800   7.252   8.035   1.115 -1.5025 -0.0969  1.8718
 8042SOL    HW225801   7.189   7.898   1.132  0.7327 -1.5675 -0.8029
 8043SOL     OW25802   4.133   2.686   1.142 -0.0379 -0.3642  0.2813
 8043SOL    HW125803   4.159   2.770   1.180 -0.0168  0.2615 -1.0488
 8043SOL    HW225804   4.063   2.709   1.080 -0.5893 -1.4425  0.4831
 8044SOL     OW25805   9.177   5.771   2.813  0.1757 -0.0227 -0.4621
 8044SOL    HW125806   9.142   5.692   2.853  0.3513 -0.2422 -0.7472
 8044SOL    HW225807   9.137   5.842   2.864 -0.8853 -0.2576 -0.9452
 8045SOL     OW25808   6.492   7.232   9.412  0.6553  0.2847  0.0009
 8045SOL    HW125809   6.420   7.285   9.378 -0.8762 -2.2500 -1.0323
 8045SOL    HW225810   6.485   7.240   9.507 -0.6033  0.6136 -0.0990
 8046SOL     OW25811   3.984   6.844   8.783 -0.3700 -0.6793 -0.1665
 8046SOL    HW125812   4.068   6.890   8.782 -0.4633 -0.5151 -0.9026
 8046SOL    HW225813   4.007   6.753   8.800 -0.0311 -0.6586 -0.5112
 8047SOL     OW25814   7.442   2.746   1.372 -0.2276 -0.5478 -0.7239
 8047SOL    HW125815   7.486   2.830   1.360 -2.8311  0.9325 -0.7174
 8047SOL    HW225816   7.409   2.724   1.285  0.8247 -1.8487 -0.8224
 8048SOL     OW25817   2.932   6.644   9.665  0.3110 -0.2146  0.5974
 8048SOL    HW125818   2.960   6.735   9.667  0.4357 -0.2622  2.3918
 8048SOL    HW225819   2.919   6.620   9.757 -1.1757 -1.5640  0.0948
 8049SOL     OW25820   8.457   1.509   2.400 -0.9129  0.4756  0.0165
 8049SOL    HW125821   8.384   1.571   2.410 -0.5799  1.1940 -1.6494
 8049SOL    HW225822   8.440   1.465   2.316  0.2064  0.1529 -0.0578
 8050SOL     OW25823   6.803   1.920   9.475  0.2731 -0.2505  0.4749
 8050SOL    HW125824   6.707   1.911   9.477  0.1212  0.1028 -1.8466
 8050SOL    HW225825   6.835   1.831   9.481 -0.1508 -0.3485  1.6750
 8051SOL     OW25826   9.295   3.365   6.175 -0.6594  0.3040  0.0344
 8051SOL    HW125827   9.314   3.344   6.266 -0.6847 -0.2476 -0.0837
 8051SOL    HW225828   9.381   3.371   6.134 -0.6492 -2.4125 -0.5486
 8052SOL     OW25829   3.677   3.836   4.528 -0.3762  0.0938  0.7979
 8052SOL    HW125830   3.755   3.802   4.484 -0.7246 -1.1461  1.1015
 8052SOL    HW225831   3.629   3.882   4.458  1.6687  2.9162  1.0682
 8053SOL     OW25832   7.832   3.838   2.709  0.1381 -0.5575  0.2494
 8053SOL    HW125833   7.884   3.758   2.711  1.0948  0.0330 -0.2973
 8053SOL    HW225834   7.865   3.886   2.633  1.4433  1.5902  2.0708
 8054SOL     OW25835   5.046   1.024   4.998  0.2921 -0.4363 -0.1086
 8054SOL    HW125836   5.062   1.106   4.952  0.9783 -0.3293  0.3082
 8054SOL    HW225837   5.068   0.956   4.933  0.8301 -0.2876 -0.0875
 8055SOL     OW25838   9.227   7.388   1.136 -0.3078  0.1840 -0.1897
 8055SOL    HW125839   9.253   7.319   1.075 -0.0216  0.8496 -0.8353
 8055SOL    HW225840   9.144   7.421   1.100 -0.3275  0.3259 -0.0150
 8056SOL     OW25841   9.083   2.516   6.195 -0.0721 -0.4019 -0.2942
 8056SOL    HW125842   9.061   2.525   6.288  0.0037 -0.5529 -0.2598
 8056SOL    HW225843   9.083   2.421   6.180  0.3234 -0.3953 -0.3459
 8057SOL     OW25844   8.822   4.691   9.280  0.0081  0.2573 -0.3460
 8057SOL    HW125845   8.863   4.757   9.225  3.2511  0.1886  1.7135
 8057SOL    HW225846   8.876   4.613   9.268 -0.5330 -0.3946  1.2170
 8058SOL     OW25847   4.440   7.726   0.564  0.6231 -0.1596 -0.0843
 8058SOL    HW125848   4.532   7.744   0.542  0.3807 -0.6231 -1.6221
 8058SOL    HW225849   4.404   7.811   0.587  1.3082  0.1122  0.0133
 8059SOL     OW25850   6.437   6.262   2.992  0.1995  0.6729 -0.2395
 8059SOL    HW125851   6.492   6.209   2.935  0.8529  1.6020 -0.4913
 8059SOL    HW225852   6.485   6.267   3.075  0.0913  0.7958 -0.1840
 8060SOL     OW25853   3.471   7.300   9.627 -0.3748  0.1808  0.2506
 8060SOL    HW125854   3.378   7.280   9.632 -0.2198 -0.5701  0.2990
 8060SOL    HW225855   3.498   7.268   9.541  0.0942 -0.7956  0.7368
 8061SOL     OW25856   3.853   7.316   1.780 -0.2994 -0.1404  0.2817
 8061SOL    HW125857   3.925   7.285   1.834 -0.2467 -1.5542 -0.5604
 8061SOL    HW225858   3.892   7.332   1.694 -0.5404  1.3101  0.4215
 8062SOL     OW25859   3.983   4.744   6.358  0.0551  0.3225  0.5049
 8062SOL    HW125860   3.975   4.831   6.397  2.6706  1.0167 -0.3038
 8062SOL    HW225861   3.930   4.749   6.278 -1.0243  0.6389  1.2175
 8063SOL     OW25862   2.893   1.182   9.479  0.0568  0.8995  0.0866
 8063SOL    HW125863   2.861   1.269   9.505  0.4747  0.7423  1.1814
 8063SOL    HW225864   2.945   1.199   9.400 -0.3230  1.5604 -0.0346
 8064SOL     OW25865   9.042   3.131   3.044 -0.2724 -0.4249  0.4242
 8064SOL    HW125866   9.045   3.131   2.948  0.9737 -1.1621  0.4227
 8064SOL    HW225867   9.063   3.221   3.069 -2.0105  0.1221  0.0168
 8065SOL     OW25868   7.868   9.287   2.818  0.0933 -1.0144  0.0315
 8065SOL    HW125869   7.774   9.304   2.830  0.6184  1.2946  1.6446
 8065SOL    HW225870   7.896   9.353   2.754  0.8309 -0.8170  0.5432
 8066SOL     OW25871   4.920   7.580   0.608  0.2931  0.2250 -0.1260
 8066SOL    HW125872   4.933   7.637   0.685 -0.0475  0.3300 -0.1433
 8066SOL    HW225873   5.007   7.567   0.573  0.4545  0.1621  0.2948
 8067SOL     OW25874   7.870   1.115   3.379  0.5324  0.3389 -0.1389
 8067SOL    HW125875   7.892   1.064   3.457  1.5292  0.6285 -0.2097
 8067SOL    HW225876   7.809   1.060   3.330  0.3214 -0.0746  0.5763
 8068SOL     OW25877   0.614   2.624   7.623 -0.1193  0.1907 -0.2838
 8068SOL    HW125878   0.672   2.579   7.562 -0.6766  0.9008 -1.3668
 8068SOL    HW225879   0.529   2.626   7.579 -0.4575  0.9927  0.3781
 8069SOL     OW25880   0.215   8.186   7.528 -0.2469  0.3646  0.3611
 8069SOL    HW125881   0.156   8.262   7.534 -0.0390  0.5379  0.2483
 8069SOL    HW225882   0.265   8.188   7.609 -0.2263  0.3632  0.3483
 8070SOL     OW25883   3.051   5.002   8.644  0.4042  0.4603 -0.1375
 8070SOL    HW125884   2.981   5.051   8.686  0.5299  1.0340 -0.5862
 8070SOL    HW225885   3.087   4.947   8.713 -1.4393 -0.9577 -0.2146
 8071SOL     OW25886   0.949   8.637   2.443 -0.1357 -0.0026  0.3459
 8071SOL    HW125887   1.018   8.625   2.509  0.5017 -0.7591 -0.4262
 8071SOL    HW225888   0.952   8.557   2.391 -0.7552  0.4929 -0.4754
 8072SOL     OW25889   9.339   8.230   1.029  0.4293 -0.2729 -0.0619
 8072SOL    HW125890   9.255   8.184   1.027  0.3137 -0.0770  0.2081
 8072SOL    HW225891   9.323   8.306   1.084  0.1579  1.0079 -1.8478
 8073SOL     OW25892   3.832   3.131   2.490 -0.1726 -0.4897  0.2626
 8073SOL    HW125893   3.823   3.036   2.501 -0.6347 -0.6567 -1.2430
 8073SOL    HW225894   3.794   3.148   2.403 -0.7467  1.1725  0.8049
 8074SOL     OW25895   3.716   4.700   3.771 -0.5567  0.4612 -0.6792
 8074SOL    HW125896   3.746   4.609   3.782  0.7118  0.7348 -1.5375
 8074SOL    HW225897   3.652   4.713   3.840  1.1437 -0.2819  1.1519
 8075SOL     OW25898   6.488   7.512   2.776 -0.2658 -0.3971  0.1801
 8075SOL    HW125899   6.541   7.444   2.734 -0.6589 -1.3841  1.1972
 8075SOL    HW225900   6.422   7.462   2.825  2.0739  0.4103  4.6544
 8076SOL     OW25901   5.254   5.600   9.596 -0.1124 -0.1833  0.0130
 8076SOL    HW125902   5.236   5.525   9.653 -0.8878 -0.4779 -0.6016
 8076SOL    HW225903   5.291   5.562   9.516  2.4295  0.3320  0.8334
 8077SOL     OW25904   3.749   1.949   4.322 -0.0592 -0.2408  0.6483
 8077SOL    HW125905   3.682   2.003   4.278  0.3023  0.2067  0.6419
 8077SOL    HW225906   3.783   2.005   4.391  0.3881 -0.4293  0.5802
 8078SOL     OW25907   0.684   2.973   4.353 -0.1597  0.4103  0.0798
 8078SOL    HW125908   0.643   2.958   4.268 -2.0907 -0.1437  1.0602
 8078SOL    HW225909   0.641   3.051   4.387  0.6731  0.6905  0.5239
 8079SOL     OW25910   3.462   7.634   2.676  0.3657 -0.5237  0.7335
 8079SOL    HW125911   3.552   7.658   2.697  0.2312  1.4667 -0.7478
 8079SOL    HW225912   3.415   7.717   2.673 -1.3376 -1.4524  0.5589
 8080SOL     OW25913   6.678   4.850   7.222 -0.3482 -0.0273  0.2330
 8080SOL    HW125914   6.607   4.795   7.190  1.0255 -0.5167 -2.1882
 8080SOL    HW225915   6.644   4.939   7.216 -1.0373 -0.3069 -0.0760
 8081SOL     OW25916   1.457   7.687   4.754  0.3633  0.2099 -0.4376
 8081SOL    HW125917   1.438   7.594   4.744  0.4002 -0.1754  2.2930
 8081SOL    HW225918   1.438   7.705   4.846  2.0564  2.5067 -0.4604
 8082SOL     OW25919   1.911   2.203   5.770  0.5118  0.8421 -0.2635
 8082SOL    HW125920   1.892   2.128   5.826  0.7769  0.5658 -0.5406
 8082SOL    HW225921   1.917   2.277   5.831 -0.0894  0.7011 -0.0299
 8083SOL     OW25922   4.626   4.394   3.767  0.1836  0.5395 -0.1815
 8083SOL    HW125923   4.617   4.489   3.765  0.3492  0.6048  1.3792
 8083SOL    HW225924   4.683   4.374   3.693 -0.6344  1.5448 -1.1184
 8084SOL     OW25925   5.304   9.132   8.259  0.0409  0.4021  0.4011
 8084SOL    HW125926   5.357   9.153   8.182  2.4163 -1.2214  1.4702
 8084SOL    HW225927   5.290   9.216   8.303  0.2679  1.0841 -0.8116
 8085SOL     OW25928   1.888   4.408   7.702 -0.1534 -0.4968 -0.0227
 8085SOL    HW125929   1.923   4.323   7.674 -0.7535 -0.4068 -1.1022
 8085SOL    HW225930   1.793   4.394   7.706 -0.4938  0.6486 -2.2717
 8086SOL     OW25931   0.851   2.754   8.404 -0.5760 -0.4456 -0.2096
 8086SOL    HW125932   0.807   2.784   8.483  0.5130 -0.4708  0.4273
 8086SOL    HW225933   0.848   2.829   8.345 -0.6644 -0.1479  0.1684
 8087SOL     OW25934   1.854   8.810   6.237 -0.1066 -0.0332  0.2745
 8087SOL    HW125935   1.876   8.891   6.283 -0.2626  0.1153  0.0933
 8087SOL    HW225936   1.920   8.801   6.168  0.5976 -0.6698  1.0110
 8088SOL     OW25937   1.691   9.169   8.887  0.0854 -0.0606 -0.4011
 8088SOL    HW125938   1.658   9.254   8.916  0.6611 -0.5108  1.7565
 8088SOL    HW225939   1.614   9.124   8.853 -0.5894  0.6582  0.1268
 8089SOL     OW25940   7.368   7.474   7.720  0.4909  0.0310  0.0274
 8089SOL    HW125941   7.391   7.401   7.663  0.9136  0.9964 -1.0838
 8089SOL    HW225942   7.286   7.447   7.762  0.7799 -1.1750 -0.1577
 8090SOL     OW25943   9.370   0.971   4.531 -0.4500 -0.1529  0.0221
 8090SOL    HW125944   9.422   0.936   4.603 -1.7410  1.3712  1.8057
 8090SOL    HW225945   9.290   0.918   4.532 -0.5220 -0.0475 -0.2165
 8091SOL     OW25946   0.635   4.441   8.794 -0.7912  0.0821  0.1183
 8091SOL    HW125947   0.564   4.490   8.836 -2.5250  1.4086 -3.8857
 8091SOL    HW225948   0.591   4.367   8.752 -0.4591  2.0521 -4.2168
 8092SOL     OW25949   8.318   1.200   8.929  0.1580  0.5791  0.0821
 8092SOL    HW125950   8.376   1.208   8.853 -2.0704 -0.9577 -1.9089
 8092SOL    HW225951   8.346   1.119   8.972  0.0527  0.3003 -0.3706
 8093SOL     OW25952   1.195   3.474   1.360  0.3682 -0.0178 -0.0573
 8093SOL    HW125953   1.236   3.561   1.363  1.1238 -0.3806  0.8233
 8093SOL    HW225954   1.114   3.484   1.409 -0.1878  0.4998 -1.0683
 8094SOL     OW25955   2.611   9.099   8.280 -0.0040  0.1216  0.2341
 8094SOL    HW125956   2.666   9.044   8.224  0.8230  0.0329  1.1032
 8094SOL    HW225957   2.534   9.119   8.226 -1.0994 -3.1604  0.4103
 8095SOL     OW25958   9.215   7.867   7.564  0.8508 -0.2828  0.0213
 8095SOL    HW125959   9.231   7.919   7.642  0.1844  0.3207 -0.2306
 8095SOL    HW225960   9.210   7.931   7.493  4.3204 -0.9907 -1.0586
 8096SOL     OW25961   2.388   0.593   2.517  0.3248  0.2162  0.5777
 8096SOL    HW125962   2.481   0.569   2.518  0.3081 -0.1829 -2.0809
 8096SOL    HW225963   2.370   0.615   2.426 -1.9390  1.4077  1.2573
 8097SOL     OW25964   2.253   1.759   0.918 -0.3696  0.4996  0.0180
 8097SOL    HW125965   2.305   1.680   0.903 -0.4295  0.5121 -0.2676
 8097SOL    HW225966   2.272   1.783   1.008  0.9118  1.0724 -0.3837
 8098SOL     OW25967   7.130   2.503   0.569 -0.4568  0.0554 -0.4605
 8098SOL    HW125968   7.129   2.596   0.592  0.1395 -0.0625  0.0649
 8098SOL    HW225969   7.068   2.496   0.496 -3.2685  0.2866  1.6900
 8099SOL     OW25970   9.652   5.720   6.995  0.4620 -0.1647 -0.0272
 8099SOL    HW125971   9.658   5.700   6.902  0.9100  1.5279 -0.3761
 8099SOL    HW225972   9.702   5.650   7.038  0.7763 -0.6004 -1.0861
 8100SOL     OW25973   5.464   2.539   7.828 -0.4377 -0.0326  0.1622
 8100SOL    HW125974   5.481   2.477   7.758 -3.1885 -0.0661 -0.5875
 8100SOL    HW225975   5.436   2.619   7.784 -0.1225  0.6617  1.1847
 8101SOL     OW25976   4.986   4.378   7.616 -0.2396 -0.1265 -0.2669
 8101SOL    HW125977   4.895   4.357   7.636 -0.5646 -0.0187 -1.5277
 8101SOL    HW225978   4.981   4.455   7.560  0.7386  1.0078  1.1176
 8102SOL     OW25979   4.062   6.079   9.262  0.2807  0.2831  0.1905
 8102SOL    HW125980   4.006   6.034   9.325  0.7994 -0.1437  0.3582
 8102SOL    HW225981   4.134   6.018   9.246 -0.8472 -0.4919 -2.3611
 8103SOL     OW25982   4.065   2.241   2.464 -0.3557  0.4635 -0.4568
 8103SOL    HW125983   4.096   2.154   2.488  0.0445  0.4787 -0.9022
 8103SOL    HW225984   4.145   2.292   2.450 -0.3788  2.1022  3.7571
 8104SOL     OW25985   0.600   2.566   1.642 -0.2795  0.5651  0.5405
 8104SOL    HW125986   0.613   2.647   1.691 -1.7707  0.1190  1.7567
 8104SOL    HW225987   0.505   2.552   1.643 -0.1027 -0.9362 -0.0713
 8105SOL     OW25988   6.696   4.285   4.711  0.2350  0.0604 -0.2396
 8105SOL    HW125989   6.751   4.226   4.659  0.5313 -1.4619  1.6819
 8105SOL    HW225990   6.739   4.289   4.796 -0.2643  2.4309 -0.0354
 8106SOL     OW25991   2.799   4.356   0.547 -0.3087 -0.6651  0.1020
 8106SOL    HW125992   2.802   4.359   0.452  2.0008 -0.3346  0.1300
 8106SOL    HW225993   2.840   4.272   0.570 -1.2534 -0.9522  0.8233
 8107SOL     OW25994   0.930   9.332   4.417 -0.4243 -1.0265  0.4345
 8107SOL    HW125995   1.000   9.395   4.397 -0.9744 -1.2316 -2.6930
 8107SOL    HW225996   0.910   9.347   4.509  1.0569  1.7512  0.4246
 8108SOL     OW25997   0.075   9.353   9.096 -0.3841 -0.2834 -0.1600
 8108SOL    HW125998   0.104   9.434   9.139 -0.1786 -0.5412  0.1909
 8108SOL    HW225999   0.071   9.376   9.003  0.5328 -0.1199 -0.1672
 8109SOL     OW26000   8.383   2.113   0.436 -0.0878 -0.3763 -0.7113
 8109SOL    HW126001   8.333   2.081   0.511  1.4905  0.2894  0.6920
 8109SOL    HW226002   8.353   2.203   0.423  0.2385 -0.2117 -0.3292
 8110SOL     OW26003   2.828   9.161   3.828 -0.5352  0.0056  0.5370
 8110SOL    HW126004   2.756   9.211   3.867  0.1325  0.9406  0.6062
 8110SOL    HW226005   2.855   9.214   3.752  2.0198  1.2739  2.1845
 8111SOL     OW26006   5.510   0.375   6.476  0.0558 -0.3665  0.1199
 8111SOL    HW126007   5.528   0.282   6.489 -1.0364 -0.6272 -0.0739
 8111SOL    HW226008   5.427   0.390   6.521 -0.0091  0.4097 -0.2324
 8112SOL     OW26009   8.710   6.801   2.267  0.5117  0.2383 -0.1587
 8112SOL    HW126010   8.736   6.730   2.208  0.1930  0.2733 -0.3471
 8112SOL    HW226011   8.673   6.868   2.208 -0.3784  0.0165  0.1280
 8113SOL     OW26012   5.653   2.410   2.557  0.0140  0.5149 -0.2305
 8113SOL    HW126013   5.604   2.491   2.570 -0.0948  0.2870  0.8784
 8113SOL    HW226014   5.674   2.410   2.464 -1.8967  0.7199 -0.6935
 8114SOL     OW26015   2.285   2.366   3.532 -0.2304 -0.1963 -0.3667
 8114SOL    HW126016   2.221   2.305   3.495  0.6140 -1.5079  0.2812
 8114SOL    HW226017   2.305   2.331   3.618  1.2496  0.2771 -0.5000
 8115SOL     OW26018   3.490   0.293   6.767  0.0318  0.0776  0.2311
 8115SOL    HW126019   3.430   0.342   6.823  0.9105  1.1861  0.2375
 8115SOL    HW226020   3.433   0.241   6.710 -0.9274  1.1155  0.2196
 8116SOL     OW26021   7.977   2.498   5.912  0.2869  0.4291  0.1269
 8116SOL    HW126022   7.950   2.565   5.849  1.0892  0.5484 -0.1035
 8116SOL    HW226023   7.921   2.423   5.892  2.4464 -0.6200 -2.8004
 8117SOL     OW26024   9.414   4.909   3.270 -0.0084  0.6086  0.1917
 8117SOL    HW126025   9.388   4.921   3.179  0.3375  0.3021  0.0519
 8117SOL    HW226026   9.393   4.992   3.313  0.2315  0.8999 -0.2578
 8118SOL     OW26027   0.588   8.694   8.116 -0.0620  0.4999  0.0797
 8118SOL    HW126028   0.518   8.634   8.140 -0.8164  1.1578 -0.4300
 8118SOL    HW226029   0.545   8.761   8.062  1.6212 -1.3527 -3.9830
 8119SOL     OW26030   9.522   5.345   7.520 -0.3390 -0.1544  0.1369
 8119SOL    HW126031   9.478   5.398   7.586  0.8622  0.1686  0.7177
 8119SOL    HW226032   9.604   5.319   7.562 -0.0664 -0.8956 -0.8307
 8120SOL     OW26033   3.987   2.959   9.173 -0.0994  0.4478 -0.1542
 8120SOL    HW126034   4.050   2.909   9.227  0.5483  1.7675  0.3573
 8120SOL    HW226035   3.901   2.936   9.209  0.3397  1.6300  1.7999
 8121SOL     OW26036   1.093   3.298   5.956 -0.4460  0.3501  0.2065
 8121SOL    HW126037   1.047   3.351   5.891 -0.5900 -0.6899 -0.5564
 8121SOL    HW226038   1.091   3.209   5.921  1.8418  0.1974  0.3224
 8122SOL     OW26039   5.684   3.731   9.599 -0.4727 -0.2082  0.6422
 8122SOL    HW126040   5.616   3.735   9.531 -0.4489 -3.9070  0.1941
 8122SOL    HW226041   5.747   3.666   9.566  3.0186  2.5131  1.3586
 8123SOL     OW26042   1.565   0.455   5.695  0.0250 -0.0878 -0.5732
 8123SOL    HW126043   1.553   0.534   5.642 -1.4583  1.1206  1.3987
 8123SOL    HW226044   1.619   0.484   5.768 -0.9176 -0.7447  0.4167
 8124SOL     OW26045   6.784   4.145   7.527 -0.4510  1.0622 -0.1297
 8124SOL    HW126046   6.877   4.168   7.522 -0.2973  0.3550 -1.0409
 8124SOL    HW226047   6.743   4.197   7.457 -0.6724  1.0925  0.0236
 8125SOL     OW26048   4.713   0.623   5.997  0.0945 -0.4020 -0.4773
 8125SOL    HW126049   4.662   0.660   5.925 -2.9775 -2.6719  0.3291
 8125SOL    HW226050   4.774   0.563   5.954 -1.2710 -1.2586 -1.2984
 8126SOL     OW26051   7.518   2.575   0.278 -0.1139 -0.1820 -0.2259
 8126SOL    HW126052   7.560   2.504   0.230 -0.9757 -1.7891  1.2765
 8126SOL    HW226053   7.425   2.567   0.256 -0.0585  1.5767 -1.3384
 8127SOL     OW26054   9.633   9.564   8.146 -0.0433  0.6120 -0.2164
 8127SOL    HW126055   9.590   9.622   8.083  0.6338  0.7804 -0.5334
 8127SOL    HW226056   9.708   9.614   8.177 -0.6653  0.7532  1.1484
 8128SOL     OW26057   1.633   9.299   4.540 -0.7319 -0.5884  0.2860
 8128SOL    HW126058   1.709   9.354   4.522 -0.5690 -0.6936  0.6585
 8128SOL    HW226059   1.619   9.252   4.457 -1.7880  1.0785 -0.5458
 8129SOL     OW26060   4.483   4.791   7.807  0.2204  0.3285 -0.7243
 8129SOL    HW126061   4.496   4.729   7.878  0.6181  2.2346  0.9517
 8129SOL    HW226062   4.545   4.763   7.739  1.9056  0.0960  0.8403
 8130SOL     OW26063   1.529   3.552   5.837 -0.5151 -0.7973 -0.4714
 8130SOL    HW126064   1.496   3.638   5.865  0.8052 -0.5198  0.3005
 8130SOL    HW226065   1.474   3.489   5.884 -0.7517 -0.3555 -0.1432
 8131SOL     OW26066   4.541   4.559   7.284 -0.6874  0.2624  0.3583
 8131SOL    HW126067   4.618   4.531   7.234  1.0961  0.5580  2.7871
 8131SOL    HW226068   4.532   4.652   7.264 -0.1706  0.3146  0.3529
 8132SOL     OW26069   3.867   6.782   8.099 -0.9087  0.0559  0.1217
 8132SOL    HW126070   3.922   6.758   8.174  1.8062 -0.3378 -1.8395
 8132SOL    HW226071   3.888   6.874   8.082 -2.2959  0.4544  0.4213
 8133SOL     OW26072   6.752   4.041   5.833  0.3939  0.4478  0.6957
 8133SOL    HW126073   6.734   4.075   5.745  0.7114  1.3936  0.9772
 8133SOL    HW226074   6.738   3.947   5.826 -1.1541  0.6952  0.0271
 8134SOL     OW26075   8.792   7.499   2.978  0.4909 -0.3191 -0.0795
 8134SOL    HW126076   8.715   7.555   2.990  0.3928 -0.2686 -0.9014
 8134SOL    HW226077   8.760   7.410   2.994 -0.1807 -0.4953 -2.1662
 8135SOL     OW26078   8.994   5.758   6.940 -0.4358 -0.0643  0.5209
 8135SOL    HW126079   8.901   5.757   6.915 -0.7258  0.8808  1.4949
 8135SOL    HW226080   9.025   5.843   6.908  0.2356 -0.5837 -0.2405
 8136SOL     OW26081   0.848   9.357   3.851 -0.3520 -0.1329  0.5524
 8136SOL    HW126082   0.849   9.359   3.755 -1.6232 -0.3278  0.5208
 8136SOL    HW226083   0.901   9.432   3.877  0.7167 -0.5601 -0.2888
 8137SOL     OW26084   8.371   3.333   3.478  0.3259  0.8235 -0.1747
 8137SOL    HW126085   8.451   3.332   3.531  1.0555  1.3593 -1.2385
 8137SOL    HW226086   8.401   3.327   3.388 -0.8084  1.5287 -0.6238
 8138SOL     OW26087   0.370   8.696   1.525 -0.6708  0.5448 -0.2343
 8138SOL    HW126088   0.388   8.605   1.503 -0.8982  0.6756 -1.0103
 8138SOL    HW226089   0.355   8.696   1.619 -0.3873 -0.1737 -0.1859
 8139SOL     OW26090   4.165   1.576   6.799 -0.3955  0.2352 -0.4682
 8139SOL    HW126091   4.073   1.602   6.806 -0.6487  0.0736 -2.5731
 8139SOL    HW226092   4.181   1.526   6.879 -1.7195  1.4314  0.6064
 8140SOL     OW26093   6.020   8.222   9.255 -0.2405 -0.8274  0.2163
 8140SOL    HW126094   6.011   8.137   9.213 -1.1570  0.0411 -1.4107
 8140SOL    HW226095   6.106   8.219   9.298  1.1943 -1.4400 -2.5183
 8141SOL     OW26096   4.686   2.260   6.513 -0.4878  0.2936  0.1734
 8141SOL    HW126097   4.645   2.180   6.546  2.0244 -0.4785  1.7542
 8141SOL    HW226098   4.700   2.313   6.592  1.3010  0.5663 -0.2900
 8142SOL     OW26099   6.148   6.698   9.272 -0.2171 -0.8927  0.0482
 8142SOL    HW126100   6.180   6.778   9.231  0.0018 -0.7089  0.5756
 8142SOL    HW226101   6.216   6.633   9.254 -0.0541 -0.7765  0.2487
 8143SOL     OW26102   3.271   1.982   0.142  1.0877 -0.2651  0.5889
 8143SOL    HW126103   3.234   2.016   0.060  1.7846 -0.7859  0.0414
 8143SOL    HW226104   3.200   1.930   0.180  0.2586  1.1791  1.0784
 8144SOL     OW26105   1.533   4.766   0.088 -0.1198  0.2752 -0.0970
 8144SOL    HW126106   1.472   4.729   0.024  0.9253  1.4105 -1.8430
 8144SOL    HW226107   1.615   4.720   0.072 -0.3118 -0.9014  1.9071
 8145SOL     OW26108   2.226   9.657   4.791 -0.8223 -0.0163 -0.7989
 8145SOL    HW126109   2.191   9.652   4.880  0.7900  0.0252 -0.1235
 8145SOL    HW226110   2.250   9.749   4.780  1.7668 -0.5204 -0.0879
 8146SOL     OW26111   1.390   8.809   0.214 -0.5607  0.9302  0.1958
 8146SOL    HW126112   1.455   8.814   0.284 -0.7943 -0.8424  0.5794
 8146SOL    HW226113   1.306   8.816   0.259 -0.7075 -0.0756  0.1094
 8147SOL     OW26114   8.805   9.176   2.974 -0.1407  0.1331 -0.0364
 8147SOL    HW126115   8.785   9.092   3.013  0.1430 -0.1189 -0.4228
 8147SOL    HW226116   8.849   9.155   2.891  3.8878  0.5740  1.7454
 8148SOL     OW26117   1.151   2.930   1.360  0.1013  0.7879  0.4152
 8148SOL    HW126118   1.061   2.909   1.337  0.0711  0.8907  0.4354
 8148SOL    HW226119   1.150   3.025   1.373 -0.4300  0.4889  3.1622
 8149SOL     OW26120   1.796   9.233   6.246 -0.4322  0.2922  0.3133
 8149SOL    HW126121   1.827   9.279   6.168  1.3440  1.8908  1.8822
 8149SOL    HW226122   1.701   9.246   6.246 -0.4510  0.3870 -1.4553
 8150SOL     OW26123   5.596   3.540   9.144  0.3033  0.0582 -0.1704
 8150SOL    HW126124   5.611   3.445   9.152  1.5106  0.1420 -1.1218
 8150SOL    HW226125   5.629   3.561   9.057 -3.0979  0.7675 -1.4712
 8151SOL     OW26126   5.682   5.127   0.669 -0.3384 -0.1885  0.1316
 8151SOL    HW126127   5.658   5.131   0.577  0.2470  1.5185  0.0238
 8151SOL    HW226128   5.776   5.144   0.671 -0.2464 -0.7458  0.9986
 8152SOL     OW26129   8.325   7.834   5.207 -0.5351  0.0917 -0.3422
 8152SOL    HW126130   8.392   7.814   5.273 -2.3385  0.1708  1.6131
 8152SOL    HW226131   8.252   7.776   5.228 -1.8381  1.3605 -1.1680
 8153SOL     OW26132   9.520   4.578   0.758 -0.3469  0.2014 -0.4172
 8153SOL    HW126133   9.568   4.650   0.717  2.1511 -0.3945  1.2143
 8153SOL    HW226134   9.513   4.604   0.850 -1.8261 -0.4563 -0.3217
 8154SOL     OW26135   6.379   5.731   8.946  0.4443 -0.0825 -0.5514
 8154SOL    HW126136   6.458   5.777   8.916  1.6500  0.0031  2.4032
 8154SOL    HW226137   6.403   5.638   8.940  0.8772 -0.0526  0.4922
 8155SOL     OW26138   1.949   3.426   1.336  0.3729 -0.1908  0.0980
 8155SOL    HW126139   1.947   3.479   1.416  1.6184 -1.5110  1.0470
 8155SOL    HW226140   1.899   3.347   1.359 -0.8891  0.2246 -1.0780
 8156SOL     OW26141   0.844   2.962   4.663  0.0577 -0.7118 -0.0158
 8156SOL    HW126142   0.870   2.920   4.745  0.4014  1.4939  1.1064
 8156SOL    HW226143   0.758   2.927   4.644  0.1655 -1.6087  1.0557
 8157SOL     OW26144   4.217   7.254   3.230  0.1305  0.5719  0.1638
 8157SOL    HW126145   4.171   7.175   3.200 -1.9870  1.9181 -0.3460
 8157SOL    HW226146   4.147   7.317   3.247  1.6990  1.9774  1.7038
 8158SOL     OW26147   5.048   3.937   6.743 -0.6874 -0.6232  0.1076
 8158SOL    HW126148   5.093   4.004   6.692  0.7861 -0.2506  1.8014
 8158SOL    HW226149   5.045   3.973   6.832 -3.1826 -1.2307  0.3489
 8159SOL     OW26150   5.576   5.525   7.606 -0.0089  0.0227 -0.5262
 8159SOL    HW126151   5.592   5.613   7.571 -1.3777  0.7114  0.4891
 8159SOL    HW226152   5.536   5.477   7.534 -0.4791  0.6512 -0.6859
 8160SOL     OW26153   1.964   1.665   3.708  0.3648  0.1125  0.0773
 8160SOL    HW126154   1.909   1.650   3.784  1.4842 -1.0183  0.7039
 8160SOL    HW226155   2.027   1.731   3.737  2.3520 -2.0592  1.0442
 8161SOL     OW26156   5.677   6.157   2.707  0.1715 -0.2564  0.0034
 8161SOL    HW126157   5.603   6.097   2.716 -1.0526  1.3344  0.8664
 8161SOL    HW226158   5.749   6.111   2.751 -0.1451 -1.9901 -1.1665
 8162SOL     OW26159   4.526   2.573   9.507  0.0439  0.6400 -0.3937
 8162SOL    HW126160   4.594   2.528   9.558  0.7467  2.4837  0.4029
 8162SOL    HW226161   4.544   2.666   9.521 -1.8445  1.1842 -1.2756
 8163SOL     OW26162   8.138   3.307   9.010  0.3912 -0.3833  0.1383
 8163SOL    HW126163   8.090   3.272   9.086  0.6608 -0.6011  0.2105
 8163SOL    HW226164   8.228   3.278   9.024  0.4634 -0.3213 -0.2088
 8164SOL     OW26165   7.246   4.587   1.674  0.0514  0.4960  0.7826
 8164SOL    HW126166   7.279   4.669   1.638 -0.3300  0.3734  0.1436
 8164SOL    HW226167   7.189   4.614   1.746  0.3458  0.7677  0.9170
 8165SOL     OW26168   0.433   6.909   9.643  0.1155 -0.0404 -0.0750
 8165SOL    HW126169   0.389   6.865   9.570  0.0687  2.1801 -1.4489
 8165SOL    HW226170   0.361   6.938   9.700 -0.4538  3.5322 -2.2866
 8166SOL     OW26171   7.212   7.872   1.585 -0.0871  0.4804 -0.9281
 8166SOL    HW126172   7.165   7.801   1.541 -0.2987  0.4530 -0.6621
 8166SOL    HW226173   7.222   7.939   1.518 -3.6803  2.0435 -0.1695
 8167SOL     OW26174   0.024   4.705   1.734  0.3394  0.4219  0.3597
 8167SOL    HW126175  -0.029   4.704   1.655  2.3000  2.0834 -1.0666
 8167SOL    HW226176   0.013   4.793   1.769 -0.2998 -0.2135  1.8436
 8168SOL     OW26177   1.138   8.017   4.545 -0.0263  0.0329 -0.0464
 8168SOL    HW126178   1.152   8.104   4.582  1.5325  0.4993 -1.5785
 8168SOL    HW226179   1.208   7.963   4.582  1.4610  0.4717 -2.0498
 8169SOL     OW26180   4.492   3.708   6.938 -0.0757  0.6986  0.4821
 8169SOL    HW126181   4.520   3.750   6.857  2.5042 -0.3436  0.7380
 8169SOL    HW226182   4.419   3.651   6.912 -0.5046  1.7442 -0.7178
 8170SOL     OW26183   3.702   6.598   3.577 -0.4783 -0.3462  0.2691
 8170SOL    HW126184   3.757   6.656   3.630  1.0504 -1.6147  0.1505
 8170SOL    HW226185   3.693   6.518   3.630 -2.2194 -0.1922  0.2666
 8171SOL     OW26186   1.380   7.687   2.817  0.5051  0.3827  0.1207
 8171SOL    HW126187   1.362   7.594   2.802 -0.1942  0.5613 -0.1964
 8171SOL    HW226188   1.416   7.690   2.905  0.9893 -0.2453 -0.0472
 8172SOL     OW26189   5.760   3.790   3.322 -0.2072  0.3980  0.0424
 8172SOL    HW126190   5.786   3.882   3.309 -0.3681  0.2775 -1.2718
 8172SOL    HW226191   5.668   3.795   3.346 -0.1366  0.5872  0.2886
 8173SOL     OW26192   7.877   6.933   7.962 -0.0099 -0.2122  0.1763
 8173SOL    HW126193   7.972   6.935   7.948  0.0370  0.1498  0.5213
 8173SOL    HW226194   7.861   6.849   8.005 -0.3926 -2.2561 -3.5279
 8174SOL     OW26195   4.643   4.367   5.962  0.1515  0.1558 -0.3803
 8174SOL    HW126196   4.704   4.427   6.006  1.3634 -0.1449 -1.5721
 8174SOL    HW226197   4.566   4.364   6.019  1.4081  0.2376  1.4021
 8175SOL     OW26198   1.787   8.074   2.427  0.2550  0.7021  0.4346
 8175SOL    HW126199   1.829   8.034   2.503 -0.9134 -0.1812  0.6466
 8175SOL    HW226200   1.860   8.098   2.369  1.2063  2.0484  2.1160
 8176SOL     OW26201   3.097   7.178   0.176  0.2207  0.0340  0.7493
 8176SOL    HW126202   3.088   7.260   0.223 -0.4541  0.8679 -0.7452
 8176SOL    HW226203   3.137   7.118   0.238 -1.7264  0.7030  2.7849
 8177SOL     OW26204   6.584   8.881   2.497 -0.0565 -0.0106  0.0399
 8177SOL    HW126205   6.642   8.884   2.573  0.2852  1.3298 -0.2456
 8177SOL    HW226206   6.631   8.828   2.433  0.5689  0.5097  0.0528
 8178SOL     OW26207   8.786   9.397   2.743  0.3560 -0.1687  0.0156
 8178SOL    HW126208   8.779   9.350   2.826 -0.8339 -0.6264 -0.3262
 8178SOL    HW226209   8.872   9.370   2.708 -0.4335 -2.4499 -0.3396
 8179SOL     OW26210   1.443   3.040   1.943  0.1473  0.1381 -0.1856
 8179SOL    HW126211   1.443   2.946   1.960  2.7937  0.1336  0.1872
 8179SOL    HW226212   1.474   3.079   2.024 -1.6513  1.4428 -0.0717
 8180SOL     OW26213   1.463   0.362   6.766 -0.2742  0.7567  0.4351
 8180SOL    HW126214   1.485   0.273   6.738  0.6868  1.2738 -0.5540
 8180SOL    HW226215   1.464   0.413   6.685 -1.5225  1.5503  0.8943
 8181SOL     OW26216   9.397   5.810   2.013 -0.1726  0.5575 -0.2410
 8181SOL    HW126217   9.490   5.830   2.023 -0.5351  1.6210  1.4954
 8181SOL    HW226218   9.366   5.871   1.946  0.0942  1.2636  0.2621
 8182SOL     OW26219   7.335   3.774   4.296 -0.0810  0.3092  0.0045
 8182SOL    HW126220   7.283   3.693   4.302  0.9067 -0.3041  0.4071
 8182SOL    HW226221   7.426   3.745   4.303  0.3585  1.3325 -1.0756
 8183SOL     OW26222   9.397   2.634   5.972 -0.2581 -0.3491 -0.0856
 8183SOL    HW126223   9.485   2.670   5.982 -1.0508  1.9661 -0.9342
 8183SOL    HW226224   9.358   2.685   5.901 -3.4520  1.1125  2.4595
 8184SOL     OW26225   0.087   0.793   5.751  0.1993  0.2076 -0.3066
 8184SOL    HW126226   0.132   0.726   5.804  1.2758  0.2268 -1.1552
 8184SOL    HW226227   0.144   0.870   5.757  0.2030  0.2848 -1.2721
 8185SOL     OW26228   8.851   7.421   7.880  0.3395 -0.2559 -0.5299
 8185SOL    HW126229   8.879   7.369   7.955  0.8340  0.9899  0.1698
 8185SOL    HW226230   8.772   7.466   7.910 -0.6901 -1.3584 -1.4746
 8186SOL     OW26231   3.292   7.151   3.679  0.2189 -0.3289  0.0305
 8186SOL    HW126232   3.377   7.195   3.683  0.3324 -0.4905 -0.5510
 8186SOL    HW226233   3.301   7.076   3.738  0.7302 -0.7672 -0.5956
 8187SOL     OW26234   7.871   3.860   7.056  0.2748  1.2948  0.2900
 8187SOL    HW126235   7.815   3.854   6.978 -0.5042  1.7916  0.7859
 8187SOL    HW226236   7.950   3.812   7.033 -0.9418 -0.7158  0.0837
 8188SOL     OW26237   6.155   6.731   2.554  0.0355  0.0255 -0.4693
 8188SOL    HW126238   6.079   6.678   2.533  0.6744 -1.2513  0.3470
 8188SOL    HW226239   6.195   6.751   2.469  0.4647 -1.8484 -0.7456
 8189SOL     OW26240   3.060   9.024   3.534 -0.0273 -0.0411  0.4060
 8189SOL    HW126241   2.983   8.974   3.509 -0.8469  0.8626  1.0721
 8189SOL    HW226242   3.080   8.994   3.623 -0.5600  0.8244  0.8338
 8190SOL     OW26243   0.692   6.695   1.932 -0.7419  0.1888  0.8397
 8190SOL    HW126244   0.662   6.786   1.924  0.3577  0.4738 -0.3409
 8190SOL    HW226245   0.658   6.651   1.854 -1.0286 -0.3603  1.2658
 8191SOL     OW26246   8.216   9.525   3.999 -0.0833 -0.7235 -0.1443
 8191SOL    HW126247   8.278   9.554   4.067 -0.3150  1.7638 -0.8854
 8191SOL    HW226248   8.264   9.458   3.950  0.9836 -0.8248  0.9729
 8192SOL     OW26249   7.616   5.532   2.668  0.6222 -0.0061 -0.1658
 8192SOL    HW126250   7.619   5.596   2.739  0.7454  1.9853 -1.8777
 8192SOL    HW226251   7.690   5.555   2.611  0.1623 -1.1284 -1.2749
 8193SOL     OW26252   3.721   5.687   6.934 -0.0313  0.0288 -1.6671
 8193SOL    HW126253   3.677   5.745   6.996 -1.3343 -1.0392 -1.5425
 8193SOL    HW226254   3.799   5.735   6.907 -0.5544  1.4094 -0.8217
 8194SOL     OW26255   2.647   2.936   1.189  0.0244  0.1385 -0.1080
 8194SOL    HW126256   2.720   2.917   1.130 -0.3110  2.8846 -1.5670
 8194SOL    HW226257   2.577   2.877   1.160 -0.3842  1.8872 -3.1314
 8195SOL     OW26258   9.247   8.755   3.897  0.7881 -0.3384  0.2217
 8195SOL    HW126259   9.201   8.708   3.827 -0.5930 -0.1461  0.9602
 8195SOL    HW226260   9.266   8.841   3.859  0.8721 -0.5420 -0.2135
 8196SOL     OW26261   2.263   5.794   5.695 -0.0082  0.1987  0.1606
 8196SOL    HW126262   2.354   5.815   5.716  0.7395 -2.0826 -0.4396
 8196SOL    HW226263   2.246   5.713   5.742 -1.0387 -0.4864 -1.2984
 8197SOL     OW26264   7.804   6.632   7.160  0.0055 -0.2612 -0.3946
 8197SOL    HW126265   7.787   6.560   7.220 -3.3484  1.9391  1.6049
 8197SOL    HW226266   7.851   6.697   7.213 -2.3696  1.4170 -0.1772
 8198SOL     OW26267   8.168   2.041   5.415 -0.6299  0.2830 -0.1814
 8198SOL    HW126268   8.087   2.089   5.429 -0.4037  0.7907 -0.5799
 8198SOL    HW226269   8.145   1.950   5.433 -0.5367  0.7519  2.6638
 8199SOL     OW26270   6.274   7.850   6.089 -0.0971  0.4379  0.1902
 8199SOL    HW126271   6.324   7.790   6.033 -1.3476 -0.8593  0.4125
 8199SOL    HW226272   6.327   7.931   6.090 -0.4522  0.9202 -3.6279
 8200SOL     OW26273   6.178   4.599   7.433 -0.8181 -0.2932  0.1526
 8200SOL    HW126274   6.251   4.652   7.466  0.1129 -1.4690  0.0105
 8200SOL    HW226275   6.102   4.631   7.483 -0.5016  1.8674 -0.6403
 8201SOL     OW26276   4.614   8.940   0.808 -0.1540 -0.4355 -0.1572
 8201SOL    HW126277   4.586   8.957   0.718  1.8063 -0.3870 -0.8116
 8201SOL    HW226278   4.651   9.023   0.838  0.4724 -0.8183  0.1673
 8202SOL     OW26279   7.906   3.157   4.246  0.0771 -0.3483  0.0689
 8202SOL    HW126280   7.831   3.103   4.271 -0.5458  0.9071  1.0709
 8202SOL    HW226281   7.924   3.133   4.156 -0.5263 -1.8091  0.3091
 8203SOL     OW26282   2.039   4.641   8.852  0.0543 -0.0144  0.8314
 8203SOL    HW126283   2.064   4.595   8.772  0.1107 -0.7151  1.2423
 8203SOL    HW226284   1.966   4.697   8.826 -0.4374 -0.8179  0.4543
 8204SOL     OW26285   4.343   8.498   0.803  0.1838 -0.1083 -0.4269
 8204SOL    HW126286   4.394   8.575   0.780 -0.4406  0.3920 -0.1850
 8204SOL    HW226287   4.256   8.515   0.767 -0.3056 -0.1265  0.7049
 8205SOL     OW26288   5.983   5.438   6.982  0.4987  0.3433 -0.1553
 8205SOL    HW126289   5.971   5.495   6.905 -0.0041  1.5317  0.7748
 8205SOL    HW226290   6.038   5.489   7.041 -2.0441  1.0042  1.7942
 8206SOL     OW26291   1.500   3.899   0.448 -0.4540  0.2166  0.4310
 8206SOL    HW126292   1.563   3.970   0.462  1.4178 -0.5257 -3.1164
 8206SOL    HW226293   1.550   3.820   0.468 -0.5939 -0.3226 -1.2440
 8207SOL     OW26294   7.242   6.097   4.637  0.6148 -0.2873  0.1869
 8207SOL    HW126295   7.183   6.086   4.711 -0.5438  0.2103 -0.6277
 8207SOL    HW226296   7.184   6.098   4.560  1.6440  0.5528 -0.6131
 8208SOL     OW26297   4.204   9.224   0.129  0.1162  0.4302 -0.4971
 8208SOL    HW126298   4.159   9.229   0.045 -1.2633  0.8106  0.2396
 8208SOL    HW226299   4.135   9.234   0.194  0.6324 -3.1397  0.8182
 8209SOL     OW26300   7.988   2.240   0.651  0.1353  0.0494 -0.0249
 8209SOL    HW126301   7.987   2.335   0.662 -0.0923 -0.0235  0.5938
 8209SOL    HW226302   7.949   2.205   0.731  0.3158 -0.5727 -0.1967
 8210SOL     OW26303   6.140   4.357   7.705 -0.1481  1.5325 -0.4508
 8210SOL    HW126304   6.130   4.365   7.800 -0.2464  1.6493 -0.4715
 8210SOL    HW226305   6.234   4.360   7.691 -0.0621  0.3418 -0.2469
 8211SOL     OW26306   3.512   4.722   0.794  0.2768  0.1114 -0.0917
 8211SOL    HW126307   3.553   4.716   0.881 -0.9343  0.9190  0.5621
 8211SOL    HW226308   3.430   4.767   0.810 -0.4782 -0.7061 -1.5040
 8212SOL     OW26309   5.244   0.091   4.282 -0.1358  0.5652  0.2031
 8212SOL    HW126310   5.228   0.115   4.373 -1.4092 -2.4765  0.8783
 8212SOL    HW226311   5.325   0.041   4.284 -1.4074 -1.5880  0.1235
 8213SOL     OW26312   2.849   6.013   2.581  0.3055  0.2474  0.0609
 8213SOL    HW126313   2.816   6.065   2.654 -1.8718 -1.6746  0.5955
 8213SOL    HW226314   2.814   6.057   2.503  0.0016  0.5779  0.3797
 8214SOL     OW26315   7.838   9.074   6.921 -0.5981  0.3278 -0.0053
 8214SOL    HW126316   7.813   9.167   6.922  0.9299  0.7628  0.5142
 8214SOL    HW226317   7.899   9.066   6.848 -1.1605 -0.4008 -0.4010
 8215SOL     OW26318   6.831   3.762   4.576 -0.9454 -0.5678  0.4158
 8215SOL    HW126319   6.859   3.711   4.652 -0.1135 -2.2038 -0.9352
 8215SOL    HW226320   6.766   3.708   4.533 -1.7343  0.5463  0.1799
 8216SOL     OW26321   2.367   5.772   1.668  0.7578 -0.1159  0.1921
 8216SOL    HW126322   2.314   5.695   1.690  0.4632  0.2119  0.6403
 8216SOL    HW226323   2.409   5.748   1.585 -0.7767 -0.0502 -0.6564
 8217SOL     OW26324   7.736   0.780   7.415 -0.3882  0.2084 -0.3558
 8217SOL    HW126325   7.814   0.802   7.466 -0.0875  0.1015 -0.7587
 8217SOL    HW226326   7.702   0.865   7.386  0.2588  0.2106 -1.1589
 8218SOL     OW26327   5.063   6.601   9.139  0.2858 -0.2299 -0.2249
 8218SOL    HW126328   4.968   6.605   9.138  0.2085 -0.8554  1.4156
 8218SOL    HW226329   5.091   6.693   9.134 -0.4234  0.0028  0.0245
 8219SOL     OW26330   2.956   1.421   1.474  0.1564  0.5045  0.2274
 8219SOL    HW126331   2.872   1.465   1.471  0.2145  0.6707  0.8998
 8219SOL    HW226332   2.988   1.436   1.563  0.7542  0.1844  0.0727
 8220SOL     OW26333   3.950   7.827   6.103 -0.3204  0.3533  0.5487
 8220SOL    HW126334   3.877   7.874   6.064  0.1023  0.6930  0.1557
 8220SOL    HW226335   4.027   7.857   6.055 -0.0302 -0.6790  0.3414
 8221SOL     OW26336   9.034   0.991   2.902 -0.1635 -0.0383 -0.3424
 8221SOL    HW126337   9.039   0.907   2.948  3.7941 -0.4538 -1.1565
 8221SOL    HW226338   9.057   1.056   2.967 -1.7708  0.3053 -0.0766
 8222SOL     OW26339   2.674   8.963   7.861  0.2785  0.0107  0.1450
 8222SOL    HW126340   2.704   9.039   7.811 -0.0185  0.0172 -0.0261
 8222SOL    HW226341   2.673   8.891   7.797  0.8752 -0.2140  0.3830
 8223SOL     OW26342   1.651   3.484   8.411 -0.1615  0.4958 -0.0100
 8223SOL    HW126343   1.717   3.551   8.392 -0.7102  1.1428  0.3088
 8223SOL    HW226344   1.573   3.534   8.435 -1.0722 -0.2335 -1.3472
 8224SOL     OW26345   8.215   3.859   5.338  0.2178  0.1470 -0.2565
 8224SOL    HW126346   8.202   3.927   5.404 -0.0786 -0.3008  0.1524
 8224SOL    HW226347   8.178   3.896   5.258  0.9818  0.8748 -0.2862
 8225SOL     OW26348   9.549   7.647   5.972  0.2021  0.0706 -0.1016
 8225SOL    HW126349   9.470   7.650   5.919 -0.3119  2.0536  0.6902
 8225SOL    HW226350   9.517   7.651   6.062  1.0863 -2.4573  0.4059
 8226SOL     OW26351   8.245   7.652   6.958 -0.1762 -0.2738  0.0413
 8226SOL    HW126352   8.339   7.636   6.963 -0.2690 -0.5706  1.2313
 8226SOL    HW226353   8.209   7.573   6.917  0.1899  0.3227 -1.4966
 8227SOL     OW26354   6.713   7.937   1.431  0.3700 -0.0920 -0.8067
 8227SOL    HW126355   6.765   8.004   1.475  0.5601 -0.7546  0.0125
 8227SOL    HW226356   6.692   7.874   1.501 -1.8244  0.3189 -1.0275
 8228SOL     OW26357   1.787   3.809   6.035  0.2050  0.1923  0.0272
 8228SOL    HW126358   1.824   3.895   6.053  0.6189  0.4040 -1.6512
 8228SOL    HW226359   1.856   3.763   5.987 -0.1461 -0.9509  0.5985
 8229SOL     OW26360   5.602   2.656   1.285  0.3014 -0.0503 -0.4398
 8229SOL    HW126361   5.627   2.748   1.295  0.5675 -0.1675  0.0160
 8229SOL    HW226362   5.674   2.607   1.325 -0.1552 -0.4329 -0.0687
 8230SOL     OW26363   8.925   5.070   3.653 -0.2060  0.3022 -0.8407
 8230SOL    HW126364   8.874   5.067   3.572  0.8527 -0.8608 -1.4998
 8230SOL    HW226365   8.953   5.161   3.660  0.3030  0.2725 -2.1956
 8231SOL     OW26366   7.581   2.029   3.678 -0.1745 -0.4032 -0.0169
 8231SOL    HW126367   7.600   1.943   3.640 -1.2298  0.2147 -2.1175
 8231SOL    HW226368   7.663   2.055   3.720  0.5744 -1.8585 -0.4978
 8232SOL     OW26369   4.059   4.024   2.757  0.6166  0.6267  0.6154
 8232SOL    HW126370   4.008   4.104   2.741  1.0985  1.0229  1.0347
 8232SOL    HW226371   3.998   3.953   2.740  1.1380  0.9120 -3.6671
 8233SOL     OW26372   4.447   2.622   1.719 -0.2062  0.2004 -0.1176
 8233SOL    HW126373   4.419   2.541   1.762  0.6178 -0.4828 -0.8081
 8233SOL    HW226374   4.369   2.677   1.718 -0.6670 -0.4085  0.7674
 8234SOL     OW26375   5.020   3.308   1.726  0.6386 -0.4278  0.1070
 8234SOL    HW126376   5.009   3.242   1.794  1.2747  0.0421  0.6736
 8234SOL    HW226377   4.948   3.369   1.739  0.8229 -0.2770  0.4404
 8235SOL     OW26378   9.159   6.586   9.323 -0.4373  0.2262 -0.7680
 8235SOL    HW126379   9.081   6.590   9.267 -1.8653 -1.5246  0.9870
 8235SOL    HW226380   9.139   6.643   9.397  0.4765  0.7062 -0.8750
 8236SOL     OW26381   9.369   9.435   4.223 -0.2276 -0.3373 -0.4037
 8236SOL    HW126382   9.324   9.519   4.239 -1.4731 -1.1032  0.3011
 8236SOL    HW226383   9.343   9.412   4.134 -3.6171 -2.0626  0.8341
 8237SOL     OW26384   5.758   8.641   7.896 -0.5882 -0.0033  0.1161
 8237SOL    HW126385   5.739   8.679   7.811  1.0802  2.2191  0.6744
 8237SOL    HW226386   5.765   8.547   7.879 -3.5843 -0.0664 -1.5292
 8238SOL     OW26387   4.476   0.803   8.110  0.2224 -0.2967 -0.3099
 8238SOL    HW126388   4.419   0.798   8.187  1.0711 -0.5278  0.3180
 8238SOL    HW226389   4.541   0.870   8.131  0.1437  0.0276 -1.0517
 8239SOL     OW26390   1.985   2.320   1.666 -0.3898  0.0846  0.0920
 8239SOL    HW126391   1.953   2.407   1.689  1.7305  0.5709  1.4284
 8239SOL    HW226392   2.039   2.334   1.588  0.7956  0.1717  0.9095
 8240SOL     OW26393   8.119   6.187   9.674  0.2783 -0.4388 -0.0975
 8240SOL    HW126394   8.104   6.216   9.764 -1.1713  0.2345 -0.5306
 8240SOL    HW226395   8.176   6.254   9.636  0.7109 -0.6106  0.2365
 8241SOL     OW26396   1.124   9.569   5.680  0.4091 -0.5173  0.2861
 8241SOL    HW126397   1.084   9.657   5.679 -0.5743 -0.9321 -0.9989
 8241SOL    HW226398   1.209   9.582   5.639  0.0499 -0.2322 -0.4025
 8242SOL     OW26399   5.965   7.471   4.626 -0.0048 -0.2431 -0.1806
 8242SOL    HW126400   5.957   7.511   4.713 -0.4726 -2.1186  0.6811
 8242SOL    HW226401   6.006   7.539   4.573 -3.8956  2.7868  0.2450
 8243SOL     OW26402   3.895   0.441   6.702  0.4431 -0.0866  0.6535
 8243SOL    HW126403   3.851   0.382   6.763  2.4961 -1.0232  1.3231
 8243SOL    HW226404   3.845   0.523   6.707 -2.4777 -1.6870 -0.2939
 8244SOL     OW26405   7.878   3.247   2.495 -0.3510  0.0744 -0.2793
 8244SOL    HW126406   7.826   3.325   2.475 -1.5318 -0.9160 -1.2852
 8244SOL    HW226407   7.958   3.259   2.443  0.5274  1.6277  1.3079
 8245SOL     OW26408   8.609   0.988   5.747  0.2514 -0.1991 -0.4144
 8245SOL    HW126409   8.690   0.978   5.696  1.1024 -0.0388  0.8568
 8245SOL    HW226410   8.632   1.050   5.816 -1.1439  0.2920 -0.3789
 8246SOL     OW26411   0.475   0.105   6.101  0.2324  0.5078  0.2667
 8246SOL    HW126412   0.565   0.080   6.118  0.3776  0.3493 -0.6859
 8246SOL    HW226413   0.424   0.025   6.113  0.4911  0.0880 -1.1596
 8247SOL     OW26414   0.017   7.256   0.776 -0.4845 -0.7312  0.4642
 8247SOL    HW126415   0.088   7.212   0.823  0.2005  0.6847  0.7914
 8247SOL    HW226416  -0.044   7.282   0.845  0.8717  2.0020  0.7678
 8248SOL     OW26417   9.221   2.409   0.569  0.6742  0.3721 -0.0340
 8248SOL    HW126418   9.131   2.384   0.550 -0.0743  0.8826  2.4488
 8248SOL    HW226419   9.246   2.355   0.644  2.3136  0.5002 -0.4502
 8249SOL     OW26420   8.113   4.129   5.762  0.3049 -0.4006 -0.0434
 8249SOL    HW126421   8.151   4.216   5.744 -1.5289  0.7680  1.3581
 8249SOL    HW226422   8.167   4.093   5.831 -0.4043  0.7794  1.1729
 8250SOL     OW26423   2.935   5.743   3.082 -0.4472  0.4576 -0.0611
 8250SOL    HW126424   3.027   5.756   3.105 -0.7756  1.1052  0.9203
 8250SOL    HW226425   2.901   5.686   3.151  0.1242 -3.1039 -2.4462
 8251SOL     OW26426   2.655   1.988   1.355  0.4484  0.0476  1.0692
 8251SOL    HW126427   2.739   1.953   1.386  1.1055 -0.5283 -1.1940
 8251SOL    HW226428   2.678   2.071   1.314 -0.1945  0.2017  1.0177
 8252SOL     OW26429   3.362   4.152   8.143 -0.3305 -0.5244 -0.2155
 8252SOL    HW126430   3.414   4.158   8.062 -0.5064 -2.2308 -0.4846
 8252SOL    HW226431   3.271   4.156   8.113 -0.4933  3.0114  0.2994
 8253SOL     OW26432   7.661   8.666   6.852  0.1921  0.4039 -0.4375
 8253SOL    HW126433   7.682   8.574   6.837 -0.5403  0.3063 -0.9262
 8253SOL    HW226434   7.733   8.715   6.812 -0.7353  0.1027 -2.5957
 8254SOL     OW26435   3.760   5.314   8.057 -0.7494 -0.1085 -0.0636
 8254SOL    HW126436   3.680   5.357   8.088 -0.1801  2.2519 -1.6154
 8254SOL    HW226437   3.764   5.335   7.964  1.3387 -0.7423 -0.1660
 8255SOL     OW26438   4.495   9.010   0.575  0.1630 -0.9225 -0.1108
 8255SOL    HW126439   4.444   8.967   0.506  1.4426  0.5033 -2.0448
 8255SOL    HW226440   4.456   9.097   0.584  1.1315 -0.4497 -0.3611
 8256SOL     OW26441   1.033   0.821   7.392  0.0450  0.3266 -0.1256
 8256SOL    HW126442   1.031   0.736   7.436  0.4890 -1.0380 -2.5335
 8256SOL    HW226443   1.120   0.824   7.350 -0.0492  1.8814 -0.2590
 8257SOL     OW26444   1.983   5.161   7.102 -0.0581 -1.2686 -0.4735
 8257SOL    HW126445   1.976   5.088   7.164 -1.4822  0.4253  1.5095
 8257SOL    HW226446   2.039   5.225   7.145 -0.9250 -0.1231 -0.9744
 8258SOL     OW26447   1.575   3.821   5.551 -0.1477  0.1895 -0.6379
 8258SOL    HW126448   1.613   3.805   5.637 -0.3183  1.3728 -0.3185
 8258SOL    HW226449   1.637   3.784   5.489 -0.9635 -2.4810  0.0267
 8259SOL     OW26450   0.914   6.247   6.976  0.4680 -0.2607  0.3622
 8259SOL    HW126451   0.952   6.280   6.895  0.1676 -1.7717 -0.4254
 8259SOL    HW226452   0.873   6.164   6.951 -1.9500  0.5082  1.4961
 8260SOL     OW26453   8.962   1.314   5.107  0.1176  0.0030 -0.4876
 8260SOL    HW126454   8.994   1.337   5.019 -0.6793 -1.2333 -1.1241
 8260SOL    HW226455   9.018   1.365   5.166 -0.1873  1.9033 -1.7344
 8261SOL     OW26456   3.290   3.526   0.204 -0.1630  0.0059 -0.5184
 8261SOL    HW126457   3.239   3.468   0.260  0.4238 -0.2681 -0.2695
 8261SOL    HW226458   3.230   3.598   0.185 -1.0160 -0.8296 -1.1056
 8262SOL     OW26459   8.351   5.565   8.945  0.0794  0.0993 -0.2574
 8262SOL    HW126460   8.303   5.631   8.995  1.2082  1.0891 -0.4330
 8262SOL    HW226461   8.390   5.508   9.011 -1.4704 -0.8514 -0.1155
 8263SOL     OW26462   3.825   1.805   8.812  0.0142 -0.2639  0.3052
 8263SOL    HW126463   3.851   1.890   8.846 -1.1388  0.4173 -0.4332
 8263SOL    HW226464   3.868   1.799   8.727 -0.2399 -0.2283  0.1727
 8264SOL     OW26465   0.087   2.234   2.880 -0.1383  0.6813  0.8326
 8264SOL    HW126466   0.052   2.315   2.843  1.0355  0.9004  0.1662
 8264SOL    HW226467   0.182   2.242   2.871  0.0510 -0.2985  1.7573
 8265SOL     OW26468   4.776   0.798   6.382 -0.1501  0.2202 -0.5145
 8265SOL    HW126469   4.708   0.864   6.399 -0.7567 -0.8317  1.3747
 8265SOL    HW226470   4.790   0.803   6.287 -3.5721 -0.1438 -1.1840
 8266SOL     OW26471   3.497   6.925   2.043  0.1135  0.5065 -0.7942
 8266SOL    HW126472   3.573   6.982   2.055  0.1937  0.5090 -1.2828
 8266SOL    HW226473   3.522   6.868   1.970  0.6134 -1.1298  0.5774
 8267SOL     OW26474   3.986   7.560   2.906  0.0809  0.0175  0.1909
 8267SOL    HW126475   3.912   7.597   2.954 -0.7783 -1.1010 -0.2159
 8267SOL    HW226476   4.028   7.636   2.864 -2.3487  0.4857 -1.6258
 8268SOL     OW26477   4.584   8.399   3.423 -0.2778 -0.7486 -0.5337
 8268SOL    HW126478   4.666   8.413   3.377 -0.8460  0.1554 -1.2957
 8268SOL    HW226479   4.522   8.459   3.382 -0.4958  1.1350  2.2918
 8269SOL     OW26480   6.322   9.537   8.972 -0.0827  0.6995  0.4036
 8269SOL    HW126481   6.372   9.587   8.907  1.2896 -0.7274  0.3056
 8269SOL    HW226482   6.313   9.597   9.046  0.4640  1.5094 -0.1646
 8270SOL     OW26483   8.677   8.759   5.795  0.1653 -0.0321  0.2927
 8270SOL    HW126484   8.675   8.664   5.806  0.6260 -0.0497  0.2600
 8270SOL    HW226485   8.586   8.787   5.803  0.1416 -0.3691  1.3279
 8271SOL     OW26486   4.069   4.756   4.848  0.0998 -1.0155 -0.5084
 8271SOL    HW126487   4.150   4.715   4.819  1.5423  0.2023  1.5826
 8271SOL    HW226488   4.050   4.821   4.780  2.1772  0.2800  0.0748
 8272SOL     OW26489   1.722   0.297   5.494 -0.2255 -0.2367  0.7723
 8272SOL    HW126490   1.639   0.318   5.536 -0.4222  0.3429  0.1056
 8272SOL    HW226491   1.769   0.381   5.490 -0.2446 -0.2642 -0.2378
 8273SOL     OW26492   8.029   8.396   0.385 -0.7114  0.3527  0.0641
 8273SOL    HW126493   8.083   8.471   0.357 -1.0480  1.5660  2.4417
 8273SOL    HW226494   8.023   8.405   0.480 -0.8025 -2.7178  0.4342
 8274SOL     OW26495   2.747   4.390   9.062  0.3869  0.0195 -0.3859
 8274SOL    HW126496   2.724   4.344   9.142  2.0063 -2.0148 -0.9929
 8274SOL    HW226497   2.796   4.467   9.091 -0.2348  0.0512  0.6038
 8275SOL     OW26498   8.202   2.662   9.220  0.2663  0.4215  0.2537
 8275SOL    HW126499   8.208   2.598   9.149  2.0179  1.1257 -0.3054
 8275SOL    HW226500   8.290   2.664   9.257  0.5159  3.0317 -0.2548
 8276SOL     OW26501   4.969   7.933   1.414  0.3020 -0.2428 -0.1973
 8276SOL    HW126502   5.029   8.002   1.387  0.2845 -0.7047 -1.4738
 8276SOL    HW226503   4.911   7.921   1.339 -0.0282 -1.2685  0.2081
 8277SOL     OW26504   3.203   9.605   0.638 -0.1578 -0.6619  0.1375
 8277SOL    HW126505   3.258   9.528   0.625 -0.3382 -0.6949 -0.4450
 8277SOL    HW226506   3.177   9.632   0.550  0.0589  0.1803  0.3177
 8278SOL     OW26507   1.846   2.639   3.427 -0.2421 -0.3655 -0.2373
 8278SOL    HW126508   1.751   2.649   3.433 -0.2067 -0.1928  0.0980
 8278SOL    HW226509   1.865   2.647   3.334 -0.4767  0.4017 -0.2307
 8279SOL     OW26510   6.283   8.110   1.875 -0.5494 -0.0334 -0.1299
 8279SOL    HW126511   6.226   8.187   1.869 -1.4580 -0.3063  3.0223
 8279SOL    HW226512   6.332   8.110   1.793 -0.6457  3.7857 -0.3848
 8280SOL     OW26513   8.180   0.264   5.005 -0.4234  0.1011  0.1684
 8280SOL    HW126514   8.216   0.187   5.049  2.1775  0.9953 -0.2201
 8280SOL    HW226515   8.216   0.260   4.917 -1.8560  0.7621 -0.4812
 8281SOL     OW26516   8.268   0.962   4.939  0.6484 -0.5588  0.6143
 8281SOL    HW126517   8.341   1.017   4.968 -0.7232  0.4546  2.3870
 8281SOL    HW226518   8.309   0.879   4.915  2.4714  0.2691  0.6792
 8282SOL     OW26519   2.632   1.552   5.852 -0.6262  0.1656  0.2161
 8282SOL    HW126520   2.625   1.635   5.899 -0.3240 -0.3455  1.2011
 8282SOL    HW226521   2.542   1.530   5.828 -0.6568  0.9990 -0.4673
 8283SOL     OW26522   2.907   2.930   9.570 -0.2325  0.5360  0.4715
 8283SOL    HW126523   2.996   2.902   9.593 -0.2323  0.2254  0.0917
 8283SOL    HW226524   2.852   2.891   9.638 -0.2992 -0.8690 -0.3568
 8284SOL     OW26525   6.605   6.813   4.021  0.2997 -0.3329  0.0396
 8284SOL    HW126526   6.619   6.766   4.103 -2.6117  0.3066  1.0308
 8284SOL    HW226527   6.607   6.905   4.045 -0.3553 -0.1304 -0.6226
 8285SOL     OW26528   6.258   9.037   4.066  0.3211  0.0539  0.0727
 8285SOL    HW126529   6.330   8.974   4.065 -0.7152 -1.1718 -0.2839
 8285SOL    HW226530   6.229   9.039   4.157 -0.2811 -0.7681 -0.0881
 8286SOL     OW26531   4.956   2.599   8.953 -0.6183  0.0387 -0.2976
 8286SOL    HW126532   5.008   2.588   8.873 -2.0992 -0.4145 -1.2353
 8286SOL    HW226533   4.919   2.512   8.970  0.6666 -0.2008  1.6404
 8287SOL     OW26534   0.218   5.677   6.665 -0.1221  0.1091  0.3026
 8287SOL    HW126535   0.190   5.670   6.573 -0.6678  2.8706  0.1671
 8287SOL    HW226536   0.152   5.626   6.713  0.0158 -1.1588 -0.7730
 8288SOL     OW26537   5.370   7.227   1.517  0.1451 -0.1964  0.1411
 8288SOL    HW126538   5.429   7.155   1.498  0.2655  0.1936 -1.0454
 8288SOL    HW226539   5.419   7.306   1.495 -1.5692  0.0862 -3.4272
 8289SOL     OW26540   4.172   2.856   0.846  0.3205  0.5041  0.4844
 8289SOL    HW126541   4.220   2.809   0.778  0.3631  0.1275  0.7696
 8289SOL    HW226542   4.224   2.843   0.925 -0.7460 -0.7865  1.0251
 8290SOL     OW26543   5.521   5.815   1.937 -0.1054  0.0242  0.0130
 8290SOL    HW126544   5.579   5.832   1.862  1.4885 -0.7553  1.0061
 8290SOL    HW226545   5.510   5.900   1.979 -2.3864  0.8160 -1.9608
 8291SOL     OW26546   8.156   7.534   8.018 -0.2300 -0.7900  0.3136
 8291SOL    HW126547   8.145   7.623   7.985 -0.0870 -0.5409  0.9217
 8291SOL    HW226548   8.244   7.509   7.989 -0.9421 -1.4063 -1.3797
 8292SOL     OW26549   1.144   6.973   4.194  0.3623  0.2774 -0.2854
 8292SOL    HW126550   1.207   7.042   4.214  0.4127  0.1098  0.1379
 8292SOL    HW226551   1.059   7.011   4.213  0.4560 -0.1902  1.2167
 8293SOL     OW26552   5.968   3.276   1.312  0.6465 -0.0775  0.2358
 8293SOL    HW126553   5.896   3.339   1.324  1.9971  1.5949 -0.0336
 8293SOL    HW226554   5.989   3.282   1.218 -0.9338 -2.9751 -0.4176
 8294SOL     OW26555   8.652   0.618   4.283 -0.0803  0.4029 -0.5809
 8294SOL    HW126556   8.577   0.562   4.305  1.4441 -1.9167 -0.9665
 8294SOL    HW226557   8.668   0.600   4.191  2.5346 -1.2562  0.0937
 8295SOL     OW26558   2.794   2.473   7.133  0.0976  0.7052  0.1108
 8295SOL    HW126559   2.886   2.449   7.145  0.4711  2.1452  0.2734
 8295SOL    HW226560   2.795   2.534   7.058 -0.6624  1.0555  0.3804
 8296SOL     OW26561   0.202   5.000   6.276  0.1352  0.3803  0.0673
 8296SOL    HW126562   0.262   5.068   6.306 -1.0592  1.5896 -0.1695
 8296SOL    HW226563   0.115   5.033   6.299 -0.7060  0.4306 -2.8046
 8297SOL     OW26564   3.333   2.084   1.850  0.0994 -0.1292  0.1058
 8297SOL    HW126565   3.372   2.123   1.772 -2.7512  0.3379 -1.2434
 8297SOL    HW226566   3.327   1.991   1.830  1.9727 -0.4858  1.0401
 8298SOL     OW26567   9.405   6.102   1.204 -0.2106 -0.2663  0.4441
 8298SOL    HW126568   9.486   6.051   1.209 -0.0742 -0.0044  0.8959
 8298SOL    HW226569   9.336   6.039   1.225 -0.0818 -0.3741  0.5478
 8299SOL     OW26570   9.625   7.775   3.406  0.0593  0.2364  0.2301
 8299SOL    HW126571   9.552   7.752   3.463 -0.2996  1.2159  0.1831
 8299SOL    HW226572   9.702   7.741   3.452 -0.3957 -0.6310  0.3755
 8300SOL     OW26573   3.291   4.235   7.778 -0.4619  0.1910 -0.0329
 8300SOL    HW126574   3.235   4.238   7.855 -0.4428 -0.6186  0.0121
 8300SOL    HW226575   3.356   4.168   7.797 -0.4251  0.0155 -0.7257
 8301SOL     OW26576   1.632   4.182   5.513  0.5217 -0.2575  0.0817
 8301SOL    HW126577   1.644   4.223   5.598  0.7839 -0.7162  0.2696
 8301SOL    HW226578   1.700   4.115   5.509  1.4038  0.6382 -1.0376
 8302SOL     OW26579   8.876   5.777   8.718  0.4606 -0.5879 -0.2537
 8302SOL    HW126580   8.800   5.832   8.731  0.7063 -0.0729 -0.9607
 8302SOL    HW226581   8.951   5.833   8.739  0.6354 -1.2511  0.9773
 8303SOL     OW26582   5.059   3.257   2.523  0.0514  0.0166  0.4451
 8303SOL    HW126583   5.066   3.172   2.480  0.7468  0.0843  0.4222
 8303SOL    HW226584   5.146   3.274   2.559 -0.0816  0.7164  0.4585
 8304SOL     OW26585   5.552   1.714   0.966 -0.2038 -0.9123  0.3042
 8304SOL    HW126586   5.471   1.672   0.995 -0.6128  0.1826  0.7868
 8304SOL    HW226587   5.619   1.681   1.026 -0.6095 -0.4876  0.9909
 8305SOL     OW26588   1.028   7.975   8.201  0.1790 -0.3991 -0.3237
 8305SOL    HW126589   1.040   7.886   8.168  1.3415 -0.2500 -0.3319
 8305SOL    HW226590   1.033   7.966   8.296 -2.6109 -0.7451 -0.1166
 8306SOL     OW26591   6.567   8.061   3.207  0.4556 -0.3138 -0.1789
 8306SOL    HW126592   6.585   8.139   3.156  1.8657 -0.6409 -0.2177
 8306SOL    HW226593   6.609   7.990   3.159 -0.6658 -1.0875 -0.0622
 8307SOL     OW26594   0.205   6.269   6.726 -0.6584  0.3940  0.5061
 8307SOL    HW126595   0.279   6.328   6.709 -0.2758 -0.0216  0.7025
 8307SOL    HW226596   0.196   6.218   6.646 -1.2134  0.9539  0.2070
 8308SOL     OW26597   9.662   6.802   9.146  0.3868  0.4690 -0.9227
 8308SOL    HW126598   9.702   6.728   9.190 -1.7964 -1.1259 -1.4621
 8308SOL    HW226599   9.661   6.778   9.053 -1.5785  0.4727 -0.9599
 8309SOL     OW26600   4.014   2.000   7.331 -0.1893 -0.1297 -0.3451
 8309SOL    HW126601   3.985   1.968   7.245  0.0322 -1.8333  0.1714
 8309SOL    HW226602   3.934   2.035   7.372 -0.6817 -0.9729 -0.5545
 8310SOL     OW26603   7.115   9.661   2.510  0.4937 -0.3561  0.1455
 8310SOL    HW126604   7.137   9.577   2.470 -0.7052 -0.3964 -0.4905
 8310SOL    HW226605   7.056   9.639   2.581 -0.8808 -0.0022 -0.8370
 8311SOL     OW26606   8.451   5.780   7.681  0.2036  0.2274  0.2052
 8311SOL    HW126607   8.529   5.813   7.639 -0.0499  1.1832  0.4683
 8311SOL    HW226608   8.427   5.847   7.745  0.1707 -0.8498  1.3701
 8312SOL     OW26609   9.257   6.455   5.094  0.8354  0.4352  0.5345
 8312SOL    HW126610   9.203   6.459   5.015 -0.2168  0.8583  1.2381
 8312SOL    HW226611   9.270   6.546   5.120  0.9380  0.2982  0.9881
 8313SOL     OW26612   8.837   4.538   5.705 -0.4044 -0.3747  0.5789
 8313SOL    HW126613   8.925   4.503   5.716  0.6824  2.1093  0.4472
 8313SOL    HW226614   8.815   4.520   5.614  0.7644  0.5732  0.0771
 8314SOL     OW26615   3.971   7.532   6.111 -0.0204 -0.3231  0.5782
 8314SOL    HW126616   3.986   7.461   6.048 -2.2904 -1.2889  1.0548
 8314SOL    HW226617   3.915   7.594   6.064  1.3001  0.8150  0.4412
 8315SOL     OW26618   8.963   3.661   1.803 -0.0791 -0.6197  0.3501
 8315SOL    HW126619   8.960   3.756   1.816 -0.1266 -0.2809 -1.8430
 8315SOL    HW226620   8.897   3.627   1.865  0.6263  0.6398  1.8729
 8316SOL     OW26621   6.226   6.369   1.361  0.0744 -0.0411 -0.3862
 8316SOL    HW126622   6.155   6.308   1.382  0.9552 -0.5190  1.4722
 8316SOL    HW226623   6.277   6.324   1.294 -0.2733 -0.5707 -0.3030
 8317SOL     OW26624   1.901   7.261   0.555  0.2063 -0.3807 -0.1489
 8317SOL    HW126625   1.884   7.203   0.629 -2.9112 -0.1573 -0.5593
 8317SOL    HW226626   1.950   7.207   0.493 -1.6448 -2.2856 -0.0426
 8318SOL     OW26627   8.245   2.137   1.870  0.3274 -0.1356 -0.6263
 8318SOL    HW126628   8.196   2.074   1.818  1.3422  0.8274 -2.8830
 8318SOL    HW226629   8.225   2.221   1.830  1.8925  0.5414 -0.0351
 8319SOL     OW26630   9.374   7.472   5.669  0.2964  0.0916  0.5904
 8319SOL    HW126631   9.469   7.456   5.672  0.2096 -0.5829 -0.0184
 8319SOL    HW226632   9.364   7.562   5.701  1.2056  0.3916  0.0701
 8320SOL     OW26633   9.423   7.763   3.572 -0.2273  0.0252  0.2470
 8320SOL    HW126634   9.425   7.829   3.641 -0.8332 -0.6476  0.9335
 8320SOL    HW226635   9.460   7.685   3.613 -0.7515 -0.4299 -0.1309
 8321SOL     OW26636   7.676   1.246   2.326 -0.0332  0.3399 -0.1931
 8321SOL    HW126637   7.692   1.189   2.402 -0.7624 -0.0266 -0.3022
 8321SOL    HW226638   7.695   1.334   2.358 -0.0604  0.1583  0.3394
 8322SOL     OW26639   3.903   8.917   1.420  0.2694  0.3483  0.1736
 8322SOL    HW126640   3.971   8.976   1.387 -0.0026  0.0715 -0.9355
 8322SOL    HW226641   3.822   8.968   1.414  0.2105  0.2801  0.3812
 8323SOL     OW26642   8.463   7.720   2.851 -0.0429 -0.0857  0.4275
 8323SOL    HW126643   8.494   7.709   2.761  0.0597 -1.0892  0.5639
 8323SOL    HW226644   8.369   7.700   2.846 -0.3377  1.2577  0.3103
 8324SOL     OW26645   8.985   7.775   7.674  0.6784  0.7852  0.0591
 8324SOL    HW126646   9.032   7.696   7.702  0.3298  1.1607  1.8024
 8324SOL    HW226647   9.054   7.838   7.653  0.9671 -0.0861 -1.7711
 8325SOL     OW26648   6.414   3.637   0.640  0.2880  0.6018  0.2745
 8325SOL    HW126649   6.374   3.711   0.593 -1.3310  0.1444  0.8503
 8325SOL    HW226650   6.484   3.676   0.691 -0.9269  1.8885  1.0483
 8326SOL     OW26651   3.379   3.460   5.716 -0.7381 -0.4717  0.2048
 8326SOL    HW126652   3.394   3.552   5.693 -1.1952 -0.7380 -1.2651
 8326SOL    HW226653   3.321   3.464   5.792 -1.6242  0.4724 -0.4876
 8327SOL     OW26654   2.317   1.467   2.942  0.6641  0.5008  0.1625
 8327SOL    HW126655   2.396   1.423   2.909  1.0439  0.3068  1.2918
 8327SOL    HW226656   2.249   1.399   2.938  0.6993  0.4830 -0.2144
 8328SOL     OW26657   2.929   6.035   5.917  0.1254 -0.0232  0.5365
 8328SOL    HW126658   3.011   6.046   5.965  0.2451 -3.0518  1.2779
 8328SOL    HW226659   2.952   5.981   5.841 -1.1441 -1.1177  0.8763
 8329SOL     OW26660   1.272   5.607   2.439  0.1591 -0.6210  0.5564
 8329SOL    HW126661   1.272   5.688   2.489 -0.1979  0.8964 -1.7582
 8329SOL    HW226662   1.186   5.603   2.398  1.7071  0.5297 -3.2832
 8330SOL     OW26663   1.506   2.713   0.332  0.3155 -0.2846 -0.0844
 8330SOL    HW126664   1.539   2.625   0.349  0.0161 -0.4004 -0.0954
 8330SOL    HW226665   1.557   2.744   0.257 -0.5516 -0.9974 -1.0056
 8331SOL     OW26666   5.392   4.732   7.984  0.2368  0.2344 -0.1959
 8331SOL    HW126667   5.445   4.737   8.064 -0.4385 -0.6186  0.3232
 8331SOL    HW226668   5.421   4.651   7.942  0.2184  0.4113 -0.5517
 8332SOL     OW26669   9.133   3.755   4.337 -0.3548 -0.1713  0.1087
 8332SOL    HW126670   9.106   3.837   4.295 -0.3866 -0.4216 -0.3674
 8332SOL    HW226671   9.208   3.726   4.286 -0.1914 -0.3081  0.4336
 8333SOL     OW26672   0.431   5.132   5.639  0.3097 -0.6541 -0.2784
 8333SOL    HW126673   0.379   5.089   5.706 -0.8067  1.5177  0.3322
 8333SOL    HW226674   0.522   5.116   5.665 -0.0808  0.5889  2.1543
 8334SOL     OW26675   0.111   5.389   7.618 -0.1967 -0.0798 -0.2063
 8334SOL    HW126676   0.086   5.429   7.534 -0.0376  0.6338  0.0790
 8334SOL    HW226677   0.190   5.340   7.598 -0.2936 -0.1114 -0.5282
 8335SOL     OW26678   5.278   4.266   1.142  0.1632 -0.0489 -0.2556
 8335SOL    HW126679   5.234   4.206   1.203  2.9729 -1.0763  0.9048
 8335SOL    HW226680   5.211   4.331   1.120 -2.0845 -1.8261  0.8937
 8336SOL     OW26681   3.610   1.761   0.556  0.0863 -0.0663 -0.2319
 8336SOL    HW126682   3.639   1.714   0.477  0.2544 -0.2762 -0.0475
 8336SOL    HW226683   3.515   1.746   0.559 -0.0201  0.4811 -0.7429
 8337SOL     OW26684   0.126   5.118   0.135 -0.4441 -0.2482  0.0316
 8337SOL    HW126685   0.105   5.141   0.044 -1.9488 -0.4780  0.2983
 8337SOL    HW226686   0.222   5.114   0.137 -0.3098  1.3764 -1.1428
 8338SOL     OW26687   3.992   9.645   3.836  0.4491  0.5036  0.4401
 8338SOL    HW126688   4.029   9.692   3.910 -1.3930 -1.4278  2.7554
 8338SOL    HW226689   4.014   9.553   3.853 -0.0058  0.0017 -1.4395
 8339SOL     OW26690   2.320   6.470   2.999 -0.5185 -0.8203 -0.3441
 8339SOL    HW126691   2.406   6.430   3.013 -0.5789 -0.4020  1.5343
 8339SOL    HW226692   2.297   6.506   3.084 -2.6792 -1.1428 -0.7416
 8340SOL     OW26693   2.266   9.189   7.213 -0.0997  0.4479  0.0702
 8340SOL    HW126694   2.296   9.254   7.276 -0.0614  0.0655  0.4460
 8340SOL    HW226695   2.186   9.153   7.251  0.7731 -0.9092  0.6675
 8341SOL     OW26696   1.260   4.178   4.737 -0.0801 -0.2138 -0.1756
 8341SOL    HW126697   1.272   4.150   4.828 -0.6149 -0.2807 -0.1261
 8341SOL    HW226698   1.308   4.113   4.686  0.2709 -0.1446  0.0588
 8342SOL     OW26699   5.913   7.215   2.389  0.5622 -0.4113  0.2196
 8342SOL    HW126700   5.889   7.144   2.330 -2.1957 -3.1296  4.1137
 8342SOL    HW226701   5.997   7.189   2.426  2.1773  1.1806 -2.0557
 8343SOL     OW26702   6.926   2.398   9.391  0.3354 -0.1950 -0.5792
 8343SOL    HW126703   6.933   2.388   9.486 -1.4552 -3.8071 -0.6722
 8343SOL    HW226704   7.015   2.383   9.359  0.6632 -0.5290  0.4570
 8344SOL     OW26705   9.616   7.909   0.381  0.6115  0.1637 -0.0154
 8344SOL    HW126706   9.617   7.914   0.286  0.9843  0.7781  0.0160
 8344SOL    HW226707   9.523   7.904   0.404  0.4753  0.8813 -0.3751
 8345SOL     OW26708   1.313   1.541   9.592  0.2250  0.3739 -0.2188
 8345SOL    HW126709   1.374   1.538   9.519 -0.1916 -2.8248 -0.5885
 8345SOL    HW226710   1.240   1.595   9.561  1.8144  2.3955 -0.5843
 8346SOL     OW26711   2.327   8.454   7.936 -0.7013  0.1926 -0.3724
 8346SOL    HW126712   2.334   8.383   7.873  0.2614  0.5001 -0.6219
 8346SOL    HW226713   2.347   8.533   7.886  0.1495  0.4320  0.3315
 8347SOL     OW26714   3.146   6.318   1.127  0.0432 -0.0045  0.2429
 8347SOL    HW126715   3.237   6.347   1.131 -0.3602  1.2260  1.1133
 8347SOL    HW226716   3.126   6.315   1.034  0.3704  1.7797  0.0810
 8348SOL     OW26717   2.004   5.733   6.083 -0.0234 -0.1846  0.0122
 8348SOL    HW126718   1.909   5.744   6.086  0.0300  0.2729  0.2110
 8348SOL    HW226719   2.018   5.641   6.060 -0.5123 -0.4100  0.6159
 8349SOL     OW26720   4.239   0.378   1.428 -0.2241  0.4182 -0.2050
 8349SOL    HW126721   4.180   0.403   1.357  1.5827  0.7769 -1.6332
 8349SOL    HW226722   4.261   0.287   1.411  0.0019  0.4190  0.0695
 8350SOL     OW26723   3.589   0.806   1.004 -0.2432  0.7348 -0.1471
 8350SOL    HW126724   3.670   0.824   0.956  0.2683  1.3259  0.9104
 8350SOL    HW226725   3.594   0.712   1.023 -0.3244  0.5478 -0.9928
 8351SOL     OW26726   4.306   1.848   8.359 -0.4403  0.2003 -0.1630
 8351SOL    HW126727   4.261   1.923   8.320 -1.8567 -0.8364 -0.5786
 8351SOL    HW226728   4.396   1.855   8.327 -0.3809  2.0351  0.2852
 8352SOL     OW26729   7.641   3.109   2.471 -0.3713  0.2228 -0.0261
 8352SOL    HW126730   7.722   3.159   2.478 -0.4034  0.3848 -0.6870
 8352SOL    HW226731   7.613   3.123   2.381 -0.8275 -0.3061  0.0298
 8353SOL     OW26732   7.677   3.735   6.898 -0.2259  0.2574  0.3908
 8353SOL    HW126733   7.664   3.687   6.817  0.2411 -0.5639  0.7935
 8353SOL    HW226734   7.667   3.669   6.967  1.0522  0.5925  0.9267
 8354SOL     OW26735   8.664   6.800   4.462 -0.0542  0.4352  0.1762
 8354SOL    HW126736   8.709   6.755   4.533 -0.7280  1.5803  1.3709
 8354SOL    HW226737   8.606   6.733   4.424  3.1642 -1.3604 -2.0445
 8355SOL     OW26738   8.588   4.825   9.120 -0.0760 -0.0174 -0.0638
 8355SOL    HW126739   8.585   4.892   9.051 -0.6322  0.1787  0.1481
 8355SOL    HW226740   8.617   4.745   9.074  3.3915  0.9518  0.1789
 8356SOL     OW26741   7.821   8.109   3.898  0.1912 -0.4376 -0.0455
 8356SOL    HW126742   7.855   8.081   3.982 -0.2872 -0.2070  0.2293
 8356SOL    HW226743   7.893   8.095   3.837  0.5485 -0.5803  0.4041
 8357SOL     OW26744   5.400   5.346   1.818  0.1610  0.2810  0.7833
 8357SOL    HW126745   5.441   5.432   1.813 -0.6416  0.6092 -0.9003
 8357SOL    HW226746   5.362   5.343   1.906 -0.6680  2.0751  0.5400
 8358SOL     OW26747   7.850   2.551   9.201 -0.4366 -0.3269 -0.0047
 8358SOL    HW126748   7.918   2.499   9.158 -0.4921 -0.8001  0.4740
 8358SOL    HW226749   7.889   2.638   9.210 -0.4780 -0.1639 -1.1454
 8359SOL     OW26750   0.727   0.350   9.273 -0.0474  0.2342  0.1084
 8359SOL    HW126751   0.755   0.380   9.187 -0.6773  1.9517  0.4705
 8359SOL    HW226752   0.808   0.331   9.320  0.2955 -1.6049 -1.1125
 8360SOL     OW26753   5.010   3.853   5.090  0.7672 -0.3088  0.1402
 8360SOL    HW126754   5.038   3.789   5.155 -0.4809 -1.5592 -0.5007
 8360SOL    HW226755   5.039   3.817   5.006  0.2063  0.0574 -0.2193
 8361SOL     OW26756   6.421   9.048   9.294  0.8826  0.1041  0.0603
 8361SOL    HW126757   6.447   8.956   9.287  0.8851  0.0546  0.6160
 8361SOL    HW226758   6.367   9.065   9.217  0.9401 -0.3446 -0.0784
 8362SOL     OW26759   0.809   9.389   1.006 -0.0535 -0.5004  0.0509
 8362SOL    HW126760   0.814   9.482   0.983 -1.6700  0.2549  2.4105
 8362SOL    HW226761   0.819   9.343   0.922 -0.5585  1.8297 -1.3768
 8363SOL     OW26762   0.544   1.084   6.536  0.1273 -0.0501 -0.1253
 8363SOL    HW126763   0.460   1.038   6.535 -0.2998  0.7006  0.2107
 8363SOL    HW226764   0.609   1.016   6.554 -0.2096 -0.9270 -2.0007
 8364SOL     OW26765   6.506   1.699   4.379  0.5144  0.9551  0.3965
 8364SOL    HW126766   6.438   1.693   4.446 -0.0857 -4.2315 -0.2304
 8364SOL    HW226767   6.459   1.699   4.296  1.2899  1.3284 -0.0562
 8365SOL     OW26768   2.743   8.757   7.676  0.3125 -0.1616 -0.7240
 8365SOL    HW126769   2.689   8.711   7.611 -1.6531  1.6088 -0.4318
 8365SOL    HW226770   2.775   8.835   7.630  1.1219 -0.2521 -0.3341
 8366SOL     OW26771   7.000   2.202   6.201 -0.1443  0.4449  0.0095
 8366SOL    HW126772   7.064   2.153   6.150  1.1147  0.8546  1.1320
 8366SOL    HW226773   7.013   2.293   6.175 -0.7359  0.4611 -0.2380
 8367SOL     OW26774   6.169   6.923   7.211 -0.5076  0.0687  0.2751
 8367SOL    HW126775   6.078   6.941   7.188 -0.6025 -0.3947  0.2705
 8367SOL    HW226776   6.205   6.877   7.135 -0.3425  0.0340  0.3729
 8368SOL     OW26777   0.027   2.362   3.977  0.0500  0.7428  0.4931
 8368SOL    HW126778   0.016   2.296   4.046 -1.0063  1.0859  0.6682
 8368SOL    HW226779   0.065   2.437   4.023  1.3180  0.2582  0.2806
 8369SOL     OW26780   3.424   0.650   6.784  0.0150 -0.0609 -0.2451
 8369SOL    HW126781   3.418   0.576   6.844  0.4962 -0.9416 -1.2571
 8369SOL    HW226782   3.337   0.691   6.788 -0.5378 -1.1916 -0.3084
 8370SOL     OW26783   7.941   9.472   7.411 -0.3125 -0.1348  0.4424
 8370SOL    HW126784   7.889   9.463   7.331  0.5422 -0.9587 -0.0533
 8370SOL    HW226785   8.012   9.532   7.387  0.1476 -0.6564  0.4537
 8371SOL     OW26786   0.447   2.624   0.093  0.1969 -0.3589  0.8315
 8371SOL    HW126787   0.542   2.623   0.093  0.2022 -0.9768  0.0921
 8371SOL    HW226788   0.421   2.560   0.159  0.2770  0.3942  1.6145
 8372SOL     OW26789   0.413   0.102   7.457  0.4538 -0.3728  0.8305
 8372SOL    HW126790   0.343   0.091   7.393  0.5355 -2.9400  1.0620
 8372SOL    HW226791   0.368   0.135   7.535 -0.3268 -0.9074  0.6234
 8373SOL     OW26792   0.584   2.391   3.800 -0.2133  0.4591  0.0927
 8373SOL    HW126793   0.533   2.355   3.727  1.4756  0.7011 -1.2586
 8373SOL    HW226794   0.574   2.326   3.869 -0.0762 -0.8996 -1.1086
 8374SOL     OW26795   8.679   0.046   1.063 -0.3486  0.3544 -0.2719
 8374SOL    HW126796   8.595   0.005   1.086  0.4742 -1.1982  0.0895
 8374SOL    HW226797   8.716   0.074   1.147  0.5222 -1.0639 -0.1562
 8375SOL     OW26798   1.949   1.927   7.695  0.4955  0.4262  0.2221
 8375SOL    HW126799   1.993   1.848   7.726 -1.3723 -0.2252  1.4595
 8375SOL    HW226800   2.007   1.963   7.629  0.5149 -3.1486 -1.9905
 8376SOL     OW26801   4.969   6.403   6.567  0.1172 -0.0732 -1.0201
 8376SOL    HW126802   4.877   6.410   6.541 -0.5193  1.1347  1.2466
 8376SOL    HW226803   5.013   6.472   6.517 -0.6729  0.8495 -0.4907
 8377SOL     OW26804   0.810   4.234   0.020  0.4795  0.8091  0.3166
 8377SOL    HW126805   0.776   4.144   0.026 -0.5410  1.1258 -0.3987
 8377SOL    HW226806   0.770   4.279   0.094 -3.0912  1.8948 -2.0319
 8378SOL     OW26807   5.155   5.716   8.965  0.1468 -0.3907  0.2131
 8378SOL    HW126808   5.221   5.718   9.033  1.9879  0.5506 -1.4932
 8378SOL    HW226809   5.139   5.809   8.944 -0.6005 -0.6476 -0.4083
 8379SOL     OW26810   7.549   5.284   3.983  0.5018  0.1303 -0.1898
 8379SOL    HW126811   7.621   5.238   3.940 -0.4111 -0.5938 -1.0133
 8379SOL    HW226812   7.481   5.217   3.993 -0.5032  1.0716 -0.5324
 8380SOL     OW26813   3.016   7.392   2.854  0.0361 -0.1315 -0.2089
 8380SOL    HW126814   2.953   7.339   2.804 -0.4906 -0.3385  0.6563
 8380SOL    HW226815   3.085   7.413   2.791  0.5491 -2.3198 -0.4296
 8381SOL     OW26816   5.812   0.069   0.636 -0.0144  0.1595  0.0319
 8381SOL    HW126817   5.878   0.130   0.670 -0.9135  1.1179  0.1267
 8381SOL    HW226818   5.760   0.122   0.575 -0.6918 -0.5772 -0.0461
 8382SOL     OW26819   9.241   8.670   3.179  0.1941 -0.7692  0.1795
 8382SOL    HW126820   9.155   8.709   3.163  0.1848 -0.3978  1.0535
 8382SOL    HW226821   9.221   8.579   3.201  0.0510 -0.7679  0.0578
 8383SOL     OW26822   8.854   3.930   3.460 -0.2363 -0.1921  0.1227
 8383SOL    HW126823   8.848   3.856   3.520  2.5813 -0.5960  0.0854
 8383SOL    HW226824   8.947   3.932   3.435  0.1332  4.1357  1.1125
 8384SOL     OW26825   7.816   5.801   3.739  0.1085  0.0970  0.1435
 8384SOL    HW126826   7.848   5.890   3.727  1.1802 -0.1026  1.3020
 8384SOL    HW226827   7.844   5.754   3.660 -2.7659  1.3261 -1.7895
 8385SOL     OW26828   7.825   0.258   5.951 -0.2725 -0.1267  0.8249
 8385SOL    HW126829   7.858   0.304   6.028  0.0286  1.0101  0.0349
 8385SOL    HW226830   7.834   0.320   5.879 -4.2592  0.3869  0.5188
 8386SOL     OW26831   0.765   0.442   3.004 -0.5055  0.1830 -0.0118
 8386SOL    HW126832   0.843   0.393   3.030 -0.7444 -0.4487 -0.4594
 8386SOL    HW226833   0.751   0.504   3.076  1.2641  1.3450 -0.6236
 8387SOL     OW26834   5.741   2.220   8.424  0.7405 -0.1524  0.2353
 8387SOL    HW126835   5.829   2.182   8.414  0.6827  0.2202 -2.6983
 8387SOL    HW226836   5.734   2.281   8.351 -0.6849  2.5612  2.4683
 8388SOL     OW26837   9.006   5.295   8.102 -0.3656 -0.0473 -0.4679
 8388SOL    HW126838   9.015   5.385   8.133  0.5488 -0.4667  0.5186
 8388SOL    HW226839   9.072   5.286   8.033 -0.7905  0.1732 -0.9116
 8389SOL     OW26840   4.485   6.053   0.311  0.0410  0.4023  0.3897
 8389SOL    HW126841   4.453   6.082   0.397 -0.8056  0.4556  0.0664
 8389SOL    HW226842   4.536   6.127   0.278 -1.5072  1.2902 -0.1173
 8390SOL     OW26843   5.848   6.185   0.751 -0.0726 -0.4678  0.5058
 8390SOL    HW126844   5.897   6.229   0.682 -0.1373 -1.8717 -0.4751
 8390SOL    HW226845   5.834   6.096   0.718 -1.9929 -0.5464  1.3929
 8391SOL     OW26846   6.039   5.180   5.814  0.0217 -0.5842  0.1506
 8391SOL    HW126847   5.955   5.201   5.772  0.4950  0.7307 -0.1942
 8391SOL    HW226848   6.015   5.130   5.892 -1.1986  0.9603  0.8218
 8392SOL     OW26849   4.434   3.048   6.313 -0.5611  0.2271 -0.4136
 8392SOL    HW126850   4.419   3.056   6.408 -0.7891 -1.8219 -0.2385
 8392SOL    HW226851   4.517   3.093   6.299 -1.0223  1.4710  0.5620
 8393SOL     OW26852   1.170   8.071   7.379 -0.2423  0.0503  0.2864
 8393SOL    HW126853   1.181   8.150   7.432  1.7041  0.2085 -0.2995
 8393SOL    HW226854   1.162   8.000   7.442 -1.3021  0.6001  0.8055
 8394SOL     OW26855   9.462   7.963   7.790 -0.0642  0.2345 -0.1129
 8394SOL    HW126856   9.464   7.877   7.750  1.6131  0.4972 -0.6853
 8394SOL    HW226857   9.409   7.952   7.869  1.6090 -1.7809  0.8285
 8395SOL     OW26858   7.958   0.622   8.557 -0.3490  0.2793  0.1655
 8395SOL    HW126859   7.893   0.658   8.617 -0.0342  1.5408 -0.2319
 8395SOL    HW226860   7.954   0.679   8.480  0.0130 -0.6738 -0.5758
 8396SOL     OW26861   5.578   2.132   3.469 -0.1257 -0.3240  0.7084
 8396SOL    HW126862   5.634   2.197   3.512 -1.1435  1.2066 -0.1999
 8396SOL    HW226863   5.638   2.062   3.444  0.8541 -0.2096  2.5469
 8397SOL     OW26864   9.592   9.507   3.327  0.4341 -0.2110 -0.3971
 8397SOL    HW126865   9.623   9.586   3.371  0.9332 -1.3189  1.3588
 8397SOL    HW226866   9.534   9.539   3.258  0.5370  1.6665  0.3292
 8398SOL     OW26867   6.825   5.109   8.735 -0.3424 -0.1406 -0.2453
 8398SOL    HW126868   6.890   5.057   8.688 -0.0453  1.2946 -1.4727
 8398SOL    HW226869   6.741   5.085   8.695 -0.3152 -0.3235 -0.1955
 8399SOL     OW26870   1.835   9.238   0.440  0.4029  0.2483  0.8370
 8399SOL    HW126871   1.837   9.174   0.368 -0.1707 -2.2563  2.8936
 8399SOL    HW226872   1.772   9.304   0.411  1.8806  0.6024 -1.8929
 8400SOL     OW26873   2.261   0.400   3.307 -0.5871 -0.0249  0.2644
 8400SOL    HW126874   2.341   0.421   3.260  0.0363 -0.3448  1.1436
 8400SOL    HW226875   2.246   0.307   3.289 -1.0367  0.1565 -0.2981
 8401SOL     OW26876   2.318   0.359   4.490  0.3955  0.1040 -0.2809
 8401SOL    HW126877   2.359   0.303   4.423 -1.2929  0.0990 -1.3631
 8401SOL    HW226878   2.265   0.420   4.440  0.3387  1.1502  1.0168
 8402SOL     OW26879   5.366   7.168   8.495 -0.0887  0.1389 -0.7107
 8402SOL    HW126880   5.288   7.220   8.478  0.5705  0.8904 -1.5473
 8402SOL    HW226881   5.413   7.216   8.563  0.1580  0.2527 -0.9584
 8403SOL     OW26882   3.658   0.917   3.186  0.1741 -0.5316 -0.2247
 8403SOL    HW126883   3.610   0.859   3.127 -0.6658  0.2048 -0.2820
 8403SOL    HW226884   3.681   0.992   3.132 -0.0050 -0.1595  0.2095
 8404SOL     OW26885   1.942   0.494   9.177  0.4197  0.3728  0.4409
 8404SOL    HW126886   1.955   0.534   9.262 -1.4743  0.6801  0.6145
 8404SOL    HW226887   1.919   0.403   9.196  0.2279  0.3794  0.2407
 8405SOL     OW26888   1.541   5.890   9.483 -0.1307  0.0990 -0.1955
 8405SOL    HW126889   1.524   5.926   9.396  2.5240  0.2727 -0.7259
 8405SOL    HW226890   1.485   5.941   9.541 -0.1678  1.6417 -1.5147
 8406SOL     OW26891   1.812   0.332   5.954 -0.3396 -0.0956  0.0321
 8406SOL    HW126892   1.901   0.302   5.973  0.7953  2.4234 -0.9261
 8406SOL    HW226893   1.783   0.374   6.034  0.3516  1.2744 -0.4073
 8407SOL     OW26894   2.979   7.974   1.777 -0.0814 -0.2645 -0.4605
 8407SOL    HW126895   2.920   7.948   1.848 -0.6463  1.0064 -0.4284
 8407SOL    HW226896   3.048   8.023   1.821 -0.1510  0.0686 -0.7119
 8408SOL     OW26897   7.160   8.031   4.121 -0.7003 -0.1724  0.3380
 8408SOL    HW126898   7.245   8.000   4.089 -0.2801  0.7661  0.5092
 8408SOL    HW226899   7.171   8.038   4.216 -1.0054 -0.1481  0.3721
 8409SOL     OW26900   2.534   3.617   0.973 -0.3299 -0.2285  0.6222
 8409SOL    HW126901   2.549   3.693   0.916 -1.0778 -1.0702 -0.7564
 8409SOL    HW226902   2.611   3.614   1.030  1.2431 -0.2305 -1.3783
 8410SOL     OW26903   2.944   6.630   2.984 -0.1232 -0.1627  0.6244
 8410SOL    HW126904   3.022   6.638   2.928 -0.3641  2.6203  0.5798
 8410SOL    HW226905   2.976   6.582   3.061  0.7911 -1.9573 -0.7923
 8411SOL     OW26906   2.977   0.063   6.204  0.6537  0.1861 -0.2019
 8411SOL    HW126907   2.900   0.026   6.248 -0.8333  2.0469 -1.0816
 8411SOL    HW226908   2.952   0.065   6.111  0.9834  2.5426 -0.2855
 8412SOL     OW26909   8.629   0.023   7.390  0.3370 -0.0678 -0.4214
 8412SOL    HW126910   8.706   0.053   7.341  0.9121 -0.1756  0.3914
 8412SOL    HW226911   8.579   0.103   7.407  0.4591  0.0539 -0.6224
 8413SOL     OW26912   3.997   7.626   7.271 -0.0413  0.5471  0.6279
 8413SOL    HW126913   4.042   7.553   7.228  2.1032  0.7435  2.3626
 8413SOL    HW226914   3.907   7.594   7.283  0.1054 -0.6807 -1.1557
 8414SOL     OW26915   2.741   8.954   2.765 -0.2420 -0.7998  0.4334
 8414SOL    HW126916   2.757   8.990   2.678 -3.1034  1.2665  0.6257
 8414SOL    HW226917   2.651   8.922   2.762 -0.3382 -0.8737  2.5527
 8415SOL     OW26918   0.509   5.656   9.213 -0.4966 -0.4243 -0.0481
 8415SOL    HW126919   0.434   5.599   9.226 -1.2972  0.4757 -0.6225
 8415SOL    HW226920   0.515   5.666   9.118 -0.8973  1.1100  0.0655
 8416SOL     OW26921   8.112   3.219   0.744  0.5554  0.0256 -0.3187
 8416SOL    HW126922   8.202   3.226   0.713  0.0852 -0.9608 -2.0533
 8416SOL    HW226923   8.118   3.234   0.838  2.6703 -1.0143 -0.2273
 8417SOL     OW26924   3.895   2.827   7.691  0.1396 -0.2843 -0.4270
 8417SOL    HW126925   3.832   2.820   7.619  0.3106 -0.1840 -0.5875
 8417SOL    HW226926   3.843   2.813   7.770 -0.7053  2.8803 -0.2999
 8418SOL     OW26927   4.886   2.450   6.829 -0.3061 -0.3067 -0.4462
 8418SOL    HW126928   4.824   2.522   6.821  0.7165  0.4845 -1.5543
 8418SOL    HW226929   4.893   2.434   6.923 -0.5807  1.0134 -0.1866
 8419SOL     OW26930   6.150   6.072   2.732 -0.7406  0.3203  0.3761
 8419SOL    HW126931   6.128   5.991   2.777 -1.1312 -1.1161 -2.2081
 8419SOL    HW226932   6.232   6.054   2.686 -2.2024  0.3221 -2.4698
 8420SOL     OW26933   5.463   6.312   9.578  0.0219  0.6784  0.4022
 8420SOL    HW126934   5.409   6.386   9.605 -0.3372  0.6368 -0.1927
 8420SOL    HW226935   5.497   6.276   9.661 -3.0271 -0.9638  1.1147
 8421SOL     OW26936   4.270   8.080   2.129  0.4996  0.0678 -0.2131
 8421SOL    HW126937   4.351   8.037   2.159  0.9993  0.2703 -1.2243
 8421SOL    HW226938   4.201   8.016   2.147  1.0410 -0.5912 -0.4256
 8422SOL     OW26939   9.252   7.045   2.675  0.4938  0.8517 -0.0640
 8422SOL    HW126940   9.203   7.120   2.642  1.7281  0.9933 -1.6844
 8422SOL    HW226941   9.287   7.003   2.597 -0.4731 -1.6865  0.7555
 8423SOL     OW26942   7.671   6.297   9.643 -0.5180 -0.6274 -0.5050
 8423SOL    HW126943   7.677   6.392   9.640 -1.5842 -0.5545 -0.5866
 8423SOL    HW226944   7.726   6.272   9.717  1.0837 -0.0917 -1.4605
 8424SOL     OW26945   1.114   6.239   4.217  0.0294 -0.2930  0.7310
 8424SOL    HW126946   1.170   6.171   4.254 -0.1413  0.6365  2.8621
 8424SOL    HW226947   1.091   6.294   4.292 -1.7028  0.7910 -0.5199
 8425SOL     OW26948   6.192   0.690   8.936  0.6223  0.2068  0.1366
 8425SOL    HW126949   6.246   0.736   8.872 -1.1550 -1.6663 -2.9687
 8425SOL    HW226950   6.165   0.758   8.998  1.3331  2.4636 -1.8957
 8426SOL     OW26951   2.678   9.540   5.341 -0.0790  0.4315 -0.4370
 8426SOL    HW126952   2.744   9.483   5.299  0.2526  0.2655  0.2977
 8426SOL    HW226953   2.616   9.559   5.271  0.4083  0.0686 -0.9835
 8427SOL     OW26954   7.099   5.998   5.794  0.1436 -0.2703 -0.0027
 8427SOL    HW126955   7.080   6.082   5.836 -0.8384 -1.4216  1.9667
 8427SOL    HW226956   7.167   6.019   5.730  0.4573  1.8934  0.9360
 8428SOL     OW26957   4.674   1.436   5.581 -0.3974 -0.3263  0.5557
 8428SOL    HW126958   4.660   1.520   5.538 -1.7327  1.3840  3.9321
 8428SOL    HW226959   4.753   1.450   5.634 -0.4764 -1.3075  0.9394
 8429SOL     OW26960   5.538   8.208   4.908 -0.0421  0.2118 -0.1718
 8429SOL    HW126961   5.600   8.275   4.938  0.6105 -0.5471  0.2222
 8429SOL    HW226962   5.468   8.209   4.972 -0.0177  0.4978 -0.1493
 8430SOL     OW26963   2.866   1.770   0.944 -0.1160  0.3793 -0.5709
 8430SOL    HW126964   2.864   1.675   0.927 -1.0721  0.3432 -0.2985
 8430SOL    HW226965   2.774   1.796   0.946 -0.0481  0.7407  2.4732
 8431SOL     OW26966   4.674   4.070   9.427 -0.3638 -0.2137  0.6548
 8431SOL    HW126967   4.713   4.128   9.492 -2.3339  0.2631  1.4901
 8431SOL    HW226968   4.733   4.075   9.352  1.6095 -0.2553  2.1280
 8432SOL     OW26969   5.697   0.892   0.211 -0.3458  0.2338 -0.4555
 8432SOL    HW126970   5.763   0.825   0.196  0.4891  0.8292  0.4661
 8432SOL    HW226971   5.646   0.860   0.285 -2.2179 -1.0217 -2.1637
 8433SOL     OW26972   5.146   2.105   5.986 -0.0136 -0.2163  0.3712
 8433SOL    HW126973   5.116   2.017   5.962 -1.4622 -0.0884  1.5870
 8433SOL    HW226974   5.109   2.161   5.918 -2.6177 -0.0763  1.7740
 8434SOL     OW26975   2.926   2.379   1.750 -0.5406  0.3199 -0.1798
 8434SOL    HW126976   2.921   2.360   1.844 -0.9625 -0.1782 -0.3007
 8434SOL    HW226977   3.004   2.434   1.741 -0.2165 -0.0334  0.3938
 8435SOL     OW26978   1.548   8.725   0.738  0.3583  0.1466  0.1881
 8435SOL    HW126979   1.603   8.803   0.739  0.0885  0.3344  0.7181
 8435SOL    HW226980   1.543   8.701   0.646 -0.4065  1.3766 -0.1173
 8436SOL     OW26981   5.435   4.888   5.193 -0.1251 -0.4176 -0.0749
 8436SOL    HW126982   5.487   4.813   5.223  2.5567  0.6276 -1.7500
 8436SOL    HW226983   5.494   4.963   5.200 -2.4874  1.5126  0.8918
 8437SOL     OW26984   5.285   3.672   4.521 -0.0853  0.0453  0.4926
 8437SOL    HW126985   5.294   3.695   4.428 -0.7382  1.8789  0.8423
 8437SOL    HW226986   5.256   3.581   4.520  0.8598 -0.2764 -1.0711
 8438SOL     OW26987   6.550   6.115   7.283  0.1844  0.7464  0.2730
 8438SOL    HW126988   6.550   6.026   7.319  1.1330  0.5832 -0.0854
 8438SOL    HW226989   6.562   6.172   7.359  0.2369  0.5264  0.4320
 8439SOL     OW26990   5.469   4.547   1.575  0.2306 -0.1474 -0.9658
 8439SOL    HW126991   5.477   4.600   1.655 -1.7148  0.1443 -0.9183
 8439SOL    HW226992   5.428   4.466   1.604  0.2914 -0.3902 -1.5549
 8440SOL     OW26993   2.574   4.313   5.919  0.1784 -0.1418  0.2940
 8440SOL    HW126994   2.572   4.288   6.012 -0.1495  0.3511  0.4279
 8440SOL    HW226995   2.656   4.362   5.909  0.5028 -0.7039  0.1834
 8441SOL     OW26996   0.479   4.201   9.162  0.1253 -0.1417  0.2316
 8441SOL    HW126997   0.408   4.188   9.100  0.1782  1.4327 -0.2052
 8441SOL    HW226998   0.530   4.273   9.125  1.4751 -0.6933  0.9566
 8442SOL     OW26999   1.582   7.361   4.808  0.2436 -0.5348  0.8346
 8442SOL    HW127000   1.609   7.354   4.900 -0.0145 -2.4530  0.7931
 8442SOL    HW227001   1.663   7.378   4.761  0.4209  0.1646  1.3573
 8443SOL     OW27002   1.578   2.527   6.028 -0.0345 -0.3950  0.3206
 8443SOL    HW127003   1.515   2.586   5.987  0.5330  0.1084  0.1634
 8443SOL    HW227004   1.646   2.584   6.062 -0.1935 -0.8548  1.4534
 8444SOL     OW27005   9.393   0.040   7.180 -0.3864 -0.4331 -0.0504
 8444SOL    HW127006   9.386   0.112   7.117  1.6356  0.3789  0.5565
 8444SOL    HW227007   9.418  -0.036   7.127 -2.3178 -0.7008 -0.6636
 8445SOL     OW27008   8.716   7.258   6.709 -0.1005  0.0813  0.0892
 8445SOL    HW127009   8.699   7.264   6.615 -2.4748  0.8400  0.5092
 8445SOL    HW227010   8.730   7.165   6.725  2.4529  0.1238 -1.2756
 8446SOL     OW27011   1.329   7.608   6.175 -0.1497  0.5334  0.1761
 8446SOL    HW127012   1.342   7.583   6.083 -0.1821 -0.1626  0.3524
 8446SOL    HW227013   1.233   7.607   6.186 -0.1092 -1.7694  0.8256
 8447SOL     OW27014   1.848   3.770   8.255  0.5735  0.1247 -0.2893
 8447SOL    HW127015   1.764   3.738   8.222  0.3690  0.8102 -0.4426
 8447SOL    HW227016   1.911   3.703   8.227  0.1519 -0.1609 -0.5757
 8448SOL     OW27017   7.288   4.137   3.081  0.5535 -0.3690  0.3177
 8448SOL    HW127018   7.296   4.207   3.017  0.6342  0.4513  1.2087
 8448SOL    HW227019   7.223   4.168   3.144  0.9577 -0.8668  1.0028
 8449SOL     OW27020   3.293   9.274   9.301 -0.4190 -0.1621  1.1942
 8449SOL    HW127021   3.222   9.320   9.255 -0.8308 -2.6095 -0.8806
 8449SOL    HW227022   3.283   9.300   9.392 -2.3002  1.6607  0.5642
 8450SOL     OW27023   8.434   3.679   3.386  0.0415 -0.0280  0.4477
 8450SOL    HW127024   8.437   3.609   3.322 -1.1480  0.2955  0.0164
 8450SOL    HW227025   8.477   3.753   3.344 -0.0304 -0.0553  0.3272
 8451SOL     OW27026   4.334   6.497   4.868 -0.2833 -0.1675 -0.1737
 8451SOL    HW127027   4.248   6.537   4.878 -0.3773 -0.4614  0.2283
 8451SOL    HW227028   4.315   6.409   4.835 -0.3176 -1.1090  2.1344
 8452SOL     OW27029   5.672   3.636   5.685  0.0385 -0.2406 -0.2030
 8452SOL    HW127030   5.678   3.544   5.660 -0.5624 -0.1637 -0.6638
 8452SOL    HW227031   5.745   3.679   5.640 -0.3960 -0.2899 -0.9697
 8453SOL     OW27032   3.496   2.781   8.057 -0.4721 -0.1894 -0.0941
 8453SOL    HW127033   3.429   2.712   8.055 -0.1027 -0.6168  1.2249
 8453SOL    HW227034   3.449   2.858   8.088 -0.2871 -0.5923  1.2300
 8454SOL     OW27035   9.528   6.214   8.459 -0.3937  0.0390 -0.0978
 8454SOL    HW127036   9.551   6.135   8.409  0.9122  0.3911 -0.0779
 8454SOL    HW227037   9.546   6.190   8.550 -2.6371 -0.5531  0.2577
 8455SOL     OW27038   7.065   7.875   6.505 -0.3689  0.2232 -0.4900
 8455SOL    HW127039   6.983   7.825   6.503  1.0120 -2.2983  0.3709
 8455SOL    HW227040   7.062   7.922   6.588 -2.6117  3.5213 -2.2127
 8456SOL     OW27041   2.180   4.021   3.354 -0.2495 -0.1772 -0.4896
 8456SOL    HW127042   2.253   4.080   3.337  0.7348 -1.0093  0.6321
 8456SOL    HW227043   2.102   4.069   3.325  0.6284  1.1681 -0.7039
 8457SOL     OW27044   4.742   8.213   0.334  0.2399 -0.2773 -0.0415
 8457SOL    HW127045   4.687   8.196   0.258  0.5147  0.2884 -0.3792
 8457SOL    HW227046   4.687   8.192   0.409 -1.7968  3.5925 -0.1743
 8458SOL     OW27047   9.062   2.900   7.843  0.4983 -0.0720 -0.2653
 8458SOL    HW127048   9.053   2.948   7.926  2.6677 -0.5747  0.3042
 8458SOL    HW227049   9.115   2.824   7.865 -1.3403 -1.8282 -1.5431
 8459SOL     OW27050   6.930   0.976   7.608  0.1807 -0.4645 -0.2088
 8459SOL    HW127051   6.980   0.894   7.605  1.1356 -0.0141  1.5786
 8459SOL    HW227052   6.924   1.004   7.517  2.2185 -1.1472 -0.6137
 8460SOL     OW27053   5.854   7.522   7.951 -0.0005  0.0350 -0.4635
 8460SOL    HW127054   5.842   7.435   7.990  0.3943  0.2498  0.1512
 8460SOL    HW227055   5.914   7.567   8.010  0.0894  0.6029 -0.9749
 8461SOL     OW27056   4.305   5.455   8.513 -0.3498 -0.5459  0.5224
 8461SOL    HW127057   4.318   5.446   8.418 -1.4580 -0.8626  0.3848
 8461SOL    HW227058   4.219   5.497   8.521 -0.3339 -0.6741  1.3910
 8462SOL     OW27059   3.756   0.159   1.662  0.3061 -0.0049 -0.2016
 8462SOL    HW127060   3.713   0.085   1.705  0.5860 -1.1006 -1.7096
 8462SOL    HW227061   3.848   0.133   1.656  0.8502  1.4361  1.1735
 8463SOL     OW27062   2.898   4.299   6.601 -0.0850 -0.0958  0.7735
 8463SOL    HW127063   2.810   4.267   6.619 -0.4032 -0.2748 -0.8961
 8463SOL    HW227064   2.891   4.338   6.514  1.2910  0.6774  0.9873
 8464SOL     OW27065   3.914   6.072   2.766  0.5446  0.3107  0.6824
 8464SOL    HW127066   3.924   6.166   2.750 -1.4101  0.7380  1.6690
 8464SOL    HW227067   3.904   6.065   2.861 -1.2777 -0.6512  0.4589
 8465SOL     OW27068   0.330   3.194   4.131  0.3231  0.2070 -0.3223
 8465SOL    HW127069   0.398   3.128   4.137  0.5428  0.2092 -2.2317
 8465SOL    HW227070   0.261   3.153   4.079 -0.8947  0.4340  1.0303
 8466SOL     OW27071   5.356   8.523   9.099 -0.1301 -0.0550 -0.2276
 8466SOL    HW127072   5.370   8.611   9.133 -1.1979 -0.1081  0.4033
 8466SOL    HW227073   5.284   8.488   9.153 -1.9329 -0.1518 -2.5297
 8467SOL     OW27074   9.010   3.646   4.601  0.1741 -0.0549  0.1546
 8467SOL    HW127075   8.946   3.596   4.550  0.8807 -0.6173 -0.2057
 8467SOL    HW227076   9.054   3.702   4.537  1.6859 -1.4057 -0.0603
 8468SOL     OW27077   9.553   7.798   2.116 -0.2394  0.3514  0.0305
 8468SOL    HW127078   9.532   7.823   2.206  2.5604 -0.8218  1.1322
 8468SOL    HW227079   9.482   7.741   2.089 -1.1889  0.8245  1.4370
 8469SOL     OW27080   5.981   2.669   5.925  0.5358 -0.6278 -0.0019
 8469SOL    HW127081   6.021   2.728   5.990 -0.1352  0.0252 -0.1664
 8469SOL    HW227082   6.030   2.686   5.844 -0.5646  0.7751 -0.4126
 8470SOL     OW27083   3.935   3.863   6.609  0.2664 -0.1576  0.3506
 8470SOL    HW127084   3.938   3.958   6.597  0.4202 -0.3244 -1.0362
 8470SOL    HW227085   3.975   3.849   6.695  3.1412  0.7946 -0.7210
 8471SOL     OW27086   8.442   6.444   8.248  0.7052 -0.4629 -0.2470
 8471SOL    HW127087   8.408   6.366   8.204  1.2805 -1.6823  1.3259
 8471SOL    HW227088   8.501   6.484   8.185 -2.6797  1.1742 -2.6877
 8472SOL     OW27089   0.597   0.938   3.366  0.5226 -0.0396  0.7450
 8472SOL    HW127090   0.581   1.022   3.323  0.1188 -0.7578 -0.5290
 8472SOL    HW227091   0.521   0.925   3.422 -0.6383 -0.6968 -0.9194
 8473SOL     OW27092   0.660   8.463   5.662 -0.0019  0.1212 -0.2122
 8473SOL    HW127093   0.713   8.535   5.628  0.7021 -1.0669 -1.8082
 8473SOL    HW227094   0.720   8.414   5.718 -0.0531  0.0030 -0.2605
 8474SOL     OW27095   4.754   0.336   3.091  0.1286  0.3737  0.2120
 8474SOL    HW127096   4.733   0.318   3.182 -0.8623  0.3223 -0.0153
 8474SOL    HW227097   4.753   0.250   3.048  0.5886  0.3974  0.1457
 8475SOL     OW27098   0.999   4.329   4.462 -0.4429  0.2222 -0.4851
 8475SOL    HW127099   0.981   4.253   4.407  0.6415 -0.0960 -0.4129
 8475SOL    HW227100   0.952   4.401   4.420 -3.2148 -0.8307  0.5533
 8476SOL     OW27101   5.155   8.391   1.379  0.4039  0.3174  0.2565
 8476SOL    HW127102   5.156   8.350   1.293  0.0830 -0.1365  0.4612
 8476SOL    HW227103   5.225   8.347   1.428  0.9663  0.9724  0.0547
 8477SOL     OW27104   6.722   5.810   4.133 -0.2283  0.7683  0.1898
 8477SOL    HW127105   6.781   5.882   4.154  0.0821  0.7085 -0.4410
 8477SOL    HW227106   6.674   5.793   4.214 -1.1692  2.4833  0.0473
 8478SOL     OW27107   2.845   6.097   1.408  0.1461 -0.6289 -0.0176
 8478SOL    HW127108   2.856   6.003   1.393  0.8951 -0.5939  0.2847
 8478SOL    HW227109   2.904   6.138   1.344 -0.5078 -0.3470 -0.4514
 8479SOL     OW27110   5.722   8.083   4.733 -0.2018 -0.5765  0.4679
 8479SOL    HW127111   5.657   8.145   4.767 -0.3573 -0.9608  0.8864
 8479SOL    HW227112   5.671   8.020   4.683 -0.0790 -0.5353  0.2895
 8480SOL     OW27113   1.243   1.491   5.359  0.3529  0.2190 -0.5946
 8480SOL    HW127114   1.280   1.535   5.282 -0.6258  2.3051  0.0339
 8480SOL    HW227115   1.154   1.468   5.334 -0.1111  1.2823  0.0071
 8481SOL     OW27116   4.901   6.322   9.312 -0.2073 -0.2101 -0.0958
 8481SOL    HW127117   4.966   6.320   9.241  0.6853  0.3839  0.6728
 8481SOL    HW227118   4.817   6.333   9.267  0.4678  1.6868 -1.0209
 8482SOL     OW27119   8.806   5.105   5.112  0.2696 -0.1306  0.3492
 8482SOL    HW127120   8.711   5.096   5.119  0.1381  0.3673 -0.6148
 8482SOL    HW227121   8.841   5.041   5.174 -0.6845 -1.0695 -0.0619
 8483SOL     OW27122   7.751   5.164   0.295 -0.2725 -0.7398 -0.4727
 8483SOL    HW127123   7.735   5.221   0.219  2.0907 -0.3424 -0.7624
 8483SOL    HW227124   7.748   5.223   0.370 -0.0868 -0.6573 -0.5296
 8484SOL     OW27125   5.546   9.546   4.588  0.6722 -0.6973 -0.4497
 8484SOL    HW127126   5.468   9.513   4.543  1.7796 -1.7048 -1.7010
 8484SOL    HW227127   5.513   9.578   4.672 -0.9136 -2.4220 -0.3398
 8485SOL     OW27128   7.822   7.238   8.911  0.1482  0.2882  0.1291
 8485SOL    HW127129   7.897   7.259   8.856 -0.1562 -1.3593 -0.9579
 8485SOL    HW227130   7.856   7.242   9.001  1.6508 -0.8766 -0.3613
 8486SOL     OW27131   1.149   4.697   0.210 -0.5764 -0.1265  0.0971
 8486SOL    HW127132   1.223   4.645   0.179 -1.3924  0.3249 -2.9075
 8486SOL    HW227133   1.170   4.787   0.184 -1.1765  0.3944  1.3065
 8487SOL     OW27134   7.526   0.128   4.584  0.0617  0.0506 -0.0280
 8487SOL    HW127135   7.508   0.035   4.570 -0.6023 -0.0770  1.4389
 8487SOL    HW227136   7.455   0.173   4.541  0.9504 -0.0424 -1.6679
 8488SOL     OW27137   7.547   8.113   4.819  0.2459  0.0455  0.4771
 8488SOL    HW127138   7.519   8.054   4.749 -1.0400 -0.3565  1.2889
 8488SOL    HW227139   7.516   8.072   4.899  0.8928  0.9482  1.2188
 8489SOL     OW27140   3.182   7.553   5.395  0.1238  0.6619 -0.0501
 8489SOL    HW127141   3.256   7.603   5.428 -0.0098  1.3027 -0.7007
 8489SOL    HW227142   3.201   7.537   5.303 -0.1688  0.1210 -0.0262
 8490SOL     OW27143   8.419   5.341   0.454 -0.0454  0.1733 -0.2340
 8490SOL    HW127144   8.367   5.312   0.529 -0.6507  0.6750 -0.4510
 8490SOL    HW227145   8.441   5.432   0.474  1.3334 -0.2225  0.1663
 8491SOL     OW27146   8.599   7.472   9.092 -0.3023 -0.0818 -0.3598
 8491SOL    HW127147   8.514   7.443   9.125 -0.8983  0.8770 -1.0338
 8491SOL    HW227148   8.659   7.457   9.165 -1.0093 -0.9371  0.0592
 8492SOL     OW27149   9.368   6.861   6.829  0.5552  0.4079  0.3586
 8492SOL    HW127150   9.323   6.879   6.747  2.3391  0.5284 -0.6324
 8492SOL    HW227151   9.343   6.934   6.886 -0.9191  0.1770  0.0529
 8493SOL     OW27152   3.817   6.954   1.703  0.1390  0.1830 -0.2796
 8493SOL    HW127153   3.859   7.024   1.652  1.3355 -0.1190  0.2530
 8493SOL    HW227154   3.854   6.873   1.666 -1.3025 -0.1983 -0.9575
 8494SOL     OW27155   7.113   0.768   8.424  0.8258  0.2947 -0.1951
 8494SOL    HW127156   7.057   0.757   8.348 -0.3529  1.9753  0.3710
 8494SOL    HW227157   7.194   0.805   8.389  0.8474 -0.3078 -0.7877
 8495SOL     OW27158   2.073   0.009   5.675  0.3871  0.2448  0.3920
 8495SOL    HW127159   1.979   0.026   5.684 -0.1356 -1.5424 -1.0158
 8495SOL    HW227160   2.088  -0.070   5.727  0.6292 -0.7367 -1.1161
 8496SOL     OW27161   6.594   5.096   9.655  0.4641 -0.2751 -0.1532
 8496SOL    HW127162   6.624   5.014   9.694  1.5679 -0.6054 -1.5975
 8496SOL    HW227163   6.641   5.164   9.703  1.6117 -0.6537 -0.7067
 8497SOL     OW27164   0.282   3.053   3.390  0.2051 -0.4471  0.2916
 8497SOL    HW127165   0.342   3.024   3.321 -0.3145  0.1204 -0.4121
 8497SOL    HW227166   0.336   3.055   3.469  1.2177  0.3982 -0.3968
 8498SOL     OW27167   2.197   2.851   9.543  0.4654  0.1383  0.1381
 8498SOL    HW127168   2.133   2.827   9.476  2.1516 -0.1706 -1.4302
 8498SOL    HW227169   2.212   2.945   9.529  0.5081  0.1660  0.3631
 8499SOL     OW27170   4.676   1.497   0.406 -0.3806 -0.1326 -0.3424
 8499SOL    HW127171   4.641   1.512   0.494  0.7301 -1.0018  0.2601
 8499SOL    HW227172   4.674   1.402   0.394 -0.2844 -0.0450 -1.1725
 8500SOL     OW27173   9.604   7.659   4.326  0.4222  0.5319 -0.6332
 8500SOL    HW127174   9.656   7.589   4.366 -0.5411  0.0972 -0.1066
 8500SOL    HW227175   9.514   7.626   4.328  0.1675  1.1098 -1.8664
 8501SOL     OW27176   6.571   0.402   2.624 -0.2765  0.3356 -0.2731
 8501SOL    HW127177   6.580   0.312   2.656 -1.0606  0.5776  0.6736
 8501SOL    HW227178   6.534   0.393   2.537 -0.8808 -0.2470  0.0363
 8502SOL     OW27179   5.140   8.420   5.417  0.0096 -0.1983  0.1790
 8502SOL    HW127180   5.181   8.410   5.331 -1.3368 -0.3782 -0.4520
 8502SOL    HW227181   5.136   8.331   5.453 -2.5098 -0.6380 -1.0387
 8503SOL     OW27182   6.601   5.879   1.634  0.2994 -0.1160  0.4537
 8503SOL    HW127183   6.512   5.855   1.610  0.6551 -1.3822  0.3388
 8503SOL    HW227184   6.619   5.958   1.584 -1.8611  2.1007  2.8519
 8504SOL     OW27185   9.526   5.566   8.435  0.3233  0.3045  0.0009
 8504SOL    HW127186   9.505   5.475   8.411  0.2541  0.3499 -0.1125
 8504SOL    HW227187   9.441   5.609   8.442  0.3573  0.3672  0.0268
 8505SOL     OW27188   8.601   4.190   6.063  0.1762 -0.6712 -0.6629
 8505SOL    HW127189   8.592   4.285   6.053  1.9286 -0.1168  1.9087
 8505SOL    HW227190   8.537   4.168   6.131 -0.2217 -1.3535 -1.2519
 8506SOL     OW27191   6.808   9.055   0.366 -0.2652 -0.1351 -0.2116
 8506SOL    HW127192   6.896   9.055   0.331  0.5877 -1.1642  1.7718
 8506SOL    HW227193   6.807   8.984   0.431 -1.5373  1.8301  2.1173
 8507SOL     OW27194   3.088   8.186   7.360  0.6045  0.0730  0.9201
 8507SOL    HW127195   3.035   8.125   7.411  0.2558  1.0062  1.6835
 8507SOL    HW227196   3.113   8.136   7.282  0.7258 -1.2041  1.7565
 8508SOL     OW27197   2.403   9.402   4.720  0.3440 -0.2340  0.3886
 8508SOL    HW127198   2.357   9.482   4.744 -0.6491  0.1132 -2.2464
 8508SOL    HW227199   2.491   9.430   4.697  0.0284  0.1384 -0.4242
 8509SOL     OW27200   8.527   8.319   8.531 -0.5404 -0.5058  0.3135
 8509SOL    HW127201   8.524   8.364   8.615  2.3702 -1.1625  0.8744
 8509SOL    HW227202   8.493   8.232   8.549 -1.9584  0.0135  0.2635
 8510SOL     OW27203   7.379   4.670   8.697 -0.1262  0.1905  0.0175
 8510SOL    HW127204   7.383   4.723   8.617 -0.1754  0.7204  0.3628
 8510SOL    HW227205   7.292   4.687   8.733 -0.4751 -0.7950 -0.3119
 8511SOL     OW27206   5.327   5.793   3.946  0.6397 -0.3576  0.1221
 8511SOL    HW127207   5.340   5.710   3.901 -1.3185 -0.2154 -0.7951
 8511SOL    HW227208   5.396   5.850   3.911  0.7241 -0.9959 -0.7800
 8512SOL     OW27209   5.537   8.863   8.596  0.1011  0.9604  0.7473
 8512SOL    HW127210   5.602   8.850   8.664  1.0337  1.8490  0.0508
 8512SOL    HW227211   5.586   8.859   8.514 -0.9564  0.1779  0.1287
 8513SOL     OW27212   1.175   9.065   1.171  0.4613 -0.1832  0.1425
 8513SOL    HW127213   1.127   8.982   1.172  1.1931 -0.6308 -0.7625
 8513SOL    HW227214   1.252   9.049   1.225  0.0677  0.2523  0.8453
 8514SOL     OW27215   3.615   0.933   9.660 -0.4796 -0.3023 -0.1173
 8514SOL    HW127216   3.612   0.955   9.567  0.4208  1.1048  0.1575
 8514SOL    HW227217   3.530   0.959   9.695 -0.8803 -0.9873 -0.5599
 8515SOL     OW27218   8.517   2.964   9.101  0.1735 -0.1902  0.1315
 8515SOL    HW127219   8.582   3.025   9.067  1.0744 -1.2048 -0.0137
 8515SOL    HW227220   8.434   3.010   9.091  0.8216  0.9852 -0.0206
 8516SOL     OW27221   1.361   1.818   1.029  0.3106 -0.0074  0.3477
 8516SOL    HW127222   1.272   1.834   0.998 -0.6588 -0.8138  2.5290
 8516SOL    HW227223   1.417   1.869   0.970 -1.6489  1.3068 -0.4585
 8517SOL     OW27224   5.646   1.077   3.643  0.2232 -0.5333 -0.4702
 8517SOL    HW127225   5.674   1.003   3.588 -3.1138 -0.9297 -1.8919
 8517SOL    HW227226   5.617   1.037   3.724 -0.2821 -0.6408 -0.7007
 8518SOL     OW27227   2.758   1.151   0.730  0.4477 -0.6097  0.2188
 8518SOL    HW127228   2.713   1.181   0.651  1.0046 -2.9078 -1.0407
 8518SOL    HW227229   2.840   1.113   0.699  0.7176 -1.5127  1.8918
 8519SOL     OW27230   6.302   9.270   8.617 -0.1542  0.1754 -0.6096
 8519SOL    HW127231   6.242   9.311   8.680 -0.1291 -0.4805 -0.1418
 8519SOL    HW227232   6.389   9.300   8.643 -0.2194  0.5814 -0.8608
 8520SOL     OW27233   0.987   0.619   1.497 -0.7606  0.1387  0.1265
 8520SOL    HW127234   0.907   0.626   1.445  0.4801  0.3791 -1.8585
 8520SOL    HW227235   1.005   0.709   1.525 -1.4514  0.0039  1.0488
 8521SOL     OW27236   3.336   3.434   7.535  0.0602 -0.0909 -0.4381
 8521SOL    HW127237   3.273   3.450   7.465  0.0426  0.8869 -0.2071
 8521SOL    HW227238   3.295   3.471   7.613  0.7220  0.1375 -0.1957
 8522SOL     OW27239   3.734   6.891   6.469  0.2498 -0.0228  0.3336
 8522SOL    HW127240   3.737   6.984   6.446 -2.8614  0.5758  1.7952
 8522SOL    HW227241   3.650   6.861   6.433  1.7523 -2.6760 -1.2402
 8523SOL     OW27242   4.955   7.362   1.557  0.6403  0.1735 -0.2526
 8523SOL    HW127243   4.924   7.453   1.557 -2.1002 -0.6623  0.3108
 8523SOL    HW227244   5.035   7.364   1.608  1.2233  2.4265 -1.1476
 8524SOL     OW27245   0.745   4.558   4.144 -0.5537  0.4202 -0.4963
 8524SOL    HW127246   0.670   4.602   4.185 -0.3975 -0.1428  0.4350
 8524SOL    HW227247   0.721   4.549   4.052 -1.0667  1.4228 -0.4719
 8525SOL     OW27248   4.187   3.048   7.914  0.3247  0.0258  0.2421
 8525SOL    HW127249   4.094   3.030   7.929  0.3172  0.6593  1.0097
 8525SOL    HW227250   4.197   3.042   7.819 -0.2222 -1.3249  0.2418
 8526SOL     OW27251   8.391   5.618   3.026  0.2331  0.1039  0.4522
 8526SOL    HW127252   8.327   5.640   3.093 -0.5749  2.2549 -0.9179
 8526SOL    HW227253   8.349   5.550   2.973 -0.3698  0.5459  0.3568
 8527SOL     OW27254   5.268   4.077   3.363  0.0324  0.2400  0.0800
 8527SOL    HW127255   5.270   4.097   3.270  0.7473  1.8640  0.3931
 8527SOL    HW227256   5.319   3.996   3.372  2.0080  1.3104 -0.7112
 8528SOL     OW27257   6.564   6.008   4.748  0.8927  0.2753 -0.1280
 8528SOL    HW127258   6.496   6.027   4.814  0.5174 -0.3412 -0.3341
 8528SOL    HW227259   6.645   6.037   4.789  0.8260 -1.2021  1.1031
 8529SOL     OW27260   4.850   8.540   1.064  0.0967 -0.3516 -0.0895
 8529SOL    HW127261   4.806   8.491   1.134 -1.4601 -1.2354 -1.6007
 8529SOL    HW227262   4.812   8.628   1.068  0.6166 -0.1484  0.6589
 8530SOL     OW27263   3.462   2.999   0.413 -0.4712 -0.3194  0.5451
 8530SOL    HW127264   3.368   2.982   0.405 -0.5272 -0.8457  2.0220
 8530SOL    HW227265   3.469   3.094   0.421 -0.8711 -0.2781  0.4143
 8531SOL     OW27266   4.847   2.354   8.968 -0.2483  1.0559  0.5363
 8531SOL    HW127267   4.766   2.317   8.932 -0.2815 -2.4893  3.6576
 8531SOL    HW227268   4.913   2.285   8.954  0.6234  1.1737  3.5028
 8532SOL     OW27269   2.686   6.276   7.750 -0.4727  0.0224  0.2724
 8532SOL    HW127270   2.668   6.185   7.729  1.1505 -0.0597 -0.9928
 8532SOL    HW227271   2.624   6.326   7.696 -2.2001 -0.2750  1.8600
 8533SOL     OW27272   3.177   1.011   3.574  0.2057  0.0047  0.0545
 8533SOL    HW127273   3.224   1.090   3.601 -2.3830  1.1651  1.5676
 8533SOL    HW227274   3.194   0.948   3.644 -1.2518  0.8022  1.1929
 8534SOL     OW27275   9.068   7.633   8.634 -0.1777 -0.2450  0.0237
 8534SOL    HW127276   9.146   7.580   8.647  0.0688  0.0490 -0.2397
 8534SOL    HW227277   9.010   7.608   8.706 -0.8447 -2.2394 -1.1424
 8535SOL     OW27278   9.526   9.362   6.080 -0.7625  0.1018  0.2310
 8535SOL    HW127279   9.582   9.437   6.062  0.6878 -1.0239 -0.1654
 8535SOL    HW227280   9.493   9.377   6.168 -0.9315  1.4542 -0.0401
 8536SOL     OW27281   8.796   8.999   1.443 -0.7933  0.1156  0.5579
 8536SOL    HW127282   8.735   8.931   1.471 -1.5439  0.7118  0.3648
 8536SOL    HW227283   8.871   8.990   1.503 -1.2920 -0.2589  1.1304
 8537SOL     OW27284   1.901   9.004   4.487 -0.0000  0.3824  0.3687
 8537SOL    HW127285   1.900   9.067   4.559  1.2422 -0.2092  0.9180
 8537SOL    HW227286   1.859   9.051   4.414  1.3965  2.0579  0.5842
 8538SOL     OW27287   2.074   3.408   4.259 -0.1359  0.1227 -0.4509
 8538SOL    HW127288   2.078   3.435   4.167  0.8022 -0.5697 -0.6412
 8538SOL    HW227289   1.981   3.396   4.277 -0.2388 -2.4664 -2.1826
 8539SOL     OW27290   8.020   4.746   4.842 -0.3213  0.0025  1.1098
 8539SOL    HW127291   8.044   4.706   4.926  2.3257  0.0547  0.4668
 8539SOL    HW227292   8.100   4.791   4.813 -0.7891 -0.8436 -1.8844
 8540SOL     OW27293   8.274   8.997   9.672 -0.0827 -0.0860  0.1106
 8540SOL    HW127294   8.359   8.957   9.654 -1.3192 -2.7784 -0.2660
 8540SOL    HW227295   8.220   8.925   9.704 -2.6391  1.2020 -1.0250
 8541SOL     OW27296   9.521   2.685   4.732 -0.7001 -0.2730  0.7779
 8541SOL    HW127297   9.464   2.761   4.738 -2.5227 -1.5875  0.9920
 8541SOL    HW227298   9.492   2.628   4.803  1.3599 -0.7117  1.3199
 8542SOL     OW27299   2.483   1.769   3.121 -0.4136 -0.3194  0.3136
 8542SOL    HW127300   2.529   1.718   3.055  0.2478  1.4984 -0.6918
 8542SOL    HW227301   2.548   1.831   3.155 -1.7731  1.6542 -0.4526
 8543SOL     OW27302   4.380   5.294   6.240  0.0321 -0.6201  0.2640
 8543SOL    HW127303   4.456   5.237   6.249 -0.0854 -1.2274 -1.9323
 8543SOL    HW227304   4.412   5.369   6.189 -1.1790 -1.7713 -2.3289
 8544SOL     OW27305   0.972   7.518   6.742  0.1737  0.3954 -0.1730
 8544SOL    HW127306   0.880   7.528   6.720 -0.1898 -2.5098 -0.3307
 8544SOL    HW227307   1.015   7.499   6.659  0.5543 -0.2500  0.1594
 8545SOL     OW27308   7.423   6.347   5.357  0.2765  0.0634 -0.2558
 8545SOL    HW127309   7.386   6.394   5.282 -0.8346 -0.3423  0.0265
 8545SOL    HW227310   7.516   6.336   5.334 -0.0459 -0.0844 -1.6001
 8546SOL     OW27311   7.337   1.464   5.506  0.5994  0.1490  0.1603
 8546SOL    HW127312   7.317   1.370   5.509 -0.7303  0.3661 -0.8462
 8546SOL    HW227313   7.405   1.472   5.438  1.1621 -0.1362  0.6786
 8547SOL     OW27314   8.439   8.096   9.405  0.4975  0.6118 -0.1099
 8547SOL    HW127315   8.352   8.110   9.366  0.4489  0.2116 -0.1434
 8547SOL    HW227316   8.442   8.002   9.425  1.3344  0.4129 -1.1098
 8548SOL     OW27317   0.072   3.333   5.980 -0.1137  0.0192  0.0898
 8548SOL    HW127318   0.089   3.427   5.970 -1.6371  0.5510  1.9105
 8548SOL    HW227319   0.152   3.298   6.019 -0.1661  0.9216  1.0477
 8549SOL     OW27320   7.293   6.397   5.583 -0.2450 -0.9284  0.0544
 8549SOL    HW127321   7.330   6.340   5.650  0.8414 -0.3057  0.0096
 8549SOL    HW227322   7.334   6.368   5.501  0.6722  0.1804  0.0971
 8550SOL     OW27323   5.291   8.091   6.199 -0.4750 -0.0734  0.4218
 8550SOL    HW127324   5.199   8.066   6.191 -0.2328 -1.0001  0.3519
 8550SOL    HW227325   5.326   8.032   6.266  0.3055 -0.4456 -0.2965
 8551SOL     OW27326   6.063   9.044   7.210 -0.7975 -0.4261 -0.6758
 8551SOL    HW127327   6.126   9.116   7.218  0.0425 -1.2350  0.3964
 8551SOL    HW227328   5.986   9.083   7.171 -1.7588  1.9389  3.1225
 8552SOL     OW27329   7.770   3.672   1.124  0.4416  0.5308 -0.1343
 8552SOL    HW127330   7.702   3.660   1.190  0.1122  0.6570 -0.4507
 8552SOL    HW227331   7.750   3.756   1.083  0.3231  0.1959 -0.7685
 8553SOL     OW27332   6.624   5.624   2.083 -0.3685 -0.2572  0.1091
 8553SOL    HW127333   6.530   5.635   2.099 -0.2756  0.6378  0.0644
 8553SOL    HW227334   6.654   5.710   2.057 -0.1847 -1.2390 -3.4063
 8554SOL     OW27335   5.770   0.609   0.172  0.3600 -0.0066  0.1446
 8554SOL    HW127336   5.864   0.626   0.177  0.4193 -0.4245  0.5627
 8554SOL    HW227337   5.758   0.562   0.090  0.5753 -0.2978  0.2797
 8555SOL     OW27338   9.096   6.974   3.535 -0.1376  0.2804  0.2966
 8555SOL    HW127339   9.126   6.894   3.491  1.5482  0.4686  1.0180
 8555SOL    HW227340   9.072   7.033   3.463  0.6260 -0.1246 -0.3063
 8556SOL     OW27341   3.558   5.000   8.758 -0.1308 -0.1163  0.6394
 8556SOL    HW127342   3.566   4.905   8.768 -0.3551 -0.1641  0.3778
 8556SOL    HW227343   3.550   5.033   8.847 -2.2305 -0.5462  0.6643
 8557SOL     OW27344   5.172   6.669   1.565  0.6967  0.2097  0.2110
 8557SOL    HW127345   5.266   6.666   1.548  0.0159 -0.9084 -4.6589
 8557SOL    HW227346   5.139   6.739   1.509 -1.4025  1.2985  2.5820
 8558SOL     OW27347   8.276   5.865   8.898  0.2011 -0.2152 -0.6397
 8558SOL    HW127348   8.227   5.806   8.840 -0.9623 -0.9016  0.9405
 8558SOL    HW227349   8.210   5.926   8.931  0.7892  0.0323  0.0996
 8559SOL     OW27350   6.078   1.946   0.095  0.4366 -0.1994 -0.0072
 8559SOL    HW127351   5.984   1.940   0.078  0.5614  0.5851 -1.0370
 8559SOL    HW227352   6.090   1.904   0.181 -0.7764 -0.7330 -0.0845
 8560SOL     OW27353   8.169   3.683   2.101 -0.0285  0.1240 -0.2106
 8560SOL    HW127354   8.229   3.755   2.081  0.0058  0.1129 -0.1491
 8560SOL    HW227355   8.083   3.724   2.102  0.0801  0.3548  0.7455
 8561SOL     OW27356   1.857   8.599   8.817  0.4812 -0.1098  0.1079
 8561SOL    HW127357   1.946   8.565   8.819  0.1963 -0.9583 -0.9064
 8561SOL    HW227358   1.805   8.533   8.862  0.1440 -0.3771 -0.6452
 8562SOL     OW27359   4.279   9.023   3.880 -0.3569 -0.1009 -0.1812
 8562SOL    HW127360   4.293   9.115   3.902 -0.5122 -0.2616  0.6195
 8562SOL    HW227361   4.200   9.024   3.826  0.5021  0.3886 -1.4846
 8563SOL     OW27362   0.747   6.363   9.597  0.1305 -0.1539 -0.2917
 8563SOL    HW127363   0.702   6.446   9.581 -0.3378 -0.3093  0.1629
 8563SOL    HW227364   0.739   6.314   9.515  0.6560  0.3557 -0.6544
 8564SOL     OW27365   1.167   0.103   3.999 -0.1903  0.0516 -0.2755
 8564SOL    HW127366   1.260   0.112   3.976 -0.2945 -1.5294 -1.4361
 8564SOL    HW227367   1.128   0.187   3.974  0.8994  0.6818  0.1040
 8565SOL     OW27368   4.486   7.960   0.156 -0.3095  0.0657  0.4761
 8565SOL    HW127369   4.408   7.905   0.167 -1.0415  0.8707 -0.4951
 8565SOL    HW227370   4.478   7.996   0.067  1.3392 -0.0847  0.2310
 8566SOL     OW27371   9.421   4.468   6.954 -0.3357  0.3225  0.0390
 8566SOL    HW127372   9.361   4.519   6.900  1.0709  0.4348 -1.4693
 8566SOL    HW227373   9.462   4.407   6.894  0.8372  0.0374  1.0863
 8567SOL     OW27374   1.637   7.873   8.016 -0.1631 -0.4545  0.0562
 8567SOL    HW127375   1.636   7.873   7.920 -0.7210  0.1966  0.0542
 8567SOL    HW227376   1.545   7.881   8.041  0.0885  1.0233  0.6182
 8568SOL     OW27377   2.591   8.507   0.230  0.8864  0.0356  0.5705
 8568SOL    HW127378   2.502   8.520   0.262  0.4595  0.4213 -0.7194
 8568SOL    HW227379   2.644   8.564   0.286  0.2742  0.1048  1.0988
 8569SOL     OW27380   0.671   6.269   8.104 -0.3958 -0.4118 -0.4426
 8569SOL    HW127381   0.642   6.358   8.123 -1.0040 -0.2638 -1.9184
 8569SOL    HW227382   0.624   6.214   8.166 -0.9055  0.1869 -0.2949
 8570SOL     OW27383   7.456   0.323   8.445  0.4087  0.1588 -0.3780
 8570SOL    HW127384   7.491   0.392   8.502 -1.0069  1.0519 -0.5309
 8570SOL    HW227385   7.531   0.267   8.427  1.5245  1.4401  0.0708
 8571SOL     OW27386   6.207   9.538   1.060 -0.0521  0.4283  0.0226
 8571SOL    HW127387   6.112   9.548   1.065 -0.3986 -0.1001 -3.0187
 8571SOL    HW227388   6.220   9.461   1.005  2.2181 -0.9721  2.3387
 8572SOL     OW27389   2.841   3.758   7.249 -0.1889  0.3030  0.5245
 8572SOL    HW127390   2.880   3.677   7.214 -1.3857 -0.3479  0.6541
 8572SOL    HW227391   2.803   3.801   7.173 -2.0576 -0.7010  0.8231
 8573SOL     OW27392   3.548   6.808   4.128 -0.1680  0.2031 -0.2878
 8573SOL    HW127393   3.630   6.763   4.109  0.6595  0.8765  1.4029
 8573SOL    HW227394   3.479   6.749   4.097  0.8871 -1.8494  1.0267
 8574SOL     OW27395   4.934   9.536   0.497  0.2207  0.2199  0.4579
 8574SOL    HW127396   4.886   9.455   0.478 -0.6811  0.8674 -0.1270
 8574SOL    HW227397   4.920   9.590   0.419  1.0170  0.8464  0.7382
 8575SOL     OW27398   1.894   1.744   4.801 -0.3204 -0.1801 -0.5424
 8575SOL    HW127399   1.967   1.726   4.741 -1.5003 -0.5151 -1.9206
 8575SOL    HW227400   1.916   1.828   4.840 -0.4349  1.0462 -2.9519
 8576SOL     OW27401   9.182   2.893   6.296  0.7850  0.1143  0.2896
 8576SOL    HW127402   9.143   2.913   6.211  0.1927  0.3283  0.6052
 8576SOL    HW227403   9.228   2.811   6.282  0.8825  0.2616 -0.2967
 8577SOL     OW27404   7.544   2.879   5.315  0.2141 -0.6769  0.0549
 8577SOL    HW127405   7.574   2.819   5.246  0.4744 -1.8068  1.1182
 8577SOL    HW227406   7.468   2.923   5.277  0.5199 -1.0763 -1.0537
 8578SOL     OW27407   3.297   5.001   2.461 -0.2418  0.2732 -0.1859
 8578SOL    HW127408   3.294   5.039   2.549 -0.1347  1.9993 -0.8859
 8578SOL    HW227409   3.219   5.034   2.418 -0.3867 -0.7066 -0.7035
 8579SOL     OW27410   4.949   5.008   2.916 -0.1615 -0.0982 -0.3359
 8579SOL    HW127411   4.986   5.096   2.909 -0.5482  0.0575 -0.4315
 8579SOL    HW227412   4.869   5.011   2.863 -0.0656 -0.5671 -0.5091
 8580SOL     OW27413   9.446   0.929   4.832  0.5513 -0.2653  0.6773
 8580SOL    HW127414   9.352   0.917   4.849  0.2277  1.0256 -0.0556
 8580SOL    HW227415   9.474   0.991   4.899  0.6727  0.0629  0.3219
 8581SOL     OW27416   5.418   0.360   8.915 -0.6149 -0.3176 -0.0879
 8581SOL    HW127417   5.503   0.326   8.885 -0.1116  1.1212 -0.3934
 8581SOL    HW227418   5.369   0.375   8.834 -0.8209 -0.3079  0.0405
 8582SOL     OW27419   6.971   8.755   2.038 -0.1717 -0.5494 -0.3381
 8582SOL    HW127420   6.920   8.823   1.993 -0.5272 -1.7955 -1.9216
 8582SOL    HW227421   7.058   8.794   2.049 -0.5452  0.3972 -0.6056
 8583SOL     OW27422   0.993   7.625   0.051  0.3364  0.4343  0.7444
 8583SOL    HW127423   1.049   7.626  -0.026 -1.7586  2.0706 -0.8762
 8583SOL    HW227424   0.910   7.662   0.021 -0.9243  0.1268  3.5404
 8584SOL     OW27425   9.196   5.939   5.803  0.0626  0.0275 -0.1854
 8584SOL    HW127426   9.259   5.960   5.873 -0.1802 -2.6804  0.9652
 8584SOL    HW227427   9.111   5.956   5.842 -0.0288 -0.0899 -0.3332
 8585SOL     OW27428   6.879   1.270   3.899  0.0653 -0.0902 -0.2783
 8585SOL    HW127429   6.846   1.214   3.830  2.9212 -1.2801 -0.8181
 8585SOL    HW227430   6.885   1.214   3.976 -2.8718  1.1634  1.0160
 8586SOL     OW27431   5.339   8.935   7.543  0.4657 -0.2699 -0.3018
 8586SOL    HW127432   5.253   8.974   7.528 -0.2407 -1.8968 -0.6510
 8586SOL    HW227433   5.379   8.930   7.457  0.1581 -1.1693 -0.4017
 8587SOL     OW27434   4.913   3.694   6.420  0.0714 -0.8059 -0.5132
 8587SOL    HW127435   4.921   3.705   6.325  0.1920  0.6109 -0.3709
 8587SOL    HW227436   4.824   3.724   6.440  0.6944  0.7899  0.0252
 8588SOL     OW27437   1.383   7.746   7.137 -0.6150  0.1025 -0.3288
 8588SOL    HW127438   1.448   7.682   7.168 -1.1619 -0.1048  0.4394
 8588SOL    HW227439   1.347   7.707   7.058 -0.8762 -0.5139  0.0830
 8589SOL     OW27440   0.796   5.398   1.571  0.2290 -0.6429  0.0192
 8589SOL    HW127441   0.860   5.469   1.564 -0.1937 -0.1407  0.9608
 8589SOL    HW227442   0.714   5.436   1.540  0.3448 -1.2572 -1.0970
 8590SOL     OW27443   4.616   1.812   7.097  0.2655  0.0916  0.0600
 8590SOL    HW127444   4.575   1.875   7.157 -0.2041  0.8281 -1.0073
 8590SOL    HW227445   4.629   1.861   7.016  1.9874 -0.5474 -0.0778
 8591SOL     OW27446   0.382   4.766   8.128  0.2535  0.2785  0.1358
 8591SOL    HW127447   0.337   4.775   8.212  0.9790  2.7610  0.3565
 8591SOL    HW227448   0.475   4.769   8.151  0.5092 -0.9971 -0.6270
 8592SOL     OW27449   4.847   2.160   4.790 -0.0348 -0.2928  0.1908
 8592SOL    HW127450   4.930   2.188   4.752 -0.6839  1.3864 -0.0777
 8592SOL    HW227451   4.871   2.122   4.875  0.9339  1.0789  0.5688
 8593SOL     OW27452   4.507   3.198   5.948 -0.3342  0.1220 -0.3023
 8593SOL    HW127453   4.445   3.173   5.879 -0.4740 -0.2909 -0.0274
 8593SOL    HW227454   4.527   3.116   5.993 -0.3606  0.4143  0.2451
 8594SOL     OW27455   2.831   3.065   2.949 -0.8190  0.5137  0.2220
 8594SOL    HW127456   2.769   3.034   2.883 -2.5163  1.3757  1.3369
 8594SOL    HW227457   2.848   3.156   2.924 -0.3160  0.4067  0.1660
 8595SOL     OW27458   2.210   6.872   5.676 -0.0471 -0.1235 -0.2993
 8595SOL    HW127459   2.145   6.907   5.737 -1.8174  0.8354 -2.6154
 8595SOL    HW227460   2.212   6.778   5.695 -2.6359 -0.3026 -0.5852
 8596SOL     OW27461   8.864   1.281   0.077 -0.2329 -0.0459 -0.1976
 8596SOL    HW127462   8.865   1.190   0.049 -1.5879 -0.8361  2.0842
 8596SOL    HW227463   8.841   1.278   0.170 -0.7374  2.6417 -0.1454
 8597SOL     OW27464   6.065   3.570   0.219  0.3282  0.2336  0.3083
 8597SOL    HW127465   5.970   3.564   0.209  0.4622 -1.8268 -0.3296
 8597SOL    HW227466   6.096   3.607   0.137  0.1730 -0.6957 -0.1857
 8598SOL     OW27467   7.091   7.579   6.954 -0.3164 -0.4617  0.0031
 8598SOL    HW127468   7.061   7.579   6.863 -0.6894  3.5790 -0.0350
 8598SOL    HW227469   7.156   7.649   6.958 -1.3764  0.5251  3.1053
 8599SOL     OW27470   5.262   2.294   9.034 -0.0759 -1.0216  0.1066
 8599SOL    HW127471   5.176   2.252   9.027  0.0808 -1.4520  0.6737
 8599SOL    HW227472   5.304   2.276   8.950 -0.5007 -0.9057 -0.1293
 8600SOL     OW27473   4.970   2.028   7.410  0.0582 -0.3791 -0.0586
 8600SOL    HW127474   4.887   2.076   7.413  0.3842  0.1736  0.3695
 8600SOL    HW227475   4.965   1.977   7.329 -0.8729 -0.6790  0.1721
 8601SOL     OW27476   1.091   4.986   5.775 -0.5394  0.1167  0.1912
 8601SOL    HW127477   1.112   4.924   5.706 -2.1551 -0.1009 -0.1556
 8601SOL    HW227478   1.007   5.024   5.748  0.0228  1.8983  0.7721
 8602SOL     OW27479   1.942   4.112   5.989 -0.3424  0.5113 -0.2585
 8602SOL    HW127480   1.862   4.133   6.036 -0.2040  0.8337 -0.1642
 8602SOL    HW227481   2.000   4.074   6.055 -0.0162  1.2947 -0.0807
 8603SOL     OW27482   0.117   3.321   5.225 -0.2508 -0.3486  0.2530
 8603SOL    HW127483   0.044   3.383   5.233 -1.0118 -1.0738 -0.8748
 8603SOL    HW227484   0.098   3.272   5.145  0.7568 -1.5076  0.7065
 8604SOL     OW27485   2.235   3.614   3.754 -0.2644 -0.3865  0.2649
 8604SOL    HW127486   2.330   3.607   3.770  0.1451 -0.2403 -1.8140
 8604SOL    HW227487   2.216   3.540   3.695 -1.4697 -0.4372  0.7000
 8605SOL     OW27488   8.380   4.762   5.374 -0.0427  0.2349 -0.1503
 8605SOL    HW127489   8.456   4.770   5.432  0.3617  0.9492 -0.7642
 8605SOL    HW227490   8.306   4.789   5.428  0.4543  1.8908 -0.2305
 8606SOL     OW27491   7.173   5.902   1.791  0.0848  0.1646 -0.0400
 8606SOL    HW127492   7.246   5.881   1.732  0.0982 -0.8677  0.3186
 8606SOL    HW227493   7.197   5.860   1.874 -1.8080 -1.8903 -0.4623
 8607SOL     OW27494   5.902   1.971   7.697  0.4408 -0.6258  0.5653
 8607SOL    HW127495   5.814   1.938   7.677 -0.1193  1.6649 -1.2939
 8607SOL    HW227496   5.902   1.983   7.792 -0.8208 -1.7969  0.7435
 8608SOL     OW27497   3.051   6.859   4.176  0.1829  0.8700  0.8888
 8608SOL    HW127498   3.027   6.767   4.178 -1.2409  1.1106 -1.2506
 8608SOL    HW227499   3.143   6.861   4.203 -0.1137 -0.9829  2.2125
 8609SOL     OW27500   1.773   3.817   4.761 -0.5439  0.3922  0.2959
 8609SOL    HW127501   1.703   3.862   4.713 -0.2439  0.6616  0.1082
 8609SOL    HW227502   1.727   3.752   4.814 -0.8753 -0.0179 -0.4762
 8610SOL     OW27503   9.279   6.345   1.195 -0.0191 -0.0881  0.4147
 8610SOL    HW127504   9.309   6.255   1.210  0.6193  0.4591  2.8623
 8610SOL    HW227505   9.351   6.400   1.224 -0.0344  1.2979 -1.8884
 8611SOL     OW27506   4.806   7.203   7.418 -0.2098  0.0117 -0.2149
 8611SOL    HW127507   4.890   7.158   7.408 -0.2061  0.1590 -0.8715
 8611SOL    HW227508   4.808   7.238   7.507  0.1068 -0.6285  0.0342
 8612SOL     OW27509   1.318   5.781   0.673  0.7326  0.8382 -0.4427
 8612SOL    HW127510   1.227   5.800   0.650  0.3030 -0.8877 -0.2688
 8612SOL    HW227511   1.368   5.808   0.596 -0.0788  0.4450 -1.1259
 8613SOL     OW27512   2.702   5.374   8.241 -0.2836 -0.2679  0.4644
 8613SOL    HW127513   2.631   5.437   8.255 -0.7173  0.0729 -2.6432
 8613SOL    HW227514   2.716   5.374   8.146  1.4220 -3.0325  0.6092
 8614SOL     OW27515   3.464   0.837   7.099  0.1557 -0.0581 -0.2444
 8614SOL    HW127516   3.558   0.825   7.112  0.4211  1.4997 -0.4559
 8614SOL    HW227517   3.423   0.783   7.167  1.1975 -0.6213 -0.0423
 8615SOL     OW27518   5.094   6.352   5.356 -0.5402 -0.1781  0.3476
 8615SOL    HW127519   5.118   6.276   5.302  0.0970  0.8549 -0.8720
 8615SOL    HW227520   5.046   6.409   5.296 -0.2723  0.7744  1.0329
 8616SOL     OW27521   6.727   8.237   0.035 -0.1173 -1.0200 -0.5177
 8616SOL    HW127522   6.752   8.224  -0.056  0.3363 -2.0821 -0.2541
 8616SOL    HW227523   6.632   8.225   0.035  0.0235 -2.2631 -0.6610
 8617SOL     OW27524   6.153   5.034   6.442  0.2984 -0.3907  0.1696
 8617SOL    HW127525   6.176   5.083   6.522  1.1386 -1.5459  0.6744
 8617SOL    HW227526   6.072   5.074   6.412 -0.0485  0.0815  1.6161
 8618SOL     OW27527   1.138   5.261   0.549  0.2262 -0.2898 -0.0308
 8618SOL    HW127528   1.081   5.276   0.624  0.6816  2.0189 -0.0471
 8618SOL    HW227529   1.226   5.277   0.583  0.6260 -1.1876 -0.6108
 8619SOL     OW27530   9.493   3.169   0.572 -0.5276  0.3667 -0.1424
 8619SOL    HW127531   9.431   3.231   0.533  0.0526  0.6499 -0.6298
 8619SOL    HW227532   9.440   3.093   0.593 -1.5322  1.5030  1.6985
 8620SOL     OW27533   9.517   1.764   1.236  0.4372  0.2004 -0.1199
 8620SOL    HW127534   9.569   1.698   1.282  0.0917  0.5080  0.7176
 8620SOL    HW227535   9.463   1.805   1.304  0.0495  0.7856 -0.7645
 8621SOL     OW27536   4.479   6.109   8.149 -0.0105  0.1062 -0.4225
 8621SOL    HW127537   4.428   6.132   8.226  1.8309 -0.1375  0.9343
 8621SOL    HW227538   4.534   6.035   8.177  0.6458 -0.0591 -1.9892
 8622SOL     OW27539   6.311   4.457   0.654  0.5134 -0.2407  0.5949
 8622SOL    HW127540   6.271   4.498   0.577 -1.9841 -1.2487  1.2708
 8622SOL    HW227541   6.373   4.394   0.617  0.5947  0.4705 -0.5477
 8623SOL     OW27542   2.996   8.332   5.682 -0.2760 -0.0091  0.2360
 8623SOL    HW127543   3.020   8.308   5.771 -1.0887 -0.6245  0.3075
 8623SOL    HW227544   3.026   8.422   5.672 -1.2179  0.4777  1.5413
 8624SOL     OW27545   5.068   7.240   9.140  0.6557 -0.2599  0.3466
 8624SOL    HW127546   5.160   7.233   9.166  0.8771 -2.7101 -0.8855
 8624SOL    HW227547   5.023   7.174   9.191 -0.4649  0.8532  0.8641
 8625SOL     OW27548   8.822   1.908   3.044  0.2261  0.3199 -0.1500
 8625SOL    HW127549   8.783   1.921   2.959 -0.5476 -0.2223  0.1107
 8625SOL    HW227550   8.812   1.814   3.061  0.3515  0.4222  0.5420
 8626SOL     OW27551   7.137   1.072   1.623  0.4517  0.6606 -0.1482
 8626SOL    HW127552   7.137   1.125   1.704  1.6222  1.6491 -0.7520
 8626SOL    HW227553   7.061   1.104   1.574  0.2319  0.6609  0.1861
 8627SOL     OW27554   9.026   6.559   1.627 -0.1312 -0.1185 -0.0897
 8627SOL    HW127555   9.116   6.591   1.632 -0.2665  0.1526  0.6684
 8627SOL    HW227556   9.022   6.514   1.542  0.7129 -0.1295 -0.1362
 8628SOL     OW27557   4.932   7.811   4.010 -0.3467  0.1303  0.3628
 8628SOL    HW127558   4.947   7.797   3.916 -0.8418  1.6976  0.0201
 8628SOL    HW227559   5.008   7.770   4.052 -0.0990 -0.5655 -0.7163
 8629SOL     OW27560   4.650   0.363   0.722 -0.7729 -0.7080  0.3706
 8629SOL    HW127561   4.653   0.301   0.795 -1.7819 -0.9800  0.1914
 8629SOL    HW227562   4.592   0.321   0.658  0.6520 -0.8134 -0.9044
 8630SOL     OW27563   1.324   2.942   9.033  0.0933 -0.2044  0.8274
 8630SOL    HW127564   1.252   3.001   9.010 -0.2339 -1.3182 -1.3025
 8630SOL    HW227565   1.403   2.991   9.012 -0.1767 -0.4859 -0.9905
 8631SOL     OW27566   2.503   4.254   9.658  0.0217  0.0658  0.6655
 8631SOL    HW127567   2.481   4.305   9.736 -0.5483  1.7394 -0.5406
 8631SOL    HW227568   2.497   4.316   9.586 -0.0573 -1.5690 -0.8043
 8632SOL     OW27569   5.621   7.865   8.168 -0.4245 -0.0884 -0.2524
 8632SOL    HW127570   5.577   7.861   8.253 -1.9043  2.5847 -0.7579
 8632SOL    HW227571   5.677   7.943   8.175  1.9919 -1.6944 -0.6910
 8633SOL     OW27572   0.506   6.906   2.174 -0.0546  0.3110 -0.3479
 8633SOL    HW127573   0.560   6.943   2.105  0.7548  1.6060  0.9070
 8633SOL    HW227574   0.553   6.827   2.203  0.7243  0.9335  0.1262
 8634SOL     OW27575   6.739   0.396   4.922 -0.1289  0.1975  0.4945
 8634SOL    HW127576   6.809   0.461   4.919 -0.1927  0.2928  1.0505
 8634SOL    HW227577   6.671   0.436   4.976  0.2369 -0.7319  1.6751
 8635SOL     OW27578   8.799   5.871   4.423 -0.5881 -0.5340  0.5822
 8635SOL    HW127579   8.732   5.891   4.358 -1.8980 -0.2507  1.9595
 8635SOL    HW227580   8.792   5.941   4.488 -1.1777 -2.1885  2.4085
 8636SOL     OW27581   0.680   3.535   4.948 -0.5241  0.1455 -0.0731
 8636SOL    HW127582   0.654   3.565   4.860 -2.1848 -0.0919  0.3052
 8636SOL    HW227583   0.768   3.499   4.936 -1.6457 -2.2108 -2.2030
 8637SOL     OW27584   6.743   7.410   6.597  0.2589  0.7727  0.2390
 8637SOL    HW127585   6.803   7.374   6.662  2.1993  1.4245 -1.1120
 8637SOL    HW227586   6.724   7.499   6.629  0.1895  0.6465  0.5538
 8638SOL     OW27587   1.643   5.696   1.813  0.2659 -0.4313 -0.4169
 8638SOL    HW127588   1.700   5.758   1.858  0.5421 -0.9215 -0.0655
 8638SOL    HW227589   1.555   5.732   1.822  0.5050  0.2451 -0.8086
 8639SOL     OW27590   7.473   8.226   4.512  0.6683  0.1701 -0.2314
 8639SOL    HW127591   7.469   8.140   4.554 -0.1832 -0.1955 -1.0405
 8639SOL    HW227592   7.557   8.262   4.540  1.7981 -1.6088 -1.1905
 8640SOL     OW27593   1.592   6.803   5.520  0.4053 -0.0742 -0.4241
 8640SOL    HW127594   1.618   6.715   5.548 -0.4023 -0.8950 -2.0641
 8640SOL    HW227595   1.506   6.791   5.480  0.9129  1.1692 -2.0209
 8641SOL     OW27596   5.399   8.047   5.141 -0.0620  0.4814  0.2770
 8641SOL    HW127597   5.465   7.993   5.098 -0.0778  0.4848  0.2482
 8641SOL    HW227598   5.356   7.989   5.204  0.3693  0.6305  0.7166
 8642SOL     OW27599   9.488   8.385   0.172  0.4544 -0.1632 -0.8616
 8642SOL    HW127600   9.521   8.313   0.226 -0.2670  0.7297  0.8287
 8642SOL    HW227601   9.393   8.385   0.187  0.1924 -0.0187 -2.3274
 8643SOL     OW27602   2.062   2.975   1.346  0.5443 -0.1507  0.5237
 8643SOL    HW127603   2.127   2.992   1.278 -2.0692  3.4938 -1.4035
 8643SOL    HW227604   2.033   2.886   1.331  2.2517 -0.4858 -1.0948
 8644SOL     OW27605   0.929   3.445   1.511 -0.3549  0.0614  0.1337
 8644SOL    HW127606   0.939   3.353   1.535 -1.0889  0.3480  1.6228
 8644SOL    HW227607   0.889   3.486   1.587  2.1773  2.1262  0.4940
 8645SOL     OW27608   8.151   8.585   6.801  0.2969  0.0911  0.1670
 8645SOL    HW127609   8.221   8.562   6.741 -0.7103 -1.5596 -0.4392
 8645SOL    HW227610   8.192   8.583   6.888  0.9371 -1.1240 -0.1526
 8646SOL     OW27611   2.121   7.558   7.159 -0.5838  0.1105 -0.1397
 8646SOL    HW127612   2.193   7.550   7.096 -1.1719 -0.0148 -0.8047
 8646SOL    HW227613   2.114   7.653   7.175 -0.5821  0.1610 -0.4353
 8647SOL     OW27614   1.238   1.992   1.438  0.1902 -0.2080 -0.3508
 8647SOL    HW127615   1.174   1.934   1.479 -0.0765  0.3219  0.0088
 8647SOL    HW227616   1.265   2.050   1.509  0.2135  0.3070 -0.7752
 8648SOL     OW27617   8.109   4.384   8.771  0.0649 -0.2938  0.0458
 8648SOL    HW127618   8.192   4.411   8.810  0.4311  0.2215 -1.0282
 8648SOL    HW227619   8.042   4.419   8.829  0.5813  0.8566 -0.0230
 8649SOL     OW27620   9.024   6.904   0.591  0.3167  0.4247  0.4016
 8649SOL    HW127621   9.007   6.997   0.581 -2.5545  0.2813  2.8259
 8649SOL    HW227622   9.049   6.893   0.682  0.3365 -1.2246  0.2302
 8650SOL     OW27623   0.860   7.978   4.507  0.0816 -0.5115  0.2923
 8650SOL    HW127624   0.803   8.054   4.517  0.4929 -0.1504 -0.1122
 8650SOL    HW227625   0.948   8.012   4.521  0.4589 -0.5121 -1.7566
 8651SOL     OW27626   7.599   3.567   8.694  0.3021  0.0501  0.0520
 8651SOL    HW127627   7.539   3.632   8.731  2.2870  1.9674  0.1758
 8651SOL    HW227628   7.675   3.568   8.753  2.0752  0.5963 -2.0643
 8652SOL     OW27629   2.278   6.247   6.019 -0.0170 -0.5107 -0.7573
 8652SOL    HW127630   2.284   6.214   6.108 -0.4547  1.5671  0.0981
 8652SOL    HW227631   2.212   6.191   5.977  0.6930 -1.9486 -0.0177
 8653SOL     OW27632   7.214   9.045   6.334  0.2431 -0.3245 -0.1339
 8653SOL    HW127633   7.186   9.098   6.259 -0.6908  1.2145  1.2312
 8653SOL    HW227634   7.136   9.037   6.388  1.4641  0.7127  1.8873
 8654SOL     OW27635   5.153   3.996   2.289  0.6133  0.2228  0.1831
 8654SOL    HW127636   5.141   3.906   2.257  0.5018 -0.2806  1.5872
 8654SOL    HW227637   5.065   4.024   2.315  0.7492  0.5285  0.3192
 8655SOL     OW27638   1.751   5.347   9.599 -0.4204  0.3224  0.1638
 8655SOL    HW127639   1.789   5.431   9.625 -0.0631  0.1767  0.1263
 8655SOL    HW227640   1.749   5.351   9.503  0.1098  0.0750  0.1363
 8656SOL     OW27641   2.970   4.840   3.919 -0.1385  0.2703  0.2837
 8656SOL    HW127642   2.912   4.900   3.966  0.1826  0.6516  0.1924
 8656SOL    HW227643   2.993   4.773   3.983 -1.1383 -0.2125  0.1659
 8657SOL     OW27644   6.239   7.109   3.026 -0.0473  0.1453 -0.4765
 8657SOL    HW127645   6.300   7.036   3.032  1.6485  1.6151  1.5714
 8657SOL    HW227646   6.180   7.097   3.100 -2.2574 -1.1417 -2.3080
 8658SOL     OW27647   9.470   0.096   6.676 -0.3442 -0.1442 -0.7390
 8658SOL    HW127648   9.498   0.160   6.611  0.4678  0.4133  0.1377
 8658SOL    HW227649   9.531   0.107   6.749 -0.6194 -1.4379 -0.2790
 8659SOL     OW27650   6.072   9.291   5.591  0.2737 -0.1305  0.8830
 8659SOL    HW127651   6.108   9.213   5.633  0.3221  0.1894  1.4460
 8659SOL    HW227652   6.145   9.352   5.585  0.3170 -0.2471  0.1411
 8660SOL     OW27653   3.647   1.610   4.384  0.9434 -0.3617 -0.0547
 8660SOL    HW127654   3.598   1.528   4.378  3.0606 -1.6661 -0.4822
 8660SOL    HW227655   3.599   1.670   4.326 -1.5869 -0.6981  1.5049
 8661SOL     OW27656   2.230   7.197   0.475  0.4062  0.5997 -0.4497
 8661SOL    HW127657   2.192   7.220   0.391  0.6685  0.3734 -0.6310
 8661SOL    HW227658   2.306   7.143   0.454  0.1337  0.0474 -0.0567
 8662SOL     OW27659   9.192   9.155   6.165  0.0733  0.0034 -0.1330
 8662SOL    HW127660   9.148   9.239   6.177  1.5573  1.0657 -1.6104
 8662SOL    HW227661   9.188   9.138   6.071  2.2321 -0.1245 -0.2658
 8663SOL     OW27662   8.801   8.777   6.104 -0.2218  0.2248 -0.4391
 8663SOL    HW127663   8.849   8.698   6.127 -1.2136 -0.3563 -0.3200
 8663SOL    HW227664   8.756   8.755   6.022 -1.2653  0.3265  0.0932
 8664SOL     OW27665   4.068   6.658   9.408  0.3089 -0.1980 -0.1004
 8664SOL    HW127666   4.081   6.563   9.397 -1.2046 -0.4826  0.3312
 8664SOL    HW227667   3.986   6.676   9.363 -1.0197  0.3261  2.3297
 8665SOL     OW27668   7.765   5.534   1.391  0.3805  0.5739  0.2720
 8665SOL    HW127669   7.823   5.541   1.466  0.5520  1.2941  0.0799
 8665SOL    HW227670   7.820   5.558   1.316  0.1654  0.0406 -0.0655
 8666SOL     OW27671   6.121   4.442   8.694  0.1571  0.1633  0.4143
 8666SOL    HW127672   6.071   4.457   8.614  0.7612  0.1913  0.0291
 8666SOL    HW227673   6.157   4.528   8.717  0.9229 -0.0490  0.0625
 8667SOL     OW27674   5.708   9.213   7.496  0.6097  0.0493  0.8953
 8667SOL    HW127675   5.728   9.274   7.567  1.4708  0.1303  0.5939
 8667SOL    HW227676   5.646   9.259   7.441 -0.6340 -0.2900  1.9737
 8668SOL     OW27677   3.873   0.101   7.530 -0.8513  0.5706 -0.8214
 8668SOL    HW127678   3.853   0.014   7.495 -0.6003  0.7722 -1.4672
 8668SOL    HW227679   3.902   0.084   7.620  2.4383 -0.3901 -1.9091
 8669SOL     OW27680   3.315   0.939   3.291  0.4597 -0.1517  0.2729
 8669SOL    HW127681   3.225   0.964   3.270  0.5729  0.2302  0.2437
 8669SOL    HW227682   3.350   1.013   3.340  0.9909  0.0172 -0.3415
 8670SOL     OW27683   4.724   5.332   2.706 -0.3278 -0.1969 -0.0863
 8670SOL    HW127684   4.708   5.293   2.620 -1.0356 -2.2737  0.9190
 8670SOL    HW227685   4.807   5.377   2.697  0.1216 -1.2381 -1.5863
 8671SOL     OW27686   2.013   5.693   6.371  0.0552  0.1971 -0.4903
 8671SOL    HW127687   2.062   5.650   6.300  1.0135 -0.2658  0.4317
 8671SOL    HW227688   2.080   5.730   6.428 -0.6421 -0.5906  0.8944
 8672SOL     OW27689   5.819   5.729   0.700 -0.0064 -0.0469 -0.0028
 8672SOL    HW127690   5.843   5.637   0.688 -0.9413 -0.0734 -2.0066
 8672SOL    HW227691   5.751   5.727   0.768 -0.9756 -1.0198 -0.9598
 8673SOL     OW27692   9.238   5.993   3.314  0.3998  0.0147  0.7550
 8673SOL    HW127693   9.211   6.083   3.332  0.5985 -0.0308  1.2929
 8673SOL    HW227694   9.286   5.966   3.392  0.3775 -0.5450  0.5809
 8674SOL     OW27695   0.160   9.098   2.681 -0.1911 -0.0698  0.0634
 8674SOL    HW127696   0.105   9.020   2.677  0.3049 -0.5179  1.2166
 8674SOL    HW227697   0.141   9.136   2.767  0.8217  0.1154  0.2189
 8675SOL     OW27698   8.961   8.958   6.703 -0.0892 -0.3723 -0.2510
 8675SOL    HW127699   8.883   8.903   6.702  1.0835 -2.1740 -2.5062
 8675SOL    HW227700   8.937   9.033   6.756 -2.3657 -2.2283  1.5404
 8676SOL     OW27701   8.229   8.329   6.238  0.3392 -0.4589  0.1653
 8676SOL    HW127702   8.210   8.236   6.249 -1.0573 -0.3444 -0.9812
 8676SOL    HW227703   8.145   8.373   6.254  1.0351  0.6432  0.9616
 8677SOL     OW27704   6.102   9.173   3.881  0.2470  0.0326 -0.4531
 8677SOL    HW127705   6.129   9.106   3.944 -0.8059 -0.3652 -0.4134
 8677SOL    HW227706   6.081   9.249   3.935 -2.0821 -0.7650 -0.1483
 8678SOL     OW27707   7.972   0.238   8.555 -0.2697 -0.9346 -0.0105
 8678SOL    HW127708   7.922   0.169   8.599 -1.1376 -0.9996 -1.0437
 8678SOL    HW227709   7.931   0.245   8.469  0.1780  0.4703 -0.1320
 8679SOL     OW27710   6.092   7.875   1.400 -0.2323  0.0552 -0.9536
 8679SOL    HW127711   6.182   7.864   1.369  0.8849  2.1188  1.2495
 8679SOL    HW227712   6.058   7.948   1.348  0.3233  0.9994 -0.0352
 8680SOL     OW27713   2.209   3.075   6.429  0.3421 -0.1460 -0.5293
 8680SOL    HW127714   2.174   3.017   6.497  1.8775 -1.2995 -0.6683
 8680SOL    HW227715   2.227   3.017   6.356 -0.8822  1.0129 -1.8079
 8681SOL     OW27716   6.066   0.762   6.761 -0.3437  0.3220  0.7207
 8681SOL    HW127717   6.034   0.845   6.725  0.0970  0.4864  0.6941
 8681SOL    HW227718   6.130   0.731   6.697 -0.7972 -0.2467  0.5328
 8682SOL     OW27719   6.625   4.934   6.868  0.0153 -0.1713  0.4010
 8682SOL    HW127720   6.533   4.953   6.847  0.0083  0.7047  1.1425
 8682SOL    HW227721   6.628   4.840   6.881 -1.1358 -0.0238  1.9964
 8683SOL     OW27722   3.281   3.493   0.595  0.2085 -0.1088  0.0175
 8683SOL    HW127723   3.358   3.535   0.558  0.9555 -1.8668 -0.5602
 8683SOL    HW227724   3.285   3.513   0.689  0.9631  0.4062 -0.1161
 8684SOL     OW27725   0.223   5.442   0.212 -0.0446  0.3539  1.0260
 8684SOL    HW127726   0.294   5.389   0.174  0.2623  0.2360  1.7416
 8684SOL    HW227727   0.234   5.529   0.174 -0.1358  0.0735  0.3579
 8685SOL     OW27728   3.584   8.815   4.675  0.3096  0.0284 -0.5297
 8685SOL    HW127729   3.616   8.768   4.599  0.3354 -0.9779  0.0823
 8685SOL    HW227730   3.540   8.893   4.639  1.0915  0.0316 -1.5026
 8686SOL     OW27731   8.585   9.017   2.700  0.2232 -0.2040  1.1737
 8686SOL    HW127732   8.595   9.093   2.643 -0.2936 -1.2984 -0.4445
 8686SOL    HW227733   8.534   9.049   2.774  1.2876  1.3674  1.2734
 8687SOL     OW27734   8.699   5.414   0.157  0.0009  0.3398  0.0890
 8687SOL    HW127735   8.760   5.413   0.231  0.0418  0.4040  0.0560
 8687SOL    HW227736   8.750   5.381   0.083  0.3258  1.4322 -0.1960
 8688SOL     OW27737   1.407   8.587   0.023  0.2301 -0.0611 -0.6712
 8688SOL    HW127738   1.399   8.662   0.083  1.9524 -0.9566  0.7635
 8688SOL    HW227739   1.414   8.627  -0.064 -0.7052  1.3425 -0.1441
 8689SOL     OW27740   4.638   0.971   4.241 -0.2571  0.0977 -0.1344
 8689SOL    HW127741   4.626   0.925   4.324 -0.5861 -1.2206 -0.8837
 8689SOL    HW227742   4.719   0.936   4.206  0.4871  1.4775  0.1243
 8690SOL     OW27743   2.495   7.866   3.908 -0.0389  0.3334 -0.4865
 8690SOL    HW127744   2.576   7.907   3.940  0.4034 -1.2896  0.6302
 8690SOL    HW227745   2.508   7.856   3.814  1.5144 -0.7885 -0.1864
 8691SOL     OW27746   3.055   7.999   6.893  0.1114  0.0509 -0.3114
 8691SOL    HW127747   3.049   7.907   6.918 -1.3295 -0.0328 -0.8550
 8691SOL    HW227748   2.997   8.007   6.818  0.0789  1.4449 -0.1610
 8692SOL     OW27749   7.187   0.674   2.014  0.0462 -0.0182  0.1556
 8692SOL    HW127750   7.140   0.617   2.074 -1.4154  0.0225 -0.8946
 8692SOL    HW227751   7.172   0.762   2.049 -0.2222 -0.0519  0.1318
 8693SOL     OW27752   0.549   7.658   1.910  0.0684 -0.1062 -0.2867
 8693SOL    HW127753   0.576   7.623   1.995  1.6009 -0.4514 -0.8734
 8693SOL    HW227754   0.616   7.724   1.890 -0.4977  0.2486 -1.0602
 8694SOL     OW27755   5.553   2.203   1.315 -0.8079 -0.2281 -0.4794
 8694SOL    HW127756   5.533   2.110   1.326 -1.4852  0.0453  0.9044
 8694SOL    HW227757   5.564   2.214   1.221 -0.1033 -1.8191 -0.6246
 8695SOL     OW27758   8.971   8.727   5.412 -0.1418 -0.4242 -0.7233
 8695SOL    HW127759   8.894   8.748   5.465  2.3182  3.3999  1.8622
 8695SOL    HW227760   8.943   8.742   5.322 -2.7600 -0.5386 -0.0024
 8696SOL     OW27761   3.519   1.347   0.538 -0.3048  0.1009  0.1198
 8696SOL    HW127762   3.613   1.364   0.532 -0.4177  0.3599 -1.2648
 8696SOL    HW227763   3.512   1.276   0.601  1.0055 -1.2689 -1.1852
 8697SOL     OW27764   3.377   5.046   0.288  0.0348  0.5676 -0.6240
 8697SOL    HW127765   3.324   4.970   0.312  1.5557 -0.4443 -0.3219
 8697SOL    HW227766   3.439   5.055   0.361  1.1068  0.9003 -1.5597
 8698SOL     OW27767   1.356   6.569   1.983 -0.0848 -0.8602 -0.5370
 8698SOL    HW127768   1.335   6.559   1.890  0.8907  1.3487 -1.0733
 8698SOL    HW227769   1.281   6.615   2.020  0.2948 -0.0987 -0.6795
 8699SOL     OW27770   0.986   4.041   6.414 -0.0156 -0.2327  0.2211
 8699SOL    HW127771   0.956   3.985   6.485  2.2141  0.8535  2.1810
 8699SOL    HW227772   1.030   3.982   6.352 -0.2997 -0.9763  0.7286
 8700SOL     OW27773   9.101   5.521   8.224 -0.4354 -0.1109 -1.1607
 8700SOL    HW127774   9.071   5.498   8.312 -1.4582  0.6235 -1.3045
 8700SOL    HW227775   9.117   5.615   8.228 -0.1122 -0.1410 -1.6611
 8701SOL     OW27776   3.202   2.485   6.396  0.1682  0.2987 -0.3921
 8701SOL    HW127777   3.246   2.415   6.348  2.5497  0.2833  1.6258
 8701SOL    HW227778   3.265   2.513   6.462 -2.3533  1.2674  1.8271
 8702SOL     OW27779   7.354   6.024   7.694  0.1776  0.0227  0.5363
 8702SOL    HW127780   7.415   5.985   7.756  0.3134 -0.8898 -0.1520
 8702SOL    HW227781   7.286   6.063   7.749 -0.0694 -1.3676  1.2690
 8703SOL     OW27782   2.978   8.641   0.214 -0.7076 -0.2478  0.1290
 8703SOL    HW127783   3.048   8.645   0.150 -0.3443  1.9846  0.5878
 8703SOL    HW227784   2.997   8.562   0.266  0.4721 -0.6105 -0.8128
 8704SOL     OW27785   8.296   3.439   9.301 -0.2038 -0.7022 -0.4729
 8704SOL    HW127786   8.307   3.357   9.349 -0.7474 -0.4876  0.0381
 8704SOL    HW227787   8.211   3.472   9.330  0.5673  0.6849  0.3477
 8705SOL     OW27788   8.259   4.866   8.366 -0.4598  0.2232 -0.1363
 8705SOL    HW127789   8.309   4.936   8.324 -0.2323 -0.6659 -1.4128
 8705SOL    HW227790   8.177   4.863   8.317 -0.2764 -0.6882 -0.4134
 8706SOL     OW27791   2.701   1.088   1.922 -0.4970 -0.1419 -0.1881
 8706SOL    HW127792   2.756   1.151   1.875  0.8948  0.2433  1.7811
 8706SOL    HW227793   2.635   1.142   1.966  0.5537  0.0141  1.3087
 8707SOL     OW27794   6.135   7.901   7.063 -0.0854 -0.1173 -0.1360
 8707SOL    HW127795   6.057   7.924   7.013  0.0221  1.1854  0.2468
 8707SOL    HW227796   6.153   7.810   7.040 -0.2709  0.3110 -2.1653
 8708SOL     OW27797   7.906   6.303   1.494  0.3357 -0.7181  0.3326
 8708SOL    HW127798   7.913   6.382   1.440 -0.4902 -1.0430 -0.2764
 8708SOL    HW227799   7.966   6.318   1.566  1.3372 -0.1861 -0.5786
 8709SOL     OW27800   0.841   0.858   3.455  0.5156  0.0020 -0.1495
 8709SOL    HW127801   0.763   0.889   3.409  0.9169  2.4603  0.6777
 8709SOL    HW227802   0.911   0.862   3.389  0.1231 -1.5408 -0.6996
 8710SOL     OW27803   4.212   6.381   1.135  0.1931  0.5715  0.6721
 8710SOL    HW127804   4.147   6.404   1.201  0.5761 -1.2064  1.7326
 8710SOL    HW227805   4.293   6.420   1.166  0.1749  0.5495  0.7474
 8711SOL     OW27806   7.112   4.992   1.138 -0.4584 -0.2459 -0.6405
 8711SOL    HW127807   7.164   4.936   1.195 -1.4109 -1.8559 -1.2836
 8711SOL    HW227808   7.131   5.081   1.167  2.3296 -0.7762 -0.5940
 8712SOL     OW27809   4.897   6.644   2.070 -0.0052  0.2710 -0.3050
 8712SOL    HW127810   4.974   6.593   2.044  0.9367  1.4739  0.0093
 8712SOL    HW227811   4.921   6.683   2.154 -0.5294  1.5187 -0.7010
 8713SOL     OW27812   1.597   8.013   6.254  0.2105  0.1317 -0.0223
 8713SOL    HW127813   1.534   7.982   6.188 -0.3758  1.3069 -0.0433
 8713SOL    HW227814   1.672   8.041   6.203  0.1178  0.1923 -0.1275
 8714SOL     OW27815   7.437   8.845   5.392 -0.5432 -0.5747  0.5189
 8714SOL    HW127816   7.350   8.834   5.353  0.2809  0.2144 -1.7398
 8714SOL    HW227817   7.478   8.758   5.383 -0.2845 -0.3536 -0.7020
 8715SOL     OW27818   2.001   7.048   8.607 -0.6258 -0.6298 -0.3354
 8715SOL    HW127819   2.049   6.965   8.616  1.2824  0.3249 -1.2090
 8715SOL    HW227820   1.957   7.040   8.522  0.2090 -0.4474 -0.7947
 8716SOL     OW27821   5.016   6.500   0.433  0.4830  0.3297 -0.0295
 8716SOL    HW127822   5.088   6.454   0.389  1.7217  0.4884  1.7364
 8716SOL    HW227823   5.005   6.581   0.382  1.7439  0.4231 -0.1934
 8717SOL     OW27824   1.711   8.054   0.629 -0.1495  0.4141  0.0838
 8717SOL    HW127825   1.739   7.962   0.631  0.2261  0.4899 -1.0267
 8717SOL    HW227826   1.615   8.049   0.634 -0.1803 -0.0941 -0.6790
 8718SOL     OW27827   6.711   8.139   9.104 -0.1842  0.6588 -0.2790
 8718SOL    HW127828   6.632   8.087   9.119  0.2918  0.5985  2.6925
 8718SOL    HW227829   6.779   8.074   9.086 -0.1673  0.4366  0.5445
 8719SOL     OW27830   4.735   4.740   4.570 -0.0673  0.6402 -0.9209
 8719SOL    HW127831   4.742   4.718   4.478  0.4199 -0.7536 -0.5766
 8719SOL    HW227832   4.673   4.677   4.606  1.8874 -0.7556  0.2268
 8720SOL     OW27833   8.822   2.954   9.280 -0.1884 -0.2723  0.2713
 8720SOL    HW127834   8.891   2.991   9.335  0.8332 -1.5531 -0.0890
 8720SOL    HW227835   8.752   3.018   9.284  0.5780  0.5496  1.5616
 8721SOL     OW27836   1.749   6.999   2.118 -0.2847 -0.1765 -0.3748
 8721SOL    HW127837   1.685   6.928   2.126  0.7243 -0.9669  1.0427
 8721SOL    HW227838   1.759   7.032   2.207  3.9757 -2.5602  0.2992
 8722SOL     OW27839   9.404   8.591   0.542  0.6080  0.0217  0.4385
 8722SOL    HW127840   9.344   8.522   0.570 -0.6187  0.7865 -0.2359
 8722SOL    HW227841   9.353   8.644   0.481  1.8215  0.9923  0.2323
 8723SOL     OW27842   7.681   8.063   1.543  0.1928 -0.1212 -0.2467
 8723SOL    HW127843   7.704   8.093   1.455  0.5688  0.8174  0.1540
 8723SOL    HW227844   7.761   8.021   1.575 -0.1388 -1.0272 -0.5727
 8724SOL     OW27845   7.159   9.412   8.538 -0.4515 -0.6189  0.5152
 8724SOL    HW127846   7.178   9.327   8.577  2.2458 -0.3381 -0.0507
 8724SOL    HW227847   7.120   9.391   8.453 -2.2036 -1.2178  1.4083
 8725SOL     OW27848   1.599   7.137   8.818  0.5449 -0.0088 -0.5527
 8725SOL    HW127849   1.577   7.163   8.908  1.3970  0.5780 -0.5133
 8725SOL    HW227850   1.662   7.202   8.788  0.7090 -0.5365 -1.3809
 8726SOL     OW27851   2.271   7.338   5.288  0.3677 -0.1700 -0.3072
 8726SOL    HW127852   2.244   7.298   5.371 -2.7199  0.4304 -0.9101
 8726SOL    HW227853   2.294   7.428   5.312 -0.0529 -0.1305 -0.0505
 8727SOL     OW27854   4.130   9.347   3.590 -0.2337  0.2926 -0.3840
 8727SOL    HW127855   4.061   9.404   3.556 -0.9892 -1.3167 -1.7210
 8727SOL    HW227856   4.198   9.407   3.620 -1.3338  1.8980 -0.9478
 8728SOL     OW27857   8.959   1.316   1.360  0.3696 -0.0829  0.3500
 8728SOL    HW127858   8.954   1.224   1.333 -0.5696  0.3057 -0.9292
 8728SOL    HW227859   8.889   1.359   1.310  2.1568  1.7330 -0.7479
 8729SOL     OW27860   5.892   1.897   3.854 -0.1925 -0.4138 -0.0444
 8729SOL    HW127861   5.963   1.876   3.794  0.4873  1.8768 -0.1234
 8729SOL    HW227862   5.817   1.917   3.798  0.1985  0.8697 -0.1383
 8730SOL     OW27863   2.424   2.716   3.313  0.0589  0.3202  0.1236
 8730SOL    HW127864   2.469   2.781   3.367 -2.1419  3.5007 -1.5614
 8730SOL    HW227865   2.331   2.732   3.330 -0.5967 -1.6816 -1.2488
 8731SOL     OW27866   2.773   0.230   7.851 -0.2428 -0.3896  0.2206
 8731SOL    HW127867   2.767   0.138   7.875  0.5839 -0.7059 -0.7129
 8731SOL    HW227868   2.736   0.277   7.925 -4.1981 -1.5955 -0.7866
 8732SOL     OW27869   4.652   1.086   3.938  0.9340  0.3104 -0.2811
 8732SOL    HW127870   4.666   1.055   4.028  1.3221 -1.2131 -0.8359
 8732SOL    HW227871   4.576   1.144   3.945 -0.0738 -1.0482  0.7845
 8733SOL     OW27872   7.160   6.116   1.960 -0.1213 -0.6315 -0.6331
 8733SOL    HW127873   7.074   6.089   1.927 -0.1810 -3.3398  1.3710
 8733SOL    HW227874   7.222   6.060   1.913  0.1686 -1.3406  0.5524
 8734SOL     OW27875   4.475   2.205   1.853  0.4105  0.0232  0.0266
 8734SOL    HW127876   4.482   2.300   1.864 -1.9000  0.3141 -0.3684
 8734SOL    HW227877   4.525   2.169   1.926 -0.6081  1.6057  1.6058
 8735SOL     OW27878   5.092   8.348   7.338 -0.1990 -0.1620 -0.3279
 8735SOL    HW127879   5.050   8.317   7.258 -1.4526 -2.0104  0.9450
 8735SOL    HW227880   5.134   8.269   7.375  0.4072  0.6536  0.8018
 8736SOL     OW27881   7.087   8.679   2.404  0.3528 -0.1446  0.4528
 8736SOL    HW127882   7.108   8.772   2.413 -0.0258 -0.1350  1.3720
 8736SOL    HW227883   7.171   8.634   2.416  0.9367  0.1303 -2.0314
 8737SOL     OW27884   7.308   7.716   8.427  0.2143 -0.2318 -0.1833
 8737SOL    HW127885   7.261   7.636   8.403 -2.2158  1.3442 -1.0590
 8737SOL    HW227886   7.390   7.685   8.465 -1.1807 -3.1757  0.7418
 8738SOL     OW27887   6.336   9.054   0.116  0.2088  0.2924  0.2531
 8738SOL    HW127888   6.420   9.054   0.163  0.2130  0.7240  0.2427
 8738SOL    HW227889   6.297   9.139   0.135  0.0727  0.3501 -0.2797
 8739SOL     OW27890   5.863   0.861   7.641 -0.3356 -0.5896  0.1180
 8739SOL    HW127891   5.937   0.825   7.690 -0.5987 -0.6868  0.4469
 8739SOL    HW227892   5.882   0.954   7.633  0.3851 -0.7997 -0.7953
 8740SOL     OW27893   6.434   5.585   6.947 -0.7926  0.2219  0.1367
 8740SOL    HW127894   6.449   5.504   6.995  3.1840  0.3250 -0.6463
 8740SOL    HW227895   6.477   5.652   6.999 -0.5022  1.1366 -1.2465
 8741SOL     OW27896   0.867   4.356   2.781 -0.5763  0.4089  0.3309
 8741SOL    HW127897   0.785   4.316   2.754 -0.7056  1.4946 -1.0415
 8741SOL    HW227898   0.886   4.420   2.712  1.9946 -0.5755 -0.0008
 8742SOL     OW27899   3.082   3.312   2.609 -0.1018  0.2818 -0.0940
 8742SOL    HW127900   3.126   3.231   2.632 -0.3821  0.7285  2.2180
 8742SOL    HW227901   2.995   3.284   2.578  0.5698 -0.3822 -1.4802
 8743SOL     OW27902   2.043   9.188   0.849  0.4429 -0.1535 -0.5372
 8743SOL    HW127903   2.122   9.188   0.795  1.0110 -1.7280  0.2164
 8743SOL    HW227904   2.019   9.096   0.856 -0.2054  0.1011  1.0269
 8744SOL     OW27905   2.745   2.959   7.822  0.2455  0.2905 -0.5691
 8744SOL    HW127906   2.718   3.046   7.852 -1.0025  0.1481 -1.1989
 8744SOL    HW227907   2.718   2.956   7.731  0.6395 -0.6208 -0.6674
 8745SOL     OW27908   0.659   9.179   4.948 -0.3310  0.1691 -0.2762
 8745SOL    HW127909   0.668   9.190   5.043 -1.2318 -0.4986 -0.1022
 8745SOL    HW227910   0.586   9.118   4.938  1.1083 -1.4961 -1.3255
 8746SOL     OW27911   7.487   3.164   8.115  0.0502 -0.4865  0.0733
 8746SOL    HW127912   7.582   3.154   8.114  0.1143 -0.3192  1.4618
 8746SOL    HW227913   7.463   3.181   8.024  1.4353  0.2167 -0.1895
 8747SOL     OW27914   0.420   9.072   5.290 -0.2999  0.1399  0.1888
 8747SOL    HW127915   0.400   9.163   5.311 -0.6657  0.0737  0.1240
 8747SOL    HW227916   0.375   9.021   5.357 -0.6299 -0.0219 -0.1547
 8748SOL     OW27917   1.211   2.512   3.505  0.2083  0.6415 -0.0649
 8748SOL    HW127918   1.260   2.585   3.543 -0.1416  1.1618 -0.5914
 8748SOL    HW227919   1.231   2.516   3.412 -0.3630  0.4918 -0.1953
 8749SOL     OW27920   8.276   7.674   7.655  0.5699 -0.3781 -0.4910
 8749SOL    HW127921   8.246   7.764   7.666  0.2392 -0.1859 -2.5581
 8749SOL    HW227922   8.243   7.628   7.732 -1.4506  0.7476 -0.6170
 8750SOL     OW27923   4.663   6.489   1.099 -0.3791  0.0799  0.0611
 8750SOL    HW127924   4.716   6.443   1.164 -1.3081 -0.1748  0.6484
 8750SOL    HW227925   4.674   6.437   1.019  1.8943  1.1625 -0.4323
 8751SOL     OW27926   4.354   1.168   0.800 -0.3346  0.0915  0.5523
 8751SOL    HW127927   4.323   1.205   0.882 -2.5610 -0.8387  0.2001
 8751SOL    HW227928   4.430   1.115   0.824  0.1003  1.2161  1.7261
 8752SOL     OW27929   8.275   0.919   3.982  0.4565 -0.5114  0.3774
 8752SOL    HW127930   8.338   0.854   4.014 -0.6566 -2.1020 -0.4721
 8752SOL    HW227931   8.228   0.948   4.061  1.4902 -0.1301  0.8692
 8753SOL     OW27932   0.233   3.983   8.731 -0.1063 -0.7244 -0.3273
 8753SOL    HW127933   0.208   4.038   8.657 -1.1107 -1.3567 -0.4795
 8753SOL    HW227934   0.243   3.896   8.693  0.4540 -0.8423  0.0909
 8754SOL     OW27935   1.895   4.341   9.286 -0.6066  0.7151  0.2983
 8754SOL    HW127936   1.961   4.371   9.225 -1.0261  1.9882  0.4366
 8754SOL    HW227937   1.814   4.338   9.235 -0.4859 -0.7320  0.1552
 8755SOL     OW27938   6.162   8.312   4.174 -0.0123  0.0862  0.2460
 8755SOL    HW127939   6.109   8.262   4.111 -0.4443  1.9380 -0.9279
 8755SOL    HW227940   6.211   8.374   4.121  1.8651 -0.2184  1.5179
 8756SOL     OW27941   6.346   7.193   5.518  0.1512  0.0781  0.0746
 8756SOL    HW127942   6.327   7.106   5.484 -0.5451  0.1755  0.2083
 8756SOL    HW227943   6.383   7.177   5.605 -1.1368 -0.0521  0.6228
 8757SOL     OW27944   6.592   3.980   6.329  0.2774  0.6461  0.3607
 8757SOL    HW127945   6.558   4.019   6.249 -1.1787  0.2084  0.7346
 8757SOL    HW227946   6.671   4.030   6.348 -0.0887  1.6394 -0.6076
 8758SOL     OW27947   9.459   8.890   8.205 -0.9351 -0.0746 -0.2173
 8758SOL    HW127948   9.542   8.921   8.240 -0.9499  0.0558 -0.2964
 8758SOL    HW227949   9.402   8.967   8.208 -0.4900  0.3586 -1.9494
 8759SOL     OW27950   0.247   5.951   6.592 -0.7256  0.1209  0.6429
 8759SOL    HW127951   0.155   5.924   6.594 -0.7343  0.1567  0.7607
 8759SOL    HW227952   0.289   5.898   6.660 -0.3109 -1.1297 -0.5613
 8760SOL     OW27953   7.267   7.410   9.480 -0.3711 -0.1649  0.5390
 8760SOL    HW127954   7.324   7.465   9.426  1.5111 -1.9371  0.6402
 8760SOL    HW227955   7.321   7.382   9.553 -2.3941  0.7938  2.5368
 8761SOL     OW27956   2.337   1.540   5.596  0.2085  0.1440 -0.2270
 8761SOL    HW127957   2.419   1.491   5.583  0.2991 -0.0295  0.8867
 8761SOL    HW227958   2.352   1.590   5.677 -1.8243 -2.2040  1.7888
 8762SOL     OW27959   0.671   3.679   4.345  0.5198 -0.3748 -0.6928
 8762SOL    HW127960   0.617   3.720   4.278 -1.0481 -1.5171 -0.1717
 8762SOL    HW227961   0.709   3.753   4.394 -0.3527  0.4536 -1.2318
 8763SOL     OW27962   0.221   5.026   8.286  0.5343  1.0279  0.1171
 8763SOL    HW127963   0.240   4.937   8.315  2.5084  1.0637 -0.9204
 8763SOL    HW227964   0.219   5.078   8.366 -3.3929 -0.2652  1.1025
 8764SOL     OW27965   9.275   6.102   3.035  0.1002 -0.4921 -0.0656
 8764SOL    HW127966   9.244   6.190   3.059 -2.0235 -0.7516 -1.5488
 8764SOL    HW227967   9.265   6.051   3.115 -1.5524 -0.0665  0.0335
 8765SOL     OW27968   7.694   8.716   0.188  0.5038 -0.5002  0.3157
 8765SOL    HW127969   7.696   8.724   0.284  0.6842 -0.1924  0.2875
 8765SOL    HW227970   7.730   8.629   0.171  2.3704  0.1890  0.4352
 8766SOL     OW27971   7.392   3.958   5.368 -0.7271  0.3890  0.0575
 8766SOL    HW127972   7.432   4.038   5.402  0.7302 -0.2549 -0.0637
 8766SOL    HW227973   7.461   3.892   5.375 -1.5893 -0.6318 -0.7232
 8767SOL     OW27974   9.151   7.691   1.593 -0.3301 -0.2108  0.6207
 8767SOL    HW127975   9.068   7.740   1.594  0.9126  2.0482 -0.2758
 8767SOL    HW227976   9.148   7.641   1.512 -1.6462 -1.8207  1.5798
 8768SOL     OW27977   3.947   6.250   8.579  0.4079  0.0256  0.5362
 8768SOL    HW127978   3.963   6.163   8.615 -0.2278 -0.9945 -1.5262
 8768SOL    HW227979   3.855   6.249   8.554 -0.0792  1.9244  2.0319
 8769SOL     OW27980   3.808   9.348   7.232  0.6412 -0.8011 -0.1506
 8769SOL    HW127981   3.787   9.298   7.153 -0.0003  0.1910 -0.6322
 8769SOL    HW227982   3.888   9.395   7.211  0.9328 -1.1828  0.0978
 8770SOL     OW27983   3.027   8.060   3.445  0.9268 -0.1209  0.4302
 8770SOL    HW127984   3.004   8.123   3.376  0.6647  0.5406  1.1182
 8770SOL    HW227985   2.966   8.079   3.516 -0.3909 -2.3779 -0.0252
 8771SOL     OW27986   5.328   1.938   3.798 -0.1392  0.2443  0.5659
 8771SOL    HW127987   5.405   1.987   3.830  1.0170 -2.1827  1.7782
 8771SOL    HW227988   5.259   1.959   3.862 -0.5765  2.4576 -0.5408
 8772SOL     OW27989   5.560   3.962   1.102  0.1876  0.3962 -0.0234
 8772SOL    HW127990   5.504   3.964   1.179 -0.1692 -0.7248 -0.2336
 8772SOL    HW227991   5.503   3.931   1.032  1.1939 -1.3890 -0.1038
 8773SOL     OW27992   8.172   4.144   5.062  0.5008  0.0319  0.0442
 8773SOL    HW127993   8.146   4.232   5.037 -0.6062  0.1810  1.5163
 8773SOL    HW227994   8.223   4.156   5.142  0.4167 -0.6337  0.2047
 8774SOL     OW27995   4.447   0.697   6.157  0.1280  0.0740 -0.2946
 8774SOL    HW127996   4.538   0.669   6.167 -0.2649 -0.9581  0.6085
 8774SOL    HW227997   4.395   0.625   6.193 -0.9571  1.6495  1.5425
 8775SOL     OW27998   6.612   5.572   1.683 -0.0105  0.4353 -0.0952
 8775SOL    HW127999   6.517   5.569   1.675  0.1177 -0.0012 -1.8532
 8775SOL    HW228000   6.633   5.666   1.689 -0.5400  0.5238  0.5128
 8776SOL     OW28001   9.582   5.760   8.218 -0.2898  0.5370 -0.2431
 8776SOL    HW128002   9.583   5.679   8.268 -0.3715  0.5816 -0.1686
 8776SOL    HW228003   9.492   5.791   8.225 -0.1176  0.9474  0.2440
 8777SOL     OW28004   3.308   0.178   6.606  0.2736 -0.0488 -0.6725
 8777SOL    HW128005   3.292   0.090   6.574 -2.2600 -0.1756  0.7034
 8777SOL    HW228006   3.313   0.232   6.527 -0.4693 -1.0831 -1.4417
 8778SOL     OW28007   7.780   4.935   4.859 -0.5171  0.6957 -0.4942
 8778SOL    HW128008   7.792   5.014   4.911  1.3167 -0.4047  0.9106
 8778SOL    HW228009   7.865   4.920   4.818  0.0874 -1.8985  1.4189
 8779SOL     OW28010   5.571   5.145   0.416  0.3765  0.7548  0.2644
 8779SOL    HW128011   5.497   5.204   0.401 -1.1111 -0.6436  1.7382
 8779SOL    HW228012   5.647   5.193   0.382 -1.2271  2.0648 -1.7095
 8780SOL     OW28013   2.564   9.676   8.979 -0.2702  0.0849  0.0379
 8780SOL    HW128014   2.638   9.615   8.981  0.2161  0.6846  1.0170
 8780SOL    HW228015   2.497   9.634   9.033 -0.5550 -0.3216 -0.6120
 8781SOL     OW28016   3.024   5.952   3.552  0.1439  0.2616 -0.6836
 8781SOL    HW128017   3.095   5.900   3.515  0.8529  1.3298 -0.8599
 8781SOL    HW228018   2.957   5.888   3.576  1.1045 -0.7470 -0.6447
 8782SOL     OW28019   0.764   7.018   3.227  0.4306  0.3527  0.1591
 8782SOL    HW128020   0.772   7.098   3.279  3.3618  0.5707 -0.4726
 8782SOL    HW228021   0.767   6.947   3.291 -1.0017  0.6798  0.6239
 8783SOL     OW28022   0.947   9.247   5.993 -0.1372  0.2355  0.3451
 8783SOL    HW128023   0.938   9.296   5.911 -0.5947  1.4741  1.1153
 8783SOL    HW228024   1.033   9.272   6.026 -0.0184 -0.1458  0.3305
 8784SOL     OW28025   2.160   8.714   3.482  0.1331 -0.2422 -0.4837
 8784SOL    HW128026   2.209   8.781   3.433  0.1040 -1.3275 -2.0540
 8784SOL    HW228027   2.089   8.763   3.524  0.0421  0.7117 -1.6862
 8785SOL     OW28028   2.545   4.221   0.962 -0.1489  0.2154  0.3292
 8785SOL    HW128029   2.566   4.294   0.904 -0.5309 -0.8429 -1.2234
 8785SOL    HW228030   2.449   4.216   0.961 -0.1141 -0.8146 -0.3191
 8786SOL     OW28031   4.461   1.360   2.061  0.0757  0.1773 -0.7888
 8786SOL    HW128032   4.503   1.277   2.085 -1.0367 -0.4655 -0.9916
 8786SOL    HW228033   4.409   1.339   1.983 -2.4351  0.3593  0.7251
 8787SOL     OW28034   1.360   6.326   4.594 -0.3630 -0.0228 -1.0222
 8787SOL    HW128035   1.351   6.402   4.537  0.2599 -0.4809 -1.7445
 8787SOL    HW228036   1.448   6.293   4.577 -1.1629 -1.8189 -1.8755
 8788SOL     OW28037   1.796   3.403   4.825 -0.4888 -0.0295  0.3226
 8788SOL    HW128038   1.746   3.483   4.840 -0.7929 -0.1805  0.1256
 8788SOL    HW228039   1.750   3.336   4.875 -2.5228 -0.9207 -2.4717
 8789SOL     OW28040   7.565   5.303   0.119 -0.0206 -0.3749  0.1921
 8789SOL    HW128041   7.532   5.383   0.076  0.9078 -0.0343  0.0755
 8789SOL    HW228042   7.525   5.304   0.206 -1.4006 -0.7156 -0.4217
 8790SOL     OW28043   4.506   5.393   0.211  0.0668 -0.3621  0.1405
 8790SOL    HW128044   4.582   5.435   0.171 -0.0455 -1.8093 -1.6988
 8790SOL    HW228045   4.512   5.417   0.304  0.8954  2.2655 -0.5056
 8791SOL     OW28046   6.379   7.950   0.902  0.3471 -0.0987 -0.5757
 8791SOL    HW128047   6.400   7.982   0.814 -0.0040  0.9929 -0.2772
 8791SOL    HW228048   6.451   7.891   0.924  1.1984  0.7454 -1.0186
 8792SOL     OW28049   2.989   0.027   8.516 -0.3367  0.0049 -0.1718
 8792SOL    HW128050   2.986  -0.036   8.444  0.9043  0.1857 -0.3987
 8792SOL    HW228051   3.067   0.079   8.499 -1.6043  2.0048 -0.3045
 8793SOL     OW28052   1.406   6.924   7.055  0.0342  0.1308  0.2653
 8793SOL    HW128053   1.479   6.862   7.043  0.1839  0.4361 -0.4633
 8793SOL    HW228054   1.448   7.009   7.059 -0.2103  0.2286  0.8369
 8794SOL     OW28055   3.876   0.399   0.961 -0.1394  0.2362  0.3634
 8794SOL    HW128056   3.934   0.352   1.021  0.7798 -0.2823 -0.8947
 8794SOL    HW228057   3.846   0.332   0.899 -0.5707  0.8861 -0.1479
 8795SOL     OW28058   5.486   5.045   3.223 -0.0421 -0.0545 -0.3183
 8795SOL    HW128059   5.573   5.085   3.213 -0.8945  2.0911  0.2760
 8795SOL    HW228060   5.451   5.042   3.134  0.3166 -0.1728 -0.4593
 8796SOL     OW28061   4.724   5.892   8.425 -0.1667  0.7032  0.1961
 8796SOL    HW128062   4.731   5.881   8.330 -0.8550  2.5498 -0.1185
 8796SOL    HW228063   4.813   5.881   8.458  0.1478  0.4715 -0.7200
 8797SOL     OW28064   2.593   6.297   6.298  0.0851  0.6644 -0.2784
 8797SOL    HW128065   2.635   6.379   6.274  1.2253  0.3984  0.6890
 8797SOL    HW228066   2.644   6.230   6.252 -0.0264  0.4235 -0.0547
 8798SOL     OW28067   1.455   6.815   1.480 -0.0100 -0.3529 -0.3228
 8798SOL    HW128068   1.471   6.835   1.388 -0.2215  0.9133 -0.1083
 8798SOL    HW228069   1.531   6.764   1.508  0.7534  0.4792 -0.8319
 8799SOL     OW28070   3.262   6.753   7.736 -0.9887 -0.3495  0.2930
 8799SOL    HW128071   3.193   6.700   7.775  0.0007 -2.5675 -0.7627
 8799SOL    HW228072   3.340   6.732   7.789 -0.2649 -1.1754 -1.0427
 8800SOL     OW28073   4.108   6.365   3.070  0.0638  0.6779 -0.2016
 8800SOL    HW128074   4.097   6.356   2.975  1.3200 -0.0628 -0.3099
 8800SOL    HW228075   4.026   6.403   3.100  0.1945  2.3492 -1.7737
 8801SOL     OW28076   7.615   3.009   2.970 -0.1446  0.2794 -0.4878
 8801SOL    HW128077   7.625   3.029   3.063 -1.7618  1.0887 -0.4589
 8801SOL    HW228078   7.684   3.061   2.927  0.4271  0.1223  0.2298
 8802SOL     OW28079   8.924   8.109   3.599 -0.1503  0.1351 -0.2242
 8802SOL    HW128080   8.840   8.138   3.635  0.2797  0.0597  0.8707
 8802SOL    HW228081   8.908   8.019   3.571 -0.5559  0.2761 -0.4615
 8803SOL     OW28082   6.601   4.781   3.595  0.7457  0.8093  0.6617
 8803SOL    HW128083   6.690   4.788   3.629  1.2417 -2.8042  0.5366
 8803SOL    HW228084   6.610   4.784   3.500  0.8690 -0.1892  0.6291
 8804SOL     OW28085   2.911   6.913   2.122 -0.2382 -0.2647  0.0368
 8804SOL    HW128086   2.875   6.949   2.204 -0.9968 -0.8753 -0.0183
 8804SOL    HW228087   2.983   6.972   2.100  0.6585 -0.6716  1.6915
 8805SOL     OW28088   5.761   8.146   8.454 -0.1083 -0.5839 -0.0814
 8805SOL    HW128089   5.703   8.116   8.524  2.0277 -0.6896  1.7480
 8805SOL    HW228090   5.780   8.067   8.404 -0.4897 -0.8023  0.1126
 8806SOL     OW28091   7.740   0.535   2.259  0.0094  0.2526  0.1940
 8806SOL    HW128092   7.662   0.543   2.314  0.1049 -0.7347  0.4951
 8806SOL    HW228093   7.735   0.610   2.200  0.4702  1.9674  2.2086
 8807SOL     OW28094   9.196   8.430   9.398 -0.0187 -0.5755 -0.0090
 8807SOL    HW128095   9.105   8.418   9.370 -0.2495  0.7585  0.1231
 8807SOL    HW228096   9.245   8.443   9.317 -0.0684 -0.5135 -0.0287
 8808SOL     OW28097   1.938   0.729   6.736  0.3186 -0.3299 -0.1222
 8808SOL    HW128098   2.004   0.798   6.734  1.1644 -1.0971  0.3361
 8808SOL    HW228099   1.901   0.733   6.825 -0.2699  0.1009 -0.3788
 8809SOL     OW28100   3.295   4.955   0.832 -0.3762 -0.1528 -0.1185
 8809SOL    HW128101   3.234   4.972   0.903 -0.9077  0.0023 -0.6082
 8809SOL    HW228102   3.241   4.922   0.761  0.2652 -1.1323 -0.1662
 8810SOL     OW28103   8.823   6.917   8.745 -0.1970 -0.3053 -0.3288
 8810SOL    HW128104   8.736   6.913   8.785  0.2738  0.0328  0.7527
 8810SOL    HW228105   8.816   6.988   8.681 -0.7233 -0.3093 -0.2820
 8811SOL     OW28106   6.357   5.802   3.465  0.0921 -0.4578  0.0047
 8811SOL    HW128107   6.332   5.876   3.520  1.5435 -1.1508  1.7219
 8811SOL    HW228108   6.450   5.789   3.485  0.1227 -2.0728 -1.0523
 8812SOL     OW28109   2.884   7.435   2.056  0.6156  0.0603 -0.2352
 8812SOL    HW128110   2.894   7.361   2.117 -3.0347  0.2440  0.8152
 8812SOL    HW228111   2.935   7.409   1.979  0.8999 -2.7565  0.7635
 8813SOL     OW28112   7.162   1.073   0.795  0.1077  0.8787 -0.2782
 8813SOL    HW128113   7.127   1.161   0.812  2.7230  1.9929 -0.0777
 8813SOL    HW228114   7.257   1.086   0.791  0.4564 -1.3414 -3.7925
 8814SOL     OW28115   7.327   2.068   0.831 -0.3618 -0.2780  0.1552
 8814SOL    HW128116   7.273   2.145   0.850  0.8254 -0.0152  2.8322
 8814SOL    HW228117   7.280   1.995   0.871 -0.7536 -0.7632 -1.1296
 8815SOL     OW28118   5.459   6.188   7.564  0.7741  0.2144  0.1660
 8815SOL    HW128119   5.445   6.101   7.528  0.9166 -0.0905  0.8280
 8815SOL    HW228120   5.497   6.238   7.492 -1.5469  0.4273 -0.9847
 8816SOL     OW28121   1.368   3.932   3.268  0.2133  0.5065  0.4077
 8816SOL    HW128122   1.417   3.889   3.198 -0.4717  0.3751  0.0025
 8816SOL    HW228123   1.336   3.861   3.323  1.5309  0.6473  1.4054
 8817SOL     OW28124   3.157   7.918   5.318 -0.2933 -0.7052 -0.8176
 8817SOL    HW128125   3.222   7.885   5.379  0.4205  1.1508 -0.4908
 8817SOL    HW228126   3.206   7.935   5.237 -0.9630 -1.9039 -1.5002
 8818SOL     OW28127   5.847   1.746   4.956  0.4290  0.3045  0.3320
 8818SOL    HW128128   5.898   1.750   4.875 -0.8119  0.0383 -0.4912
 8818SOL    HW228129   5.821   1.837   4.972  0.2652  0.2900  0.1528
 8819SOL     OW28130   0.399   8.786   0.168 -0.4820 -0.1550 -0.3953
 8819SOL    HW128131   0.324   8.820   0.121 -1.4504  2.1765  2.5101
 8819SOL    HW228132   0.473   8.837   0.136 -1.0381  1.0184  0.1061
 8820SOL     OW28133   6.600   0.467   2.005 -0.5814 -0.1414  0.3260
 8820SOL    HW128134   6.651   0.408   1.950 -0.0732  1.1290 -0.5840
 8820SOL    HW228135   6.649   0.473   2.086  0.4062  0.5723 -0.3099
 8821SOL     OW28136   6.377   0.787   5.703 -0.3697  0.2371 -0.1953
 8821SOL    HW128137   6.386   0.767   5.796  0.8584 -1.0667 -0.5556
 8821SOL    HW228138   6.465   0.816   5.676 -0.1884 -1.2133 -1.3126
 8822SOL     OW28139   6.689   5.393   2.730 -0.1522  0.4194 -0.3346
 8822SOL    HW128140   6.693   5.347   2.646 -0.6581 -1.1003  0.4386
 8822SOL    HW228141   6.615   5.354   2.775  0.7729  0.4375  1.2710
 8823SOL     OW28142   6.947   2.837   1.471  0.2262  0.1083  0.2644
 8823SOL    HW128143   6.882   2.773   1.498  0.7149 -0.8573 -0.7171
 8823SOL    HW228144   6.984   2.870   1.552  0.5251 -1.4748  0.8130
 8824SOL     OW28145   2.099   8.197   9.064  0.0318 -0.4811  0.3888
 8824SOL    HW128146   2.155   8.275   9.074 -1.6634  0.8239  0.0814
 8824SOL    HW228147   2.010   8.230   9.070 -0.7865 -2.1632 -1.5221
 8825SOL     OW28148   4.026   5.646   0.040  0.0796 -0.0270 -0.0448
 8825SOL    HW128149   4.120   5.661   0.044  0.3190 -0.8061 -1.7268
 8825SOL    HW228150   3.994   5.710  -0.024 -0.2580 -0.7799 -0.6542
 8826SOL     OW28151   5.064   6.459   3.777 -0.3060 -0.6281 -0.2338
 8826SOL    HW128152   5.110   6.446   3.693  1.7253 -1.2503  0.9059
 8826SOL    HW228153   5.129   6.436   3.843 -1.6805  0.4171  1.5523
 8827SOL     OW28154   3.492   8.927   6.771  0.2651 -0.4565  0.5462
 8827SOL    HW128155   3.411   8.975   6.755 -1.6008 -3.5850 -0.2547
 8827SOL    HW228156   3.512   8.945   6.863 -2.1944 -0.6820  1.2083
 8828SOL     OW28157   7.837   2.765   6.787  0.1507 -0.0470 -0.2070
 8828SOL    HW128158   7.904   2.793   6.725  0.8467 -0.5310  0.3160
 8828SOL    HW228159   7.885   2.746   6.868 -0.6334 -0.2600  0.2200
 8829SOL     OW28160   5.487   1.135   4.104  0.4639 -0.3801  0.5305
 8829SOL    HW128161   5.435   1.141   4.024  2.1177 -1.0123 -0.6712
 8829SOL    HW228162   5.437   1.182   4.170  0.1536  2.3402 -1.4602
 8830SOL     OW28163   4.679   2.702   6.789 -0.0225  0.0672 -0.1730
 8830SOL    HW128164   4.693   2.778   6.845 -0.5886  0.5263 -0.6400
 8830SOL    HW228165   4.589   2.673   6.809  1.1970 -2.4719  2.3544
 8831SOL     OW28166   4.712   5.775   1.401 -0.3712 -0.0707 -0.0303
 8831SOL    HW128167   4.740   5.750   1.489  1.0803  0.4581 -0.3182
 8831SOL    HW228168   4.793   5.778   1.350 -1.2956 -1.5798 -1.7046
 8832SOL     OW28169   0.799   6.908   4.103  0.4564 -0.0733 -0.0446
 8832SOL    HW128170   0.812   6.868   4.189  0.2615  0.4670  0.2462
 8832SOL    HW228171   0.858   6.984   4.102  0.3718 -0.0065 -0.3383
 8833SOL     OW28172   1.606   0.526   6.899 -0.5721 -0.2597  0.3412
 8833SOL    HW128173   1.556   0.455   6.858 -0.3616 -1.0755  1.4628
 8833SOL    HW228174   1.638   0.489   6.981  0.9267  0.6149  0.1923
 8834SOL     OW28175   0.250   5.269   3.950  0.4741 -0.2863 -0.2488
 8834SOL    HW128176   0.272   5.312   3.868  0.6979 -0.5146 -0.3094
 8834SOL    HW228177   0.166   5.308   3.976  1.6737  1.7192  0.7772
 8835SOL     OW28178   4.368   2.648   2.311 -0.0611 -0.5840 -0.0457
 8835SOL    HW128179   4.376   2.573   2.251 -0.3836  1.0989 -2.3159
 8835SOL    HW228180   4.318   2.713   2.262  0.5889  1.3132  1.6666
 8836SOL     OW28181   7.078   5.953   0.191 -0.5886 -0.6720  0.1719
 8836SOL    HW128182   7.041   6.007   0.122 -1.9249 -1.2778  0.3831
 8836SOL    HW228183   7.097   6.015   0.262  0.5781 -0.0868 -0.6347
 8837SOL     OW28184   5.094   9.499   4.276  0.6522  0.0713 -0.0089
 8837SOL    HW128185   5.110   9.585   4.315 -2.5181  1.3645 -1.2829
 8837SOL    HW228186   5.180   9.473   4.241  2.0428  1.9424  1.7281
 8838SOL     OW28187   2.330   6.381   3.401  0.5237  0.1351 -0.0200
 8838SOL    HW128188   2.425   6.392   3.412  0.5030  0.9618 -0.6086
 8838SOL    HW228189   2.298   6.366   3.490  1.3359 -1.2972  0.0644
 8839SOL     OW28190   1.746   4.580   5.080  0.0222  0.1134 -0.7136
 8839SOL    HW128191   1.743   4.658   5.023 -0.4778  3.0536  2.9489
 8839SOL    HW228192   1.654   4.562   5.099  0.2345  0.5924  0.8417
 8840SOL     OW28193   7.961   5.361   9.023 -0.1469  1.1186  0.2190
 8840SOL    HW128194   7.895   5.308   9.068 -1.0530  1.0177 -1.1713
 8840SOL    HW228195   7.971   5.319   8.938  2.6677  0.3810  0.8198
 8841SOL     OW28196   7.591   5.599   1.977 -0.3211 -0.2938  0.0497
 8841SOL    HW128197   7.674   5.552   1.966  0.2084 -0.2201  2.8229
 8841SOL    HW228198   7.618   5.688   1.999 -1.0633 -0.3702  1.3960
 8842SOL     OW28199   3.457   6.729   7.945  0.7145  0.0452 -0.6098
 8842SOL    HW128200   3.418   6.761   8.026  1.1571 -2.0286  0.4895
 8842SOL    HW228201   3.549   6.754   7.952  1.1808 -1.7653  0.5071
 8843SOL     OW28202   2.137   1.098   5.779 -0.3254  0.0007 -0.2951
 8843SOL    HW128203   2.087   1.032   5.827  1.0124 -0.8855 -0.0802
 8843SOL    HW228204   2.092   1.181   5.799 -0.9615 -0.6009  0.8828
 8844SOL     OW28205   2.970   5.302   6.748  0.3344  0.4211 -0.6634
 8844SOL    HW128206   3.056   5.342   6.738  0.9417 -0.7007 -0.1242
 8844SOL    HW228207   2.951   5.265   6.662  1.4144 -1.2523 -0.2243
 8845SOL     OW28208   2.630   2.566   1.886 -0.3414  0.7686  0.1878
 8845SOL    HW128209   2.623   2.632   1.956  1.3756  2.3856 -1.0783
 8845SOL    HW228210   2.647   2.617   1.807  1.7103 -1.2222 -0.7379
 8846SOL     OW28211   7.378   6.735   4.723  0.2791 -0.3141  0.9808
 8846SOL    HW128212   7.313   6.746   4.653  0.1629 -2.4349  0.7014
 8846SOL    HW228213   7.354   6.801   4.788 -2.0689 -0.9197  0.8143
 8847SOL     OW28214   0.695   3.381   7.927  0.0549 -0.1917  0.2300
 8847SOL    HW128215   0.637   3.441   7.974 -1.3200  0.8805 -2.6259
 8847SOL    HW228216   0.641   3.304   7.908  0.1597 -0.0322 -0.7512
 8848SOL     OW28217   8.023   6.397   5.464 -0.1549 -0.2892 -0.2055
 8848SOL    HW128218   7.935   6.400   5.427 -0.0333 -0.7241 -0.5296
 8848SOL    HW228219   8.010   6.374   5.556 -0.4053  0.0523 -0.1538
 8849SOL     OW28220   3.994   8.116   3.736  0.1354 -0.2364 -0.7136
 8849SOL    HW128221   4.023   8.081   3.820  0.5998 -0.7759 -1.0906
 8849SOL    HW228222   3.979   8.209   3.753  1.5659 -0.0474 -0.3576
 8850SOL     OW28223   3.701   0.808   1.450 -0.6098 -0.4934  0.2040
 8850SOL    HW128224   3.769   0.773   1.508 -1.8232 -2.7063  0.3902
 8850SOL    HW228225   3.643   0.734   1.433 -1.9058  0.8356 -1.5286
 8851SOL     OW28226   4.708   6.543   8.266 -0.5791  0.2687  0.1066
 8851SOL    HW128227   4.797   6.562   8.293 -1.2135  2.3075  1.0131
 8851SOL    HW228228   4.702   6.579   8.177 -0.5573  0.3420  0.1348
 8852SOL     OW28229   4.486   7.536   7.950 -0.5289  0.5797  0.2281
 8852SOL    HW128230   4.451   7.461   7.998 -1.5299  0.5309 -0.5651
 8852SOL    HW228231   4.410   7.588   7.926  0.0514  1.1998 -0.3274
 8853SOL     OW28232   3.076   3.415   5.093 -0.2565 -0.6115  0.0401
 8853SOL    HW128233   3.099   3.496   5.048 -0.7456 -0.6010 -0.1948
 8853SOL    HW228234   3.072   3.439   5.186 -0.2731 -0.3972 -0.0167
 8854SOL     OW28235   1.868   1.488   3.522  0.4610  0.5747  0.1523
 8854SOL    HW128236   1.889   1.528   3.606 -0.7598  1.7943 -0.1001
 8854SOL    HW228237   1.953   1.475   3.480  0.9483  2.2052  0.5717
 8855SOL     OW28238   7.148   0.826   4.681 -0.2288  0.0802 -0.0889
 8855SOL    HW128239   7.197   0.829   4.763 -0.1511  0.8754 -0.1604
 8855SOL    HW228240   7.174   0.905   4.635 -4.3445  2.6097  1.4237
 8856SOL     OW28241   8.903   0.695   1.969  0.3364  0.1540  0.5707
 8856SOL    HW128242   8.969   0.636   1.933 -0.4327  0.1543 -0.9215
 8856SOL    HW228243   8.822   0.642   1.970 -0.3861  1.1599 -0.8751
 8857SOL     OW28244   4.817   5.066   1.607 -0.2027 -0.3061  0.1783
 8857SOL    HW128245   4.747   5.098   1.664 -0.6810 -2.0750  0.6640
 8857SOL    HW228246   4.835   5.138   1.548 -2.6622  0.1311 -0.1569
 8858SOL     OW28247   5.188   9.377   7.895  0.6008  0.1266  0.0398
 8858SOL    HW128248   5.265   9.335   7.934 -0.5931 -0.3776  1.9918
 8858SOL    HW228249   5.220   9.412   7.812  2.7261 -0.7896  0.3912
 8859SOL     OW28250   0.739   5.907   9.637 -0.2215 -0.1149  0.0915
 8859SOL    HW128251   0.824   5.869   9.614 -0.5726 -0.4957 -0.6044
 8859SOL    HW228252   0.708   5.948   9.557  0.7852  2.9708  1.1538
 8860SOL     OW28253   4.121   3.716   4.009  0.3143 -0.1511  0.2992
 8860SOL    HW128254   4.183   3.646   4.027  0.4112  0.2611  1.7066
 8860SOL    HW228255   4.075   3.688   3.930 -0.8171 -2.6173  1.7080
 8861SOL     OW28256   9.195   0.433   9.603  0.4029  0.1644  0.8601
 8861SOL    HW128257   9.147   0.504   9.561  1.9197  1.9366  1.9769
 8861SOL    HW228258   9.249   0.395   9.533  0.5785  1.0074  0.5298
 8862SOL     OW28259   5.404   6.888   5.272  0.2514 -0.1585  0.3366
 8862SOL    HW128260   5.309   6.896   5.266  0.0884  0.7090  2.8618
 8862SOL    HW228261   5.426   6.928   5.356  2.9226  0.0981 -0.3945
 8863SOL     OW28262   7.200   2.588   3.625  0.1792  0.3270  0.2802
 8863SOL    HW128263   7.125   2.621   3.576  0.9998 -2.1301 -2.9792
 8863SOL    HW228264   7.276   2.612   3.571  1.5373  0.2240  2.0217
 8864SOL     OW28265   7.399   1.913   7.933  1.0372 -0.6743  0.7090
 8864SOL    HW128266   7.439   1.936   7.849 -0.3187  0.8538  0.4344
 8864SOL    HW228267   7.335   1.845   7.911  1.2098 -0.8131  0.6336
 8865SOL     OW28268   6.405   7.262   8.503 -0.4645  0.0500 -0.1787
 8865SOL    HW128269   6.313   7.283   8.486  0.0025  0.9458 -1.7740
 8865SOL    HW228270   6.448   7.348   8.508  0.3852 -0.3753 -0.0057
 8866SOL     OW28271   9.462   2.311   2.646 -0.9728 -0.1021  0.1684
 8866SOL    HW128272   9.450   2.348   2.559 -0.3418  3.9592  1.6040
 8866SOL    HW228273   9.385   2.339   2.695  0.7464  1.7880  2.0199
 8867SOL     OW28274   4.134   9.511   6.902  0.3717 -0.1008 -0.2180
 8867SOL    HW128275   4.132   9.417   6.919  1.1417 -0.1000 -0.0676
 8867SOL    HW228276   4.048   9.531   6.865 -0.0140 -0.7546  0.2943
 8868SOL     OW28277   5.942   1.878   3.186 -0.7357  0.3630 -0.3141
 8868SOL    HW128278   5.892   1.847   3.261  1.2631  1.2874  1.4890
 8868SOL    HW228279   6.032   1.853   3.205  0.1381  2.5132 -1.3550
 8869SOL     OW28280   3.273   5.396   1.888  0.9724  0.1479 -0.4059
 8869SOL    HW128281   3.343   5.337   1.861  0.3902 -1.4083  1.2578
 8869SOL    HW228282   3.253   5.370   1.978 -0.6476  1.6168 -0.2767
 8870SOL     OW28283   4.392   8.128   8.360  0.3387 -0.2963 -0.1639
 8870SOL    HW128284   4.382   8.212   8.317  0.6729  0.1370  0.5826
 8870SOL    HW228285   4.468   8.139   8.417  1.2776 -1.5521 -1.1161
 8871SOL     OW28286   6.978   8.703   8.669 -0.3733 -0.0521  0.4113
 8871SOL    HW128287   6.995   8.637   8.736 -0.9820  0.0064  0.6351
 8871SOL    HW228288   6.914   8.662   8.611  1.3751 -0.7319 -1.1064
 8872SOL     OW28289   0.644   5.300   0.833 -0.3186  0.0053  0.0345
 8872SOL    HW128290   0.549   5.296   0.823 -0.2125 -0.8507 -0.8000
 8872SOL    HW228291   0.678   5.246   0.761  0.7561 -0.8687  1.1597
 8873SOL     OW28292   4.701   1.612   3.194  0.3158 -0.1100  0.2969
 8873SOL    HW128293   4.752   1.642   3.269  1.0151 -0.6506  0.0481
 8873SOL    HW228294   4.688   1.690   3.140 -3.5831  1.2902  2.7896
 8874SOL     OW28295   4.052   0.194   4.923 -0.1239  0.3541  0.1340
 8874SOL    HW128296   4.017   0.131   4.859 -0.7900  0.1381  0.6963
 8874SOL    HW228297   4.142   0.165   4.938  0.8708  1.8007 -2.4550
 8875SOL     OW28298   2.828   2.268   8.835 -0.0817  0.2996  0.0577
 8875SOL    HW128299   2.837   2.267   8.739 -0.5301  0.5158  0.0086
 8875SOL    HW228300   2.903   2.218   8.867 -0.0604  0.0187 -0.4192
 8876SOL     OW28301   6.566   1.520   3.662 -0.6826 -0.1434  0.1030
 8876SOL    HW128302   6.542   1.433   3.696  1.7680 -1.0517 -0.3159
 8876SOL    HW228303   6.535   1.581   3.730  0.2806 -1.5973  1.9430
 8877SOL     OW28304   6.596   1.915   3.043  0.1205 -0.0891 -0.2272
 8877SOL    HW128305   6.586   2.010   3.055  2.6218  0.4020 -1.5061
 8877SOL    HW228306   6.624   1.884   3.129  0.5565  0.5574 -0.1225
 8878SOL     OW28307   8.727   2.624   8.514  0.3340 -0.4642  0.1444
 8878SOL    HW128308   8.779   2.631   8.594  1.1443 -2.0371 -0.1829
 8878SOL    HW228309   8.727   2.530   8.494 -2.4475 -0.5189 -0.0286
 8879SOL     OW28310   1.877   2.008   5.961  0.4582 -0.0586  0.0570
 8879SOL    HW128311   1.948   1.946   5.976  1.2166  0.9441  0.7718
 8879SOL    HW228312   1.811   1.985   6.026 -0.0424 -1.2030 -0.8247
 8880SOL     OW28313   3.684   5.520   0.683 -0.8603 -0.2678 -0.5769
 8880SOL    HW128314   3.740   5.513   0.606 -1.1907 -0.7957 -0.7753
 8880SOL    HW228315   3.743   5.551   0.752 -0.1910 -1.3290 -0.6488
 8881SOL     OW28316   3.787   6.622   1.240 -0.2438 -0.9108  0.2777
 8881SOL    HW128317   3.821   6.640   1.327 -0.0555 -0.2031  0.0654
 8881SOL    HW228318   3.781   6.527   1.235 -0.3252 -0.9473  1.0865
 8882SOL     OW28319   2.927   8.659   0.771  0.4658 -0.1751 -0.0854
 8882SOL    HW128320   2.870   8.617   0.836  0.5319 -0.7110 -0.3687
 8882SOL    HW228321   2.961   8.737   0.815 -1.2337  0.6861 -0.2152
 8883SOL     OW28322   5.532   6.979   1.125  0.2495 -0.0604  0.5766
 8883SOL    HW128323   5.558   7.053   1.180  1.4867 -0.1625  0.1614
 8883SOL    HW228324   5.615   6.937   1.102 -0.3925 -1.1193  0.1732
 8884SOL     OW28325   1.232   0.109   2.866 -0.1291  0.1902  0.4866
 8884SOL    HW128326   1.159   0.067   2.821  0.0765  0.9396 -0.5919
 8884SOL    HW228327   1.222   0.202   2.846  0.1320  0.5199  1.7939
 8885SOL     OW28328   9.556   2.145   5.266 -0.2875 -0.0041  0.3960
 8885SOL    HW128329   9.481   2.176   5.215 -0.9017 -0.8190  0.7779
 8885SOL    HW228330   9.606   2.092   5.205 -0.2745  0.1556  0.2676
 8886SOL     OW28331   5.992   5.474   3.790 -0.1339  0.2292  0.4637
 8886SOL    HW128332   5.920   5.413   3.774 -1.2318  1.6127 -0.0577
 8886SOL    HW228333   5.950   5.556   3.814  1.1489  1.7020 -1.9166
 8887SOL     OW28334   1.838   5.326   1.074 -0.5653  0.2962  1.0245
 8887SOL    HW128335   1.898   5.258   1.043 -0.4268  0.3669  1.1374
 8887SOL    HW228336   1.867   5.406   1.030 -1.7208 -0.0075 -0.3872
 8888SOL     OW28337   0.411   3.440   1.441  0.4847 -0.0441  0.0778
 8888SOL    HW128338   0.469   3.479   1.507 -1.5273  0.9037  1.3848
 8888SOL    HW228339   0.405   3.348   1.465 -1.1085  0.5009  1.9915
 8889SOL     OW28340   0.154   6.190   6.470  0.0072 -0.0347  0.0125
 8889SOL    HW128341   0.198   6.109   6.493  0.1019  0.3375  1.2441
 8889SOL    HW228342   0.222   6.244   6.429  0.5405  0.2603  1.2402
 8890SOL     OW28343   5.159   5.341   9.556  0.1325  0.5563 -0.0146
 8890SOL    HW128344   5.211   5.262   9.572  1.2672  1.2742 -0.0478
 8890SOL    HW228345   5.199   5.381   9.479 -0.8853  0.7938 -0.4293
 8891SOL     OW28346   2.215   3.559   5.513 -0.2925 -0.5325 -0.2696
 8891SOL    HW128347   2.247   3.558   5.423  1.5861 -2.2272  0.3341
 8891SOL    HW228348   2.153   3.486   5.517 -1.1192  0.1485 -0.4027
 8892SOL     OW28349   9.647   0.610   5.989 -0.6152 -0.0489  0.2247
 8892SOL    HW128350   9.631   0.528   5.942 -1.2530 -0.9795  1.9510
 8892SOL    HW228351   9.735   0.637   5.963 -0.4272 -1.2420 -0.4350
 8893SOL     OW28352   4.253   6.787   1.191  0.1676  0.6060  0.3979
 8893SOL    HW128353   4.218   6.738   1.117 -0.4172 -1.1553  1.7797
 8893SOL    HW228354   4.325   6.838   1.154 -0.4353  0.1725 -1.4614
 8894SOL     OW28355   3.405   7.450   0.885  0.4369 -0.2085 -0.3472
 8894SOL    HW128356   3.385   7.543   0.892 -0.2900 -0.4595  1.1566
 8894SOL    HW228357   3.406   7.433   0.791 -0.9842  0.9860 -0.6059
 8895SOL     OW28358   1.079   8.336   1.589  0.0279  0.1621  0.3492
 8895SOL    HW128359   1.081   8.373   1.501 -0.0715  0.4828  0.4821
 8895SOL    HW228360   1.079   8.412   1.648 -4.1999  0.1918  0.6185
 8896SOL     OW28361   3.922   6.385   6.754 -0.3586 -0.7146  0.3031
 8896SOL    HW128362   3.857   6.372   6.685 -0.6909 -0.0934  0.5005
 8896SOL    HW228363   3.872   6.411   6.831  0.1540  0.1528  0.3536
 8897SOL     OW28364   3.648   7.937   6.433  0.2747 -0.1632  0.1964
 8897SOL    HW128365   3.581   7.875   6.460  2.4642 -1.2833  3.7343
 8897SOL    HW228366   3.637   8.012   6.492  1.2766  0.2011 -0.0538
 8898SOL     OW28367   0.556   6.108   9.199  0.4853  0.3255 -0.0744
 8898SOL    HW128368   0.490   6.050   9.238  2.2406 -0.4814  1.8726
 8898SOL    HW228369   0.509   6.154   9.129 -1.5378 -1.8363 -0.2563
 8899SOL     OW28370   8.199   6.527   3.731 -0.3017 -0.0203  0.4397
 8899SOL    HW128371   8.112   6.565   3.715 -0.0521  0.8777  1.1421
 8899SOL    HW228372   8.184   6.457   3.795 -0.3741  0.8619  1.4110
 8900SOL     OW28373   8.004   4.118   1.190 -0.2339 -0.0986  0.4007
 8900SOL    HW128374   7.913   4.144   1.207 -0.0899  0.6733  0.0318
 8900SOL    HW228375   8.056   4.193   1.220  0.1828  0.1321 -0.8657
 8901SOL     OW28376   6.992   3.552   6.974  0.5111  0.1899  0.6010
 8901SOL    HW128377   6.957   3.600   7.049  0.0784 -0.5485  0.8800
 8901SOL    HW228378   7.082   3.585   6.965 -0.3579  2.4298 -0.4152
 8902SOL     OW28379   4.530   7.384   4.273  0.3728 -0.3874 -0.5042
 8902SOL    HW128380   4.592   7.377   4.345 -0.9312 -1.6313  0.5607
 8902SOL    HW228381   4.547   7.307   4.218  0.2475 -0.3374 -0.6150
 8903SOL     OW28382   6.114   5.147   1.425  0.2961  0.3062  0.1482
 8903SOL    HW128383   6.201   5.152   1.464  0.1067 -0.7326  0.7327
 8903SOL    HW228384   6.128   5.158   1.331  1.1001 -0.3278  0.1923
 8904SOL     OW28385   3.517   2.357   5.678  0.1151 -0.1740  0.6857
 8904SOL    HW128386   3.497   2.271   5.644  1.0987  0.1386 -0.7836
 8904SOL    HW228387   3.493   2.418   5.608  0.4452  0.6587  1.2669
 8905SOL     OW28388   3.372   2.718   6.564 -0.3361 -0.1832 -0.7110
 8905SOL    HW128389   3.419   2.802   6.559 -0.5196 -0.0272  0.0162
 8905SOL    HW228390   3.428   2.663   6.619 -1.3496  0.2755  0.8786
 8906SOL     OW28391   3.969   0.064   5.313 -0.1079  0.0758  0.6115
 8906SOL    HW128392   3.987   0.146   5.360 -0.3557  0.6361 -0.2514
 8906SOL    HW228393   3.888   0.081   5.266 -0.4031 -0.8345  0.7806
 8907SOL     OW28394   2.413   7.484   4.345 -0.1854 -0.3999 -0.1846
 8907SOL    HW128395   2.414   7.558   4.284 -0.6544  0.1585  0.4779
 8907SOL    HW228396   2.444   7.520   4.428 -0.2030 -0.9967  0.0903
 8908SOL     OW28397   4.506   2.071   7.227 -0.3002 -0.2717 -0.1916
 8908SOL    HW128398   4.416   2.101   7.225 -0.0710  0.4762  0.3790
 8908SOL    HW228399   4.552   2.124   7.162 -0.2386 -0.5337 -0.3630
 8909SOL     OW28400   1.355   2.288   7.307 -0.3049 -0.0503  0.3136
 8909SOL    HW128401   1.289   2.283   7.237 -0.0765 -1.4297  0.1631
 8909SOL    HW228402   1.350   2.378   7.339 -2.4977 -0.2049  0.5426
 8910SOL     OW28403   9.539   7.001   6.256 -0.4624 -0.0212 -0.4630
 8910SOL    HW128404   9.471   6.939   6.230 -1.9917  2.0956 -1.7742
 8910SOL    HW228405   9.612   6.945   6.284 -2.4486 -2.3762  0.3840
 8911SOL     OW28406   8.492   3.899   0.444  0.8296 -0.0706  0.3474
 8911SOL    HW128407   8.438   3.913   0.522  0.2684  0.2625 -0.0942
 8911SOL    HW228408   8.569   3.953   0.458  1.3664 -1.0522  1.2804
 8912SOL     OW28409   7.791   8.914   4.324 -0.0527 -0.0762  0.6150
 8912SOL    HW128410   7.745   8.922   4.407 -0.1534 -0.3334  0.5859
 8912SOL    HW228411   7.733   8.958   4.261  0.7290  1.4513  0.9254
 8913SOL     OW28412   6.257   1.498   0.417 -0.4036  0.9107  0.2106
 8913SOL    HW128413   6.201   1.512   0.493 -0.9239  0.2760 -0.0486
 8913SOL    HW228414   6.323   1.567   0.423 -0.9205  1.3648  0.7883
 8914SOL     OW28415   3.813   9.044   4.008  0.0024  0.3742  0.1353
 8914SOL    HW128416   3.831   9.013   4.097  0.1036  0.0304 -0.0032
 8914SOL    HW228417   3.722   9.071   4.010 -1.0416 -2.6700 -0.4814
 8915SOL     OW28418   4.312   4.894   8.812 -0.0942  0.4155 -0.5007
 8915SOL    HW128419   4.238   4.951   8.788 -1.8905 -2.1722 -1.6037
 8915SOL    HW228420   4.361   4.884   8.731  1.1874  1.6265  0.0855
 8916SOL     OW28421   3.654   4.481   5.172 -0.4004 -0.1948 -0.3385
 8916SOL    HW128422   3.721   4.442   5.229 -0.2088 -0.4373 -0.7285
 8916SOL    HW228423   3.571   4.456   5.213 -0.2494  0.8952  0.6654
 8917SOL     OW28424   8.727   5.702   6.888  0.4162  0.4235 -0.0766
 8917SOL    HW128425   8.710   5.678   6.979 -0.4450  1.6240  0.1037
 8917SOL    HW228426   8.641   5.711   6.848  0.7891 -0.6387 -1.1922
 8918SOL     OW28427   5.203   3.585   3.876  0.4110  0.4995 -0.3956
 8918SOL    HW128428   5.268   3.553   3.939  2.7044  2.0570 -1.8144
 8918SOL    HW228429   5.189   3.512   3.816  0.2086 -0.1223  0.3980
 8919SOL     OW28430   0.359   4.675   4.153 -0.2537  0.0112 -0.1638
 8919SOL    HW128431   0.333   4.747   4.211 -1.1387 -0.4266 -0.0019
 8919SOL    HW228432   0.420   4.624   4.205 -1.7462 -0.9089  0.7744
 8920SOL     OW28433   8.719   2.249   9.156  0.2513  0.3611 -0.4404
 8920SOL    HW128434   8.649   2.192   9.125  0.0650 -0.3462  1.1745
 8920SOL    HW228435   8.796   2.192   9.158  0.2235  0.3410  0.4952
 8921SOL     OW28436   7.338   9.380   0.096 -0.2710  0.1352 -0.0638
 8921SOL    HW128437   7.244   9.394   0.105 -0.4441  1.0124 -2.4653
 8921SOL    HW228438   7.349   9.285   0.101 -1.4432 -0.0478 -0.6638
 8922SOL     OW28439   3.036   6.707   2.408 -0.1269 -0.1110 -0.6644
 8922SOL    HW128440   3.086   6.748   2.479 -0.0066  0.2805 -0.9725
 8922SOL    HW228441   2.950   6.690   2.446  0.1635 -0.5546 -0.2079
 8923SOL     OW28442   2.871   1.838   1.435 -0.3112 -0.6847  0.2556
 8923SOL    HW128443   2.964   1.829   1.458 -0.0348 -2.4660 -1.2343
 8923SOL    HW228444   2.827   1.770   1.486 -0.9167  0.5339  1.3929
 8924SOL     OW28445   6.218   3.930   1.227  0.1784  0.3280  0.7424
 8924SOL    HW128446   6.297   3.903   1.275 -0.1388 -0.7814  0.6732
 8924SOL    HW228447   6.179   3.999   1.281  1.8717  1.8385  0.1353
 8925SOL     OW28448   7.759   8.681   0.468  0.3138 -0.9476 -0.4859
 8925SOL    HW128449   7.847   8.699   0.434  0.2240  2.7182  0.8173
 8925SOL    HW228450   7.767   8.596   0.511  3.6868 -0.0634  0.9355
 8926SOL     OW28451   4.149   2.218   1.690  0.3857 -0.5608  0.2755
 8926SOL    HW128452   4.103   2.256   1.615  0.0261  0.2209  0.8859
 8926SOL    HW228453   4.234   2.190   1.655  1.2373  2.0374  0.0854
 8927SOL     OW28454   6.521   9.545   5.858  0.2388  0.1574 -0.0802
 8927SOL    HW128455   6.572   9.506   5.928  0.2649 -1.4142 -0.9239
 8927SOL    HW228456   6.582   9.602   5.812  0.0302  1.8129  1.5721
 8928SOL     OW28457   0.496   6.038   2.457 -0.0269  0.1239 -0.6049
 8928SOL    HW128458   0.407   6.005   2.472 -0.1097  0.5456 -0.1411
 8928SOL    HW228459   0.550   5.991   2.520 -0.8023  3.9900  3.4648
 8929SOL     OW28460   4.015   3.079   4.808 -0.1894 -0.0033 -0.2113
 8929SOL    HW128461   4.091   3.032   4.776  0.1035 -0.0834  0.5726
 8929SOL    HW228462   4.050   3.144   4.868 -0.5659  1.4317 -1.4989
 8930SOL     OW28463   7.266   8.621   6.099 -0.3040 -0.5835  0.4484
 8930SOL    HW128464   7.289   8.623   6.006 -1.4752 -1.5854  0.1145
 8930SOL    HW228465   7.293   8.707   6.131 -0.2925 -0.0404 -0.9188
 8931SOL     OW28466   3.384   8.240   7.832 -0.1796  0.1117  0.5012
 8931SOL    HW128467   3.342   8.186   7.764  1.0011 -0.0095 -0.1553
 8931SOL    HW228468   3.311   8.278   7.880 -1.0554  0.1776 -0.8219
 8932SOL     OW28469   8.644   1.846   4.584  0.1424 -0.2350  0.2039
 8932SOL    HW128470   8.657   1.794   4.663  0.3835  1.0603  1.0515
 8932SOL    HW228471   8.649   1.783   4.513  0.1452 -1.4020  1.2056
 8933SOL     OW28472   9.047   9.420   9.162  0.2108  0.2914  0.1300
 8933SOL    HW128473   8.987   9.444   9.092  2.2343  2.0144 -1.1589
 8933SOL    HW228474   9.010   9.459   9.241 -0.3156  1.4242 -0.6484
 8934SOL     OW28475   2.514   0.047   0.825 -0.4351  0.4098 -0.4896
 8934SOL    HW128476   2.503   0.078   0.735 -1.2006  2.3366  0.2132
 8934SOL    HW228477   2.437  -0.007   0.842 -0.6953  0.6937 -0.7536
 8935SOL     OW28478   6.848   1.826   5.171 -0.0735 -0.3652 -0.1575
 8935SOL    HW128479   6.776   1.886   5.153 -0.1060 -0.1970  0.5090
 8935SOL    HW228480   6.914   1.879   5.216  0.2336 -0.6461 -0.2682
 8936SOL     OW28481   3.820   3.873   2.824 -0.6066  0.2731 -0.7475
 8936SOL    HW128482   3.844   3.820   2.900  0.3978 -0.2164 -1.3716
 8936SOL    HW228483   3.780   3.811   2.763 -1.2818  0.6362 -0.6804
 8937SOL     OW28484   0.559   2.922   2.051  0.2958 -0.5002 -0.2831
 8937SOL    HW128485   0.635   2.922   1.993 -0.6302 -2.0001 -1.5860
 8937SOL    HW228486   0.513   3.003   2.030  0.5421 -0.5105 -0.8910
 8938SOL     OW28487   6.667   0.703   4.907  0.4007  0.2870 -0.2983
 8938SOL    HW128488   6.616   0.760   4.965  0.6705 -0.1862  0.4075
 8938SOL    HW228489   6.757   0.735   4.916  0.4059  0.3930 -0.6835
 8939SOL     OW28490   2.624   3.407   6.300 -0.4664 -0.7620 -0.0315
 8939SOL    HW128491   2.578   3.489   6.315 -1.1253 -1.3739  1.4852
 8939SOL    HW228492   2.570   3.341   6.342  0.1678 -1.9515 -1.0227
 8940SOL     OW28493   4.735   7.667   5.604 -0.2187 -0.0263 -0.0840
 8940SOL    HW128494   4.660   7.654   5.547 -0.9687  1.5295  0.5077
 8940SOL    HW228495   4.716   7.747   5.653  0.4019 -1.2316  2.3111
 8941SOL     OW28496   0.251   4.181   5.549 -0.2543  0.4456 -0.6457
 8941SOL    HW128497   0.259   4.205   5.457 -2.1427 -1.6555 -1.4552
 8941SOL    HW228498   0.173   4.227   5.579 -1.2647 -0.9972 -0.9422
 8942SOL     OW28499   2.439   1.529   4.553 -0.1166 -0.2294  0.0584
 8942SOL    HW128500   2.480   1.518   4.467 -0.2746  3.1662 -0.6146
 8942SOL    HW228501   2.346   1.514   4.538 -0.0838 -0.0953 -0.2895
 8943SOL     OW28502   6.305   1.342   6.515  0.7117  0.0877  0.0950
 8943SOL    HW128503   6.304   1.436   6.495  1.2499 -0.0324 -0.5532
 8943SOL    HW228504   6.216   1.312   6.494  1.0185  0.1338 -1.4021
 8944SOL     OW28505   7.104   9.103   2.009  0.9438  0.5081  0.3970
 8944SOL    HW128506   7.137   9.171   1.951  0.4951 -0.7094 -1.3424
 8944SOL    HW228507   7.182   9.066   2.050  1.3371  0.8104 -0.0786
 8945SOL     OW28508   8.441   3.596   1.189 -0.4398  0.3390 -0.6924
 8945SOL    HW128509   8.463   3.628   1.276 -2.8354  3.7189 -1.1113
 8945SOL    HW228510   8.525   3.583   1.145  0.7646  0.2216  1.5403
 8946SOL     OW28511   1.920   4.091   1.355 -0.5700 -0.8737  0.2509
 8946SOL    HW128512   1.833   4.061   1.330 -0.7568  0.2789 -0.5176
 8946SOL    HW228513   1.948   4.148   1.284  0.9682 -1.4858  0.3146
 8947SOL     OW28514   4.538   0.544   6.536 -0.1203 -0.0226  0.0181
 8947SOL    HW128515   4.519   0.490   6.612  0.8969  0.1934  0.4306
 8947SOL    HW228516   4.508   0.492   6.461 -0.4255 -0.5551  0.5091
 8948SOL     OW28517   8.638   2.943   7.346  0.2187 -0.3447  0.1200
 8948SOL    HW128518   8.650   2.936   7.251 -0.1066 -2.1343  0.1634
 8948SOL    HW228519   8.716   2.989   7.377  1.1272 -1.1683 -0.8534
 8949SOL     OW28520   3.631   7.137   1.751  0.2078 -0.4631 -0.5898
 8949SOL    HW128521   3.701   7.202   1.753  0.2707 -0.4271  3.2503
 8949SOL    HW228522   3.675   7.055   1.729  0.9152  0.0463 -1.1193
 8950SOL     OW28523   4.583   0.384   1.681 -0.2234  0.5519 -0.5792
 8950SOL    HW128524   4.550   0.437   1.609 -0.0339  0.9817 -0.3571
 8950SOL    HW228525   4.666   0.348   1.648 -0.0111  0.9496 -0.4952
 8951SOL     OW28526   5.421   3.007   8.390 -0.2085  0.0271  0.0704
 8951SOL    HW128527   5.380   2.978   8.471 -0.4119  1.2585  0.4422
 8951SOL    HW228528   5.501   2.955   8.383 -0.6376 -0.7229  0.5841
 8952SOL     OW28529   7.971   7.352   1.106 -0.3526  0.0350  0.3144
 8952SOL    HW128530   8.030   7.378   1.035  1.0399 -1.4874  0.8492
 8952SOL    HW228531   7.934   7.434   1.138  0.1519  0.8826 -1.1642
 8953SOL     OW28532   1.428   0.498   6.130  0.0772 -0.0020 -0.0247
 8953SOL    HW128533   1.389   0.479   6.215  1.8462  0.3952  0.8999
 8953SOL    HW228534   1.483   0.422   6.111  2.5716  1.4844  0.9473
 8954SOL     OW28535   0.911   4.478   8.784  0.0409  0.2275 -0.5412
 8954SOL    HW128536   0.934   4.487   8.692 -0.9705 -2.0398 -1.1136
 8954SOL    HW228537   0.816   4.490   8.785 -0.1980 -1.4385 -0.1287
 8955SOL     OW28538   6.836   2.201   5.168 -0.3121  0.0802  0.2121
 8955SOL    HW128539   6.839   2.267   5.237  0.0176  0.7472 -0.4319
 8955SOL    HW228540   6.919   2.210   5.121 -1.4312  1.1881 -1.6772
 8956SOL     OW28541   8.791   0.615   7.595 -0.1729 -0.3318 -0.0028
 8956SOL    HW128542   8.794   0.587   7.503  1.1990 -0.9758  0.2087
 8956SOL    HW228543   8.762   0.706   7.591  2.7989  0.7120 -1.3942
 8957SOL     OW28544   4.050   4.683   3.912 -0.5907  0.0639  0.0804
 8957SOL    HW128545   4.076   4.704   4.002  1.4057 -0.7407 -0.2589
 8957SOL    HW228546   4.131   4.655   3.870 -1.3426  1.0627 -2.1807
 8958SOL     OW28547   4.397   4.160   6.495  0.7089 -0.0941 -0.5462
 8958SOL    HW128548   4.355   4.078   6.468  0.8574 -0.5495  0.5633
 8958SOL    HW228549   4.382   4.165   6.589  1.1511  0.9079 -0.5129
 8959SOL     OW28550   0.721   7.889   8.902 -0.0178 -0.2687 -0.2310
 8959SOL    HW128551   0.661   7.821   8.933  0.0262 -1.0773 -1.8174
 8959SOL    HW228552   0.750   7.858   8.816  1.2488  1.0007 -0.2933
 8960SOL     OW28553   1.274   8.580   4.435 -0.1765 -0.2394 -0.4504
 8960SOL    HW128554   1.229   8.561   4.353  1.0537  1.3673 -1.5538
 8960SOL    HW228555   1.350   8.522   4.434 -1.3462 -1.9087  0.7332
 8961SOL     OW28556   5.630   6.753   7.752  0.2612 -0.5558  0.0553
 8961SOL    HW128557   5.675   6.673   7.724 -2.3384 -1.9328 -0.4722
 8961SOL    HW228558   5.600   6.793   7.671 -0.9396 -0.5977  0.4700
 8962SOL     OW28559   2.742   1.850   9.332 -0.2847  0.0973  0.6618
 8962SOL    HW128560   2.808   1.789   9.297 -0.5430  0.6612 -0.8937
 8962SOL    HW228561   2.659   1.817   9.299 -0.6539  0.1116  1.5656
 8963SOL     OW28562   7.918   7.496   0.459 -0.2763  0.2568  0.2789
 8963SOL    HW128563   7.921   7.590   0.441  1.7620  0.8641  3.0649
 8963SOL    HW228564   8.008   7.466   0.445 -1.0296 -1.5018 -1.2215
 8964SOL     OW28565   9.162   4.471   8.842  0.3045  0.6457 -0.1136
 8964SOL    HW128566   9.208   4.406   8.790 -0.0661 -0.1593  0.5412
 8964SOL    HW228567   9.130   4.535   8.779  1.9934  1.0381 -0.6243
 8965SOL     OW28568   2.079   6.914   4.248  0.1418  0.0772 -0.6897
 8965SOL    HW128569   2.037   6.988   4.203  0.3028 -0.3323 -1.5308
 8965SOL    HW228570   2.142   6.955   4.307 -0.4659  0.6448 -0.4189
 8966SOL     OW28571   5.334   3.081   6.042  0.5123  0.3979  0.9095
 8966SOL    HW128572   5.314   3.169   6.076  0.0476 -0.5702  3.3856
 8966SOL    HW228573   5.248   3.042   6.028  0.6113 -0.7150  2.9838
 8967SOL     OW28574   2.545   6.796   3.828  0.7080 -0.6212  0.0225
 8967SOL    HW128575   2.530   6.796   3.734  1.1629  0.2672 -0.0579
 8967SOL    HW228576   2.533   6.888   3.854  0.8479 -0.8144  0.7847
 8968SOL     OW28577   7.148   8.691   9.676 -0.1796 -0.2767 -0.2058
 8968SOL    HW128578   7.122   8.662   9.763  0.5449  0.1422  0.1659
 8968SOL    HW228579   7.239   8.662   9.668  1.7123  4.2988  1.4109
 8969SOL     OW28580   2.203   1.602   6.154  0.1380  0.2057  0.4833
 8969SOL    HW128581   2.130   1.566   6.104  0.4019 -0.6963  0.7192
 8969SOL    HW228582   2.266   1.530   6.159  1.2845  1.1353 -0.1622
 8970SOL     OW28583   2.645   2.210   7.442 -0.1174 -0.2917 -0.0066
 8970SOL    HW128584   2.600   2.282   7.398 -2.2572 -1.6251 -0.1745
 8970SOL    HW228585   2.697   2.168   7.373  0.2767  0.4354 -0.1545
 8971SOL     OW28586   7.678   7.773   8.418 -0.2395 -0.2491  0.6918
 8971SOL    HW128587   7.743   7.796   8.485 -0.7543  1.1357  0.7606
 8971SOL    HW228588   7.598   7.754   8.467 -0.3435 -0.2463  0.5259
 8972SOL     OW28589   9.574   6.540   1.554  0.5934  0.5375  0.0013
 8972SOL    HW128590   9.578   6.517   1.647  1.0389 -0.0663 -0.1566
 8972SOL    HW228591   9.624   6.471   1.511  1.4644  1.4978 -0.5672
 8973SOL     OW28592   0.275   5.668   3.945 -0.2248  0.1981 -0.3626
 8973SOL    HW128593   0.325   5.614   4.006 -0.6407  1.2361  0.9279
 8973SOL    HW228594   0.198   5.616   3.923 -0.4562  0.1207  0.6102
 8974SOL     OW28595   0.730   8.111   1.345 -0.2065  0.1145  0.1422
 8974SOL    HW128596   0.734   8.090   1.439  0.4768  0.2271  0.1469
 8974SOL    HW228597   0.801   8.174   1.332 -0.3945  0.2151 -0.4255
 8975SOL     OW28598   6.333   8.115   3.836 -0.3687  0.5500  0.5459
 8975SOL    HW128599   6.274   8.040   3.839 -0.6116  0.6919 -0.4404
 8975SOL    HW228600   6.353   8.127   3.743  0.3225  1.1990  0.7619
 8976SOL     OW28601   9.220   2.472   6.628 -0.1833  0.2774 -0.1100
 8976SOL    HW128602   9.159   2.421   6.682 -0.3122 -0.3716 -0.8477
 8976SOL    HW228603   9.169   2.500   6.553  0.4200 -0.3357 -0.7731
 8977SOL     OW28604   6.862   9.672   5.021  0.3318  0.2786 -0.1691
 8977SOL    HW128605   6.848   9.700   5.112  0.7298  1.2609 -0.4008
 8977SOL    HW228606   6.775   9.646   4.991  0.4904 -2.0112  1.0956
 8978SOL     OW28607   0.152   4.614   7.563  0.7666 -0.3081  0.5284
 8978SOL    HW128608   0.238   4.573   7.552  0.2128 -1.0449 -1.5866
 8978SOL    HW228609   0.090   4.541   7.567  0.0838  0.2463  0.3538
 8979SOL     OW28610   5.559   6.503   5.025  0.6170  0.0899 -0.6105
 8979SOL    HW128611   5.627   6.436   5.027 -0.1832 -0.7068  0.8137
 8979SOL    HW228612   5.571   6.553   5.106 -0.2845  0.1608 -0.5151
 8980SOL     OW28613   6.006   0.139   3.263 -0.1886  0.1153  0.1586
 8980SOL    HW128614   6.036   0.198   3.194 -0.3237  1.7683  1.4597
 8980SOL    HW228615   6.020   0.188   3.344  0.0053 -1.7806  1.3337
 8981SOL     OW28616   2.137   1.856   0.634 -0.2298 -0.3156 -0.0903
 8981SOL    HW128617   2.043   1.842   0.640 -0.8677  3.3235  0.6198
 8981SOL    HW228618   2.172   1.819   0.716 -0.8954 -2.0442 -0.5386
 8982SOL     OW28619   9.393   2.729   1.911  0.5824 -0.2525 -0.6074
 8982SOL    HW128620   9.408   2.678   1.831  0.3047 -2.0548  0.4367
 8982SOL    HW228621   9.356   2.667   1.973  1.2283  0.9670  1.0981
 8983SOL     OW28622   3.590   5.076   7.375 -0.3717 -0.0201  0.3265
 8983SOL    HW128623   3.523   5.009   7.379 -1.0177  0.4583 -1.6304
 8983SOL    HW228624   3.543   5.159   7.385  0.1016  0.2645  0.2567
 8984SOL     OW28625   3.674   0.119   9.594  0.2035 -0.5139  0.0369
 8984SOL    HW128626   3.632   0.089   9.675  0.6090  0.9661  0.8332
 8984SOL    HW228627   3.725   0.196   9.620  0.4219 -0.0557 -1.6046
 8985SOL     OW28628   9.423   3.271   6.425 -0.6678 -0.5623  0.2686
 8985SOL    HW128629   9.451   3.341   6.484  0.7410  0.3374 -1.3503
 8985SOL    HW228630   9.337   3.244   6.458  0.2285 -0.4432  2.9477
 8986SOL     OW28631   6.692   7.014   7.770  0.1809 -0.7069  0.3467
 8986SOL    HW128632   6.712   7.048   7.683  0.3545 -1.7000 -0.0135
 8986SOL    HW228633   6.777   7.006   7.813  0.0470  0.3720  0.8521
 8987SOL     OW28634   8.775   6.842   0.501  0.3177  0.3281 -0.3609
 8987SOL    HW128635   8.769   6.752   0.470  1.4857  0.0072  0.2733
 8987SOL    HW228636   8.869   6.857   0.514 -0.0097  0.7678  1.9987
 8988SOL     OW28637   8.797   8.509   5.543 -0.2548 -0.4904  0.4330
 8988SOL    HW128638   8.767   8.428   5.584 -0.5053 -0.2698  0.6874
 8988SOL    HW228639   8.719   8.546   5.502 -0.5414  0.5245  1.8365
 8989SOL     OW28640   7.224   0.481   7.108 -0.2847 -0.0104  0.0300
 8989SOL    HW128641   7.287   0.552   7.095 -1.2138  1.1887  1.6565
 8989SOL    HW228642   7.248   0.415   7.043  0.2718  2.0336 -1.9632
 8990SOL     OW28643   6.480   9.067   5.853 -0.0001  0.4351 -0.4087
 8990SOL    HW128644   6.459   8.985   5.897  0.7566  0.0639 -0.7176
 8990SOL    HW228645   6.429   9.065   5.772  0.3958  0.0274 -0.6548
 8991SOL     OW28646   6.725   7.058   2.721  0.3436  0.0144 -0.1215
 8991SOL    HW128647   6.634   7.036   2.744  0.1122  0.3727 -0.6683
 8991SOL    HW228648   6.724   7.153   2.712  0.3651 -0.1348 -1.8616
 8992SOL     OW28649   3.213   3.516   5.937 -0.1528 -0.0395  0.1423
 8992SOL    HW128650   3.124   3.517   5.902  0.1616  1.1250 -0.6797
 8992SOL    HW228651   3.221   3.598   5.987  0.9231  0.6426 -1.0735
 8993SOL     OW28652   0.533   7.571   4.881  0.2530 -0.4189  0.2686
 8993SOL    HW128653   0.515   7.654   4.836 -1.2827 -1.0464 -0.3061
 8993SOL    HW228654   0.464   7.564   4.947  0.3158 -1.2829  0.2551
 8994SOL     OW28655   3.562   0.835   6.258  0.2446  0.3901 -0.2133
 8994SOL    HW128656   3.579   0.782   6.180  1.1945  1.0092 -0.4441
 8994SOL    HW228657   3.523   0.916   6.224  0.2384  0.4735 -0.0076
 8995SOL     OW28658   5.367   3.828   8.140 -0.0959 -0.2525  0.2507
 8995SOL    HW128659   5.431   3.861   8.077  0.0960  0.4209  0.7905
 8995SOL    HW228660   5.415   3.819   8.222 -1.0208  1.8220  1.0871
 8996SOL     OW28661   3.237   4.654   2.457  0.1866 -0.5467 -0.5195
 8996SOL    HW128662   3.230   4.733   2.510  1.3090  0.5185 -1.8948
 8996SOL    HW228663   3.321   4.615   2.484 -0.9787 -2.0497  1.1231
 8997SOL     OW28664   1.745   5.040   7.902  0.1160  0.1803 -0.1526
 8997SOL    HW128665   1.825   5.005   7.940  0.5052 -0.4375 -1.4794
 8997SOL    HW228666   1.676   5.016   7.964  0.8259 -0.1018  0.5373
 8998SOL     OW28667   7.001   0.512   6.892  0.3433 -0.8219 -0.0751
 8998SOL    HW128668   7.053   0.508   6.972 -3.0747 -0.0787  2.4207
 8998SOL    HW228669   6.971   0.422   6.878  1.3412 -1.0504 -0.9078
 8999SOL     OW28670   6.923   7.056   4.827  0.4000 -0.0126 -0.5683
 8999SOL    HW128671   6.901   6.983   4.885  3.2656  0.1232  0.9014
 8999SOL    HW228672   6.927   7.133   4.885  3.3965  0.1218 -0.7609
 9000SOL     OW28673   9.591   0.720   4.280  0.2417 -0.3513  0.0630
 9000SOL    HW128674   9.572   0.801   4.326  0.6051 -0.0464 -0.3161
 9000SOL    HW228675   9.552   0.731   4.193 -1.3785 -1.3424  0.6063
 9001SOL     OW28676   6.864   2.947   3.170  0.9503  0.0025 -0.4713
 9001SOL    HW128677   6.878   2.961   3.264  1.5919 -0.5688 -0.4765
 9001SOL    HW228678   6.885   2.855   3.156  1.2951  0.1927 -1.2601
 9002SOL     OW28679   0.564   2.935   9.475  0.2404  0.2768  0.7184
 9002SOL    HW128680   0.563   2.874   9.401  0.4744  0.0586  0.8953
 9002SOL    HW228681   0.482   2.918   9.521  0.8822 -0.8064  1.4966
 9003SOL     OW28682   4.624   4.132   5.855 -0.2543  0.7386  0.5778
 9003SOL    HW128683   4.641   4.218   5.894  0.7258 -0.8870  4.0479
 9003SOL    HW228684   4.531   4.117   5.869 -0.4391  1.2025 -0.0813
 9004SOL     OW28685   7.632   6.114   3.752  0.0884 -0.5675  0.9373
 9004SOL    HW128686   7.598   6.196   3.717 -0.4174 -0.7745  0.9287
 9004SOL    HW228687   7.563   6.050   3.732  1.5420 -1.5477 -1.3624
 9005SOL     OW28688   2.578   6.215   2.806 -0.1478  0.2117  0.4942
 9005SOL    HW128689   2.506   6.256   2.759 -0.0635  1.6090  1.5178
 9005SOL    HW228690   2.653   6.272   2.788  0.0281  0.4059  1.7650
 9006SOL     OW28691   4.384   6.159   7.867 -0.1760  0.0443  0.6899
 9006SOL    HW128692   4.420   6.230   7.813  0.5781 -0.6056  0.3085
 9006SOL    HW228693   4.374   6.198   7.954 -0.1319  0.7284  0.3940
 9007SOL     OW28694   3.753   4.474   0.214 -0.4547 -0.0061 -0.0147
 9007SOL    HW128695   3.660   4.488   0.227 -1.1923 -1.6083 -2.7196
 9007SOL    HW228696   3.795   4.545   0.261 -3.0610  1.1367  0.7475
 9008SOL     OW28697   9.607   7.003   8.145  0.2029  0.0083  0.2814
 9008SOL    HW128698   9.547   7.038   8.210  0.5475  0.8943  0.1354
 9008SOL    HW228699   9.693   7.006   8.186 -0.0795 -3.7196  1.5130
 9009SOL     OW28700   0.626   3.645   6.899 -0.6872  0.4044  0.2020
 9009SOL    HW128701   0.643   3.617   6.809  0.1196  0.8985  0.1907
 9009SOL    HW228702   0.664   3.575   6.953 -2.8275 -0.8549  0.1920
 9010SOL     OW28703   9.409   8.532   8.975 -0.0361  0.7090 -0.4071
 9010SOL    HW128704   9.454   8.584   9.041  0.3355 -0.3434  0.1993
 9010SOL    HW228705   9.463   8.454   8.964 -0.8710  0.1687 -0.8620
 9011SOL     OW28706   2.951   3.019   3.193 -0.1223  0.5891 -0.2015
 9011SOL    HW128707   2.959   3.038   3.099 -0.8874  0.3375 -0.3231
 9011SOL    HW228708   2.895   3.089   3.227 -0.7755  0.0523 -0.1503
 9012SOL     OW28709   9.064   9.251   3.417  0.3587 -0.0369  0.0601
 9012SOL    HW128710   9.131   9.312   3.449  1.4332  0.6890 -3.1502
 9012SOL    HW228711   9.115   9.178   3.380 -0.6348 -0.1207 -1.2115
 9013SOL     OW28712   6.644   1.905   7.754 -0.0122 -0.2519 -0.2870
 9013SOL    HW128713   6.570   1.871   7.804  0.5806  1.7517  2.1596
 9013SOL    HW228714   6.721   1.877   7.803  0.6868  0.5029 -0.9287
 9014SOL     OW28715   0.966   4.570   2.634 -0.2661  0.0336 -0.6782
 9014SOL    HW128716   0.928   4.646   2.677 -1.2025 -0.4291 -0.6716
 9014SOL    HW228717   0.975   4.596   2.542  2.1912  1.2023 -0.2051
 9015SOL     OW28718   4.493   9.256   5.053 -0.1919 -0.2453  0.1622
 9015SOL    HW128719   4.448   9.254   4.968  1.3648  0.1252 -0.6985
 9015SOL    HW228720   4.502   9.349   5.073 -0.6238 -0.3311  0.7985
 9016SOL     OW28721   5.412   1.585   6.108  0.2050 -0.3301 -0.0287
 9016SOL    HW128722   5.498   1.555   6.137  0.8846  1.8531  0.4555
 9016SOL    HW228723   5.364   1.505   6.088  1.5375 -1.7401  1.9541
 9017SOL     OW28724   5.772   7.086   1.514  0.1323 -0.3656 -0.2589
 9017SOL    HW128725   5.854   7.110   1.471  0.5172 -0.0638  0.6205
 9017SOL    HW228726   5.754   7.158   1.574 -0.9814 -0.2492 -0.7147
 9018SOL     OW28727   0.710   2.345   2.577  0.2453  0.1315  0.2687
 9018SOL    HW128728   0.721   2.265   2.628  1.9307 -0.1660 -0.4772
 9018SOL    HW228729   0.621   2.374   2.597 -0.5218 -2.0518  0.3717
 9019SOL     OW28730   6.561   8.392   2.460 -0.2999 -0.1590  0.1274
 9019SOL    HW128731   6.505   8.400   2.538 -0.2197 -1.0428  0.2849
 9019SOL    HW228732   6.504   8.351   2.394 -1.4833  3.6114 -1.4687
 9020SOL     OW28733   9.365   3.375   2.459 -0.2925  0.1597 -0.7389
 9020SOL    HW128734   9.421   3.423   2.398 -0.8455  0.5765 -0.9389
 9020SOL    HW228735   9.339   3.440   2.524 -1.1288  0.1711 -1.0667
 9021SOL     OW28736   4.338   4.304   3.743  0.2318  0.3918 -0.0693
 9021SOL    HW128737   4.343   4.305   3.648 -0.3225  1.5234 -0.1095
 9021SOL    HW228738   4.428   4.323   3.772  0.6454 -1.0897 -0.3309
 9022SOL     OW28739   3.618   1.404   7.046 -0.3402  0.0292 -0.0316
 9022SOL    HW128740   3.612   1.311   7.066 -1.4428  0.2418  0.6777
 9022SOL    HW228741   3.627   1.447   7.131 -0.1020  0.5996 -0.3318
 9023SOL     OW28742   1.951   3.472   6.864  0.4224  0.5665 -0.3456
 9023SOL    HW128743   1.883   3.405   6.868  0.7189  0.3215  1.7860
 9023SOL    HW228744   1.919   3.542   6.921  2.0943  0.2452  1.0777
 9024SOL     OW28745   4.620   1.433   2.604  0.3366 -0.2023  0.5172
 9024SOL    HW128746   4.565   1.504   2.635  0.6055  0.6902 -0.9472
 9024SOL    HW228747   4.691   1.477   2.556  0.9481 -1.4246  0.2664
 9025SOL     OW28748   5.585   8.341   8.600 -0.4529 -0.7793  0.5933
 9025SOL    HW128749   5.582   8.426   8.557  0.8900 -0.0652  1.8211
 9025SOL    HW228750   5.509   8.343   8.660 -2.4334 -1.8521 -1.7143
 9026SOL     OW28751   6.650   1.051   1.295  0.3327 -0.8426  0.1275
 9026SOL    HW128752   6.642   0.997   1.373  0.9756 -0.4839  0.4471
 9026SOL    HW228753   6.743   1.051   1.275  0.4731  0.8341  0.6296
 9027SOL     OW28754   5.166   1.477   5.768 -0.1785 -0.3926  0.0852
 9027SOL    HW128755   5.147   1.512   5.855 -0.8038  0.9025 -0.5429
 9027SOL    HW228756   5.258   1.500   5.754  0.4278 -2.0485  1.0217
 9028SOL     OW28757   2.928   3.223   4.961 -0.0935  0.2010 -0.4798
 9028SOL    HW128758   2.973   3.216   4.877  0.7040 -2.8209  0.1042
 9028SOL    HW228759   2.996   3.251   5.023  0.5047 -1.9903 -0.0624
 9029SOL     OW28760   1.983   1.977   0.938 -0.3287  0.1731  0.6985
 9029SOL    HW128761   1.917   1.920   0.977  0.4127  0.0927  1.9052
 9029SOL    HW228762   2.049   1.988   1.007 -0.3443  2.3325  0.4601
 9030SOL     OW28763   6.805   3.049   0.428 -0.2671 -0.7961 -0.0832
 9030SOL    HW128764   6.843   3.103   0.496  1.5734 -2.3146  0.1852
 9030SOL    HW228765   6.736   3.103   0.390  1.8667  2.0001 -0.3007
 9031SOL     OW28766   0.184   3.025   1.797 -0.0587 -0.0067 -0.0293
 9031SOL    HW128767   0.279   3.032   1.795  0.1771 -2.2386  1.0748
 9031SOL    HW228768   0.156   3.056   1.711  1.6103  1.0213 -0.2437
 9032SOL     OW28769   3.048   3.153   4.723  0.6153 -0.8315  0.3555
 9032SOL    HW128770   3.037   3.104   4.641  0.6815  0.0585 -0.2080
 9032SOL    HW228771   3.043   3.245   4.696  1.3514 -0.5108  1.2562
 9033SOL     OW28772   6.101   5.118   1.152  0.7106  0.0147 -0.4677
 9033SOL    HW128773   6.066   5.074   1.075 -1.0815 -2.2978  1.5010
 9033SOL    HW228774   6.039   5.187   1.171 -0.0528 -0.7949  0.0742
 9034SOL     OW28775   3.393   7.188   7.384 -0.1225 -0.4795  0.1652
 9034SOL    HW128776   3.391   7.144   7.469 -2.2026 -0.7349  0.0202
 9034SOL    HW228777   3.302   7.188   7.354  0.6292 -1.0812 -2.4097
 9035SOL     OW28778   9.650   2.230   4.744 -0.3006 -0.1261 -0.0568
 9035SOL    HW128779   9.636   2.208   4.836  0.6263 -0.5397 -0.0100
 9035SOL    HW228780   9.745   2.235   4.734 -0.4070  1.3594 -0.6552
 9036SOL     OW28781   8.731   9.043   1.164 -0.1117  0.1923  0.4798
 9036SOL    HW128782   8.742   9.049   1.259  0.8238 -0.8287  0.4550
 9036SOL    HW228783   8.679   9.121   1.141 -1.0148  0.0518  1.9111
 9037SOL     OW28784   0.074   0.254   5.288  0.3441 -0.1741 -0.1685
 9037SOL    HW128785   0.023   0.265   5.208  0.6740 -1.6856 -0.6212
 9037SOL    HW228786   0.025   0.189   5.339  0.9581 -0.4254  0.1156
 9038SOL     OW28787   2.378   6.535   6.366 -0.4359  0.9080  0.3901
 9038SOL    HW128788   2.427   6.617   6.375 -0.9161  1.2171  0.2476
 9038SOL    HW228789   2.440   6.467   6.391  0.7379  1.0925 -1.8058
 9039SOL     OW28790   4.786   5.604   7.232  0.5949  0.1658  0.4921
 9039SOL    HW128791   4.791   5.655   7.151  2.2913 -2.9529 -1.6069
 9039SOL    HW228792   4.717   5.540   7.216  1.0741 -0.6145  1.4026
 9040SOL     OW28793   2.606   3.712   2.691 -0.2175 -0.0833 -0.4553
 9040SOL    HW128794   2.545   3.700   2.619 -0.6681 -0.2061 -0.0619
 9040SOL    HW228795   2.669   3.640   2.683 -0.9528 -0.7801 -0.0442
 9041SOL     OW28796   1.567   3.466   0.806  0.0439 -0.7608  0.0659
 9041SOL    HW128797   1.563   3.524   0.883  1.6751  0.4585 -0.7199
 9041SOL    HW228798   1.655   3.430   0.808  0.9710  1.1231 -2.4626
 9042SOL     OW28799   5.663   5.841   4.028 -0.2916 -0.1584 -0.0254
 9042SOL    HW128800   5.740   5.884   4.063 -2.3478  1.1956  3.3358
 9042SOL    HW228801   5.644   5.888   3.947 -0.1406  2.6764  1.4650
 9043SOL     OW28802   5.795   8.662   7.243 -0.1210  0.5215 -0.1428
 9043SOL    HW128803   5.706   8.629   7.249  0.8639 -2.4279 -0.0770
 9043SOL    HW228804   5.818   8.687   7.333 -0.3306 -0.3611  0.1627
 9044SOL     OW28805   7.247   9.303   7.088  0.9921  0.1794  0.0696
 9044SOL    HW128806   7.218   9.225   7.042  1.0675  1.3925 -2.2167
 9044SOL    HW228807   7.307   9.271   7.155 -1.3924 -1.9321  1.3512
 9045SOL     OW28808   1.586   7.238   0.653 -0.2839 -0.5170 -0.2526
 9045SOL    HW128809   1.656   7.186   0.614  0.0864  0.7496 -1.3681
 9045SOL    HW228810   1.566   7.305   0.587 -0.3976  1.0532  1.2850
 9046SOL     OW28811   3.553   9.299   1.877  0.2236  0.2856  0.7468
 9046SOL    HW128812   3.564   9.349   1.796  0.0853  0.2218  0.6875
 9046SOL    HW228813   3.588   9.356   1.946  2.3971 -0.5478  0.3958
 9047SOL     OW28814   6.761   8.050   8.720 -0.2489 -0.6858 -0.2118
 9047SOL    HW128815   6.805   8.092   8.646  0.7474 -0.8728  0.2466
 9047SOL    HW228816   6.820   7.980   8.746  0.1197  0.2149  1.6052
 9048SOL     OW28817   2.368   8.850   5.896 -0.3424 -0.0307  0.0364
 9048SOL    HW128818   2.425   8.908   5.947 -0.4067  0.7422 -0.7374
 9048SOL    HW228819   2.384   8.763   5.931  2.8770 -0.1710 -1.4598
 9049SOL     OW28820   1.950   3.795   7.116 -0.1762  0.2165  0.1117
 9049SOL    HW128821   1.934   3.810   7.023 -0.5326  0.3664  0.1948
 9049SOL    HW228822   2.000   3.872   7.145 -0.4073  0.3598  0.1312
 9050SOL     OW28823   3.218   6.602   9.488 -0.4209 -0.4323  0.1570
 9050SOL    HW128824   3.278   6.563   9.551  0.4379  1.1902  0.3958
 9050SOL    HW228825   3.131   6.586   9.525  0.0116 -0.5549  1.1426
 9051SOL     OW28826   5.818   7.847   7.948 -0.1991 -0.4143 -0.0916
 9051SOL    HW128827   5.801   7.763   7.990 -0.4871 -0.0056  0.6410
 9051SOL    HW228828   5.750   7.905   7.983 -0.7790 -0.1790 -1.5480
 9052SOL     OW28829   1.036   3.740   5.263 -0.1726 -0.3058  0.3802
 9052SOL    HW128830   1.002   3.786   5.186  0.9319 -0.1441 -0.0310
 9052SOL    HW228831   1.122   3.708   5.236  0.9735  1.1567  2.0206
 9053SOL     OW28832   2.719   0.502   7.369  0.2043  0.3721 -0.0647
 9053SOL    HW128833   2.759   0.473   7.451  1.0795 -1.4019 -1.0695
 9053SOL    HW228834   2.631   0.465   7.371  0.8822 -1.3494 -0.7586
 9054SOL     OW28835   8.130   6.148   4.708  0.3770 -0.3006 -0.3097
 9054SOL    HW128836   8.175   6.211   4.651 -0.1251 -0.5997 -1.0523
 9054SOL    HW228837   8.190   6.074   4.715 -0.0147 -0.7406 -1.3796
 9055SOL     OW28838   5.331   4.047   9.566 -0.1025  0.2287 -0.1440
 9055SOL    HW128839   5.259   3.991   9.537 -1.1708  1.5967 -0.2257
 9055SOL    HW228840   5.334   4.118   9.502  0.3134  1.0127  0.7171
 9056SOL     OW28841   9.397   3.155   0.991  0.0576  0.8254  0.6603
 9056SOL    HW128842   9.489   3.180   1.002  0.5638 -0.2060 -0.8689
 9056SOL    HW228843   9.375   3.106   1.069  0.7356  1.2773  1.1442
 9057SOL     OW28844   9.384   6.451   8.530 -0.3732  0.2780  0.8344
 9057SOL    HW128845   9.410   6.365   8.496 -1.0092  0.1066  0.7730
 9057SOL    HW228846   9.310   6.433   8.588 -0.3540  0.7583  1.0107
 9058SOL     OW28847   5.903   5.486   1.625  0.8048 -0.0573  0.7705
 9058SOL    HW128848   5.821   5.473   1.673  1.7545 -0.7426  2.2522
 9058SOL    HW228849   5.895   5.575   1.589 -0.2411  0.1931  1.5598
 9059SOL     OW28850   2.441   9.479   8.424  0.1447 -0.3595  1.0311
 9059SOL    HW128851   2.521   9.532   8.428  1.3593 -1.9408 -0.8917
 9059SOL    HW228852   2.449   9.419   8.498  1.0611 -0.9134  0.4968
 9060SOL     OW28853   6.717   1.737   8.632 -0.3734  0.0557 -0.5090
 9060SOL    HW128854   6.684   1.671   8.692  1.0483 -1.2144 -1.0587
 9060SOL    HW228855   6.727   1.816   8.685 -0.8567 -0.5274  0.4715
 9061SOL     OW28856   3.297   8.577   7.984  0.0061 -0.1249 -0.0112
 9061SOL    HW128857   3.236   8.650   7.979  1.5610  1.1966 -0.3818
 9061SOL    HW228858   3.264   8.523   8.056 -0.5755  1.5259  0.9992
 9062SOL     OW28859   3.484   7.593   9.632  0.1829 -0.7160 -0.1655
 9062SOL    HW128860   3.505   7.500   9.640  0.6049 -0.7471 -1.5034
 9062SOL    HW228861   3.510   7.616   9.543 -0.5128  0.5337 -0.0633
 9063SOL     OW28862   8.433   7.920   2.486 -0.0785  0.1113  0.6074
 9063SOL    HW128863   8.365   7.896   2.549  0.4579  0.0585  1.1797
 9063SOL    HW228864   8.511   7.932   2.540  0.8208 -1.6633 -0.2239
 9064SOL     OW28865   8.773   3.569   0.375  0.5613 -0.0687 -0.1107
 9064SOL    HW128866   8.817   3.586   0.292  2.9809 -1.4122  0.7847
 9064SOL    HW228867   8.765   3.473   0.379 -2.2535  0.0931 -0.0560
 9065SOL     OW28868   6.839   0.475   8.310 -0.2586  0.7722  0.3294
 9065SOL    HW128869   6.906   0.436   8.367 -1.7660 -1.4382  0.6746
 9065SOL    HW228870   6.827   0.412   8.239 -1.1608  1.6909 -0.3655
 9066SOL     OW28871   6.922   5.081   3.694 -0.1747 -0.7371  0.3619
 9066SOL    HW128872   6.985   5.121   3.754  0.7662  0.1418 -1.1481
 9066SOL    HW228873   6.840   5.078   3.744  0.2118  1.3010  1.2287
 9067SOL     OW28874   9.052   0.290   6.871 -0.2039  0.3765  0.3694
 9067SOL    HW128875   9.050   0.276   6.777 -0.8408  0.7602  0.3225
 9067SOL    HW228876   9.035   0.384   6.882 -0.1828  0.3260  0.8672
 9068SOL     OW28877   6.460   8.260   1.469 -0.4823 -0.2029  0.1002
 9068SOL    HW128878   6.543   8.261   1.421 -0.5189 -0.2640  0.0352
 9068SOL    HW228879   6.406   8.326   1.425 -0.7883 -0.7984 -0.4294
 9069SOL     OW28880   2.846   6.796   4.848 -0.3443 -0.0208 -0.1512
 9069SOL    HW128881   2.843   6.768   4.940  2.1848  1.9194  0.6540
 9069SOL    HW228882   2.929   6.843   4.840 -0.6372  0.1824 -3.3837
 9070SOL     OW28883   0.035   8.378   7.638  0.3754 -0.1566  0.5282
 9070SOL    HW128884  -0.037   8.338   7.687 -0.3072  0.6706  0.2484
 9070SOL    HW228885  -0.006   8.405   7.555  1.5238 -1.6791 -0.6112
 9071SOL     OW28886   2.410   4.444   2.197 -0.3507 -0.3369  0.0086
 9071SOL    HW128887   2.359   4.518   2.230 -0.5683 -0.2238 -0.5685
 9071SOL    HW228888   2.494   4.450   2.243 -0.7259 -0.3254  0.7146
 9072SOL     OW28889   8.453   0.178   6.538  0.4576 -0.1461  0.5591
 9072SOL    HW128890   8.432   0.236   6.464  1.1300 -0.6469 -0.0320
 9072SOL    HW228891   8.477   0.238   6.609  3.0753  0.3120 -0.6084
 9073SOL     OW28892   6.929   5.881   5.384 -0.3316  0.0034  0.3029
 9073SOL    HW128893   6.833   5.878   5.388 -0.2874 -0.2264  3.1197
 9073SOL    HW228894   6.952   5.957   5.438  1.0881  0.2804 -0.6473
 9074SOL     OW28895   2.808   2.827   0.135 -0.3076  0.0342 -0.4981
 9074SOL    HW128896   2.736   2.868   0.184  0.0992 -0.1585  0.2921
 9074SOL    HW228897   2.775   2.741   0.111 -0.9153  0.5426 -1.5570
 9075SOL     OW28898   7.663   2.366   6.174 -0.1542  0.1982  0.2821
 9075SOL    HW128899   7.616   2.358   6.257 -0.2320 -0.5943  0.1724
 9075SOL    HW228900   7.621   2.439   6.129 -2.0676 -1.1719 -0.2946
 9076SOL     OW28901   7.959   4.312   6.005 -0.1407 -0.2152  0.0409
 9076SOL    HW128902   8.022   4.359   6.060 -0.5043  1.1673 -0.6601
 9076SOL    HW228903   7.989   4.221   6.006 -0.8387 -0.5111  3.4856
 9077SOL     OW28904   7.951   8.837   2.513 -0.1983 -0.2782 -0.8713
 9077SOL    HW128905   7.949   8.928   2.544  3.0875 -0.1683 -0.6751
 9077SOL    HW228906   7.950   8.784   2.592  2.1125 -0.1925 -0.7167
 9078SOL     OW28907   2.709   7.471   5.038  0.1505 -0.2333 -0.6878
 9078SOL    HW128908   2.686   7.458   4.946  0.8219  0.9867 -1.0535
 9078SOL    HW228909   2.760   7.552   5.038  0.3601 -0.3508  0.7320
 9079SOL     OW28910   5.731   3.410   1.368 -0.1769  0.4825 -0.1791
 9079SOL    HW128911   5.673   3.469   1.416 -0.4902 -1.3519  1.8768
 9079SOL    HW228912   5.674   3.364   1.307 -0.7256 -0.5538  1.0874
 9080SOL     OW28913   4.652   1.332   7.565  0.2814  0.0206  0.2325
 9080SOL    HW128914   4.676   1.401   7.628 -0.1242  1.4681 -1.1219
 9080SOL    HW228915   4.645   1.378   7.481  0.4696 -1.7857 -0.8248
 9081SOL     OW28916   6.988   5.077   7.758  0.3727  0.2511 -0.2694
 9081SOL    HW128917   7.068   5.072   7.811  1.0139  0.6536 -1.1604
 9081SOL    HW228918   6.992   5.000   7.701 -0.0221  0.1184 -0.1191
 9082SOL     OW28919   8.793   9.347   2.299  0.3555 -0.0335  0.3305
 9082SOL    HW128920   8.759   9.399   2.227  2.5800  0.0042 -0.7775
 9082SOL    HW228921   8.864   9.296   2.261  0.0101 -1.8779  1.9846
 9083SOL     OW28922   7.111   8.234   6.638  0.1233 -0.2149  0.1553
 9083SOL    HW128923   7.142   8.156   6.591  2.1458 -0.2570  1.4382
 9083SOL    HW228924   7.070   8.199   6.717  2.1988 -0.0129  1.3860
 9084SOL     OW28925   6.151   0.015   5.230 -0.2418 -0.1272 -0.1574
 9084SOL    HW128926   6.125   0.024   5.321 -1.3576  2.7937 -0.6502
 9084SOL    HW228927   6.236   0.059   5.225 -0.1371 -0.3631 -0.5194
 9085SOL     OW28928   2.052   6.834   8.997 -0.8403 -0.7308  0.0151
 9085SOL    HW128929   1.964   6.864   8.973 -0.9262  0.4325  1.6247
 9085SOL    HW228930   2.060   6.748   8.956 -3.2744 -1.4868  0.9785
 9086SOL     OW28931   1.369   1.432   0.747 -0.2005  0.2024  0.0950
 9086SOL    HW128932   1.279   1.463   0.750  0.3971  2.3574 -1.2636
 9086SOL    HW228933   1.421   1.509   0.771  1.2774 -1.2334  1.7634
 9087SOL     OW28934   8.058   4.962   7.230  0.1005  0.3566  0.0420
 9087SOL    HW128935   8.109   4.904   7.285 -0.9646  0.1689  0.8558
 9087SOL    HW228936   8.081   5.050   7.259 -0.9270  0.2462  1.2451
 9088SOL     OW28937   6.123   1.364   2.041  0.6215  0.1698  0.3197
 9088SOL    HW128938   6.087   1.421   2.109  0.3569  2.2201 -1.4511
 9088SOL    HW228939   6.111   1.276   2.076 -0.7980  1.0610  2.2971
 9089SOL     OW28940   6.517   0.531   4.471  0.1073 -0.2870 -0.4321
 9089SOL    HW128941   6.513   0.574   4.557 -0.3198 -2.4345  0.6924
 9089SOL    HW228942   6.495   0.601   4.409 -2.7519  0.6998  1.4485
 9090SOL     OW28943   8.123   7.994   0.495 -0.2318  0.5950 -0.1351
 9090SOL    HW128944   8.163   7.911   0.520  0.9021  1.2253  0.2268
 9090SOL    HW228945   8.175   8.024   0.421 -1.3265  0.4687 -0.9785
 9091SOL     OW28946   0.457   5.680   1.996 -0.4815  0.2838  0.0197
 9091SOL    HW128947   0.544   5.677   2.035 -0.6256 -0.3468  0.2878
 9091SOL    HW228948   0.409   5.745   2.048 -0.2501  0.4611  0.0147
 9092SOL     OW28949   0.931   0.267   9.475  0.4334 -0.0217  0.1651
 9092SOL    HW128950   0.903   0.293   9.563 -0.2297  1.7554 -0.5259
 9092SOL    HW228951   0.926   0.171   9.475  1.1737 -0.1028  2.2769
 9093SOL     OW28952   6.259   6.934   8.100 -0.0881 -0.0910  0.1433
 9093SOL    HW128953   6.331   6.958   8.042  1.3698 -0.9151  1.5224
 9093SOL    HW228954   6.288   6.962   8.187 -0.6340 -1.9788  0.9988
 9094SOL     OW28955   2.039   9.466   8.375 -0.2689 -0.4066 -0.5305
 9094SOL    HW128956   2.031   9.517   8.456 -0.6390 -1.1732 -0.0703
 9094SOL    HW228957   1.956   9.481   8.330  0.3241  0.8080 -1.2530
 9095SOL     OW28958   4.283   5.929   9.187  0.2337  0.2137 -0.3977
 9095SOL    HW128959   4.366   5.919   9.233 -0.1412 -0.4136  0.1743
 9095SOL    HW228960   4.297   5.887   9.102 -0.2536 -2.2791  0.6720
 9096SOL     OW28961   7.112   1.051   1.121  0.2559  0.6686  0.2510
 9096SOL    HW128962   7.038   1.055   1.182 -0.5066  1.0454 -0.6705
 9096SOL    HW228963   7.138   1.142   1.108 -0.3531  0.7046 -0.8633
 9097SOL     OW28964   5.503   4.511   9.018  0.1007 -0.2483 -0.4809
 9097SOL    HW128965   5.486   4.423   9.052 -1.8367  0.9293  1.9648
 9097SOL    HW228966   5.583   4.502   8.967  1.1384 -3.0330  1.3718
 9098SOL     OW28967   2.822   3.835   6.277  0.1845  0.3723 -0.0941
 9098SOL    HW128968   2.750   3.820   6.216  0.8489  1.1378 -1.1079
 9098SOL    HW228969   2.847   3.926   6.263  2.3754 -0.2928 -0.9658
 9099SOL     OW28970   8.742   4.116   9.573  0.5724  0.9164 -0.5414
 9099SOL    HW128971   8.716   4.051   9.507 -0.0891  1.7667 -1.1420
 9099SOL    HW228972   8.830   4.090   9.599 -1.0147 -2.5506  2.1581
 9100SOL     OW28973   5.177   0.271   5.846  0.8148  0.3319  0.5476
 9100SOL    HW128974   5.090   0.286   5.883  0.4275  0.9397 -0.5654
 9100SOL    HW228975   5.194   0.350   5.794  1.6807 -0.1522  0.0866
 9101SOL     OW28976   4.479   4.660   3.776 -0.1474 -0.5099 -0.3653
 9101SOL    HW128977   4.387   4.641   3.755  0.1459 -1.5682 -0.7477
 9101SOL    HW228978   4.525   4.648   3.693  0.2359  0.8342 -0.3705
 9102SOL     OW28979   6.701   5.228   3.539  0.5307  0.1984 -0.5444
 9102SOL    HW128980   6.662   5.171   3.473  1.1519  0.4242 -1.1130
 9102SOL    HW228981   6.713   5.172   3.615 -0.5501  0.0340 -0.4825
 9103SOL     OW28982   3.852   9.153   0.355  0.1018 -0.0664 -0.4055
 9103SOL    HW128983   3.882   9.233   0.310 -2.1234  0.9379 -0.2446
 9103SOL    HW228984   3.787   9.116   0.296 -0.2895 -0.6998  0.4082
 9104SOL     OW28985   4.300   2.334   8.725 -0.7015 -0.1248 -0.0811
 9104SOL    HW128986   4.289   2.424   8.756  3.2113  0.6504 -0.4217
 9104SOL    HW228987   4.301   2.281   8.804  0.9049  0.7375  0.5218
 9105SOL     OW28988   1.675   2.917   4.903  0.3471  0.0941 -0.6672
 9105SOL    HW128989   1.747   2.953   4.954  1.1290  0.3243 -1.9041
 9105SOL    HW228990   1.707   2.915   4.813 -1.2133  0.2767 -1.2657
 9106SOL     OW28991   6.965   4.810   2.717  0.3228 -0.0557 -0.4667
 9106SOL    HW128992   6.947   4.870   2.790  1.1478 -0.7939  0.3630
 9106SOL    HW228993   7.059   4.797   2.719  0.1604 -1.3558 -0.6590
 9107SOL     OW28994   8.362   8.966   6.381  0.1672 -0.4436  0.4389
 9107SOL    HW128995   8.407   8.882   6.372  0.1810 -0.2548 -1.6698
 9107SOL    HW228996   8.297   8.950   6.450  2.1072 -1.2713  2.2105
 9108SOL     OW28997   8.715   7.698   7.711  0.1074 -0.2279 -0.2130
 9108SOL    HW128998   8.809   7.703   7.692 -0.2859  2.7689 -2.0389
 9108SOL    HW228999   8.676   7.673   7.627 -0.8603  1.0691 -0.1764
 9109SOL     OW29000   9.404   9.588   1.248 -0.0718  0.2868 -0.4171
 9109SOL    HW129001   9.352   9.589   1.329  2.3828  1.2127  1.2588
 9109SOL    HW229002   9.418   9.680   1.227  0.5511  0.0515 -1.0639
 9110SOL     OW29003   4.062   2.725   6.287 -0.4191 -0.5044  0.2677
 9110SOL    HW129004   4.052   2.634   6.257  1.5622 -0.3300 -1.1324
 9110SOL    HW229005   4.149   2.750   6.257 -0.3490  1.4153  1.8862
 9111SOL     OW29006   7.763   7.276   6.233  0.3720 -0.1807  0.0882
 9111SOL    HW129007   7.805   7.220   6.298 -0.2488  1.4196  1.9698
 9111SOL    HW229008   7.671   7.279   6.261  0.1872  0.8952 -0.5996
 9112SOL     OW29009   9.379   7.146   4.399  0.2040  0.3401  0.1128
 9112SOL    HW129010   9.417   7.218   4.348 -0.4056 -0.3251 -1.3490
 9112SOL    HW229011   9.343   7.188   4.477  1.5788  1.3317  0.2427
 9113SOL     OW29012   3.055   6.004   3.253  0.3917  0.6535  0.2357
 9113SOL    HW129013   3.038   6.023   3.345  0.6875  0.0386  0.4245
 9113SOL    HW229014   3.145   6.034   3.238  1.7416 -2.5076  1.1447
 9114SOL     OW29015   2.956   6.003   2.135 -0.0217  0.4767  0.3928
 9114SOL    HW129016   2.897   6.032   2.066 -1.2922 -1.0342  0.7799
 9114SOL    HW229017   3.020   6.074   2.144 -1.8730  2.2874  0.0741
 9115SOL     OW29018   5.449   6.796   4.718  0.0665 -0.1692 -0.6029
 9115SOL    HW129019   5.501   6.738   4.773 -2.2396 -2.3621 -0.5256
 9115SOL    HW229020   5.470   6.769   4.628  0.6028  0.4077 -0.6567
 9116SOL     OW29021   5.764   0.371   2.929 -0.1480  0.0506  0.7461
 9116SOL    HW129022   5.841   0.325   2.895 -0.4797  0.7716 -1.1174
 9116SOL    HW229023   5.704   0.302   2.955 -0.7593 -0.7106 -2.2564
 9117SOL     OW29024   8.788   8.456   3.712  1.0507 -0.1060 -0.1131
 9117SOL    HW129025   8.752   8.386   3.657 -1.3919  0.1508  1.0505
 9117SOL    HW229026   8.745   8.536   3.681  0.6893  0.2484  1.2557
 9118SOL     OW29027   8.998   9.211   1.342 -0.0246 -0.2497  0.3133
 9118SOL    HW129028   8.943   9.135   1.322 -1.6278  0.8261  0.4419
 9118SOL    HW229029   9.009   9.255   1.258 -1.2093  0.6919  0.6190
 9119SOL     OW29030   9.085   6.244   9.085 -0.3215  0.0736 -0.3908
 9119SOL    HW129031   9.058   6.302   9.014 -0.2546  1.0977  0.4031
 9119SOL    HW229032   9.033   6.164   9.072  0.0477  0.0527 -1.8589
 9120SOL     OW29033   2.526   5.567   4.654 -0.2400  0.3533 -0.1130
 9120SOL    HW129034   2.525   5.610   4.739  0.3739 -0.3263  0.2459
 9120SOL    HW229035   2.608   5.597   4.612 -0.4342  0.5189 -0.3812
 9121SOL     OW29036   0.448   4.147   4.404  0.7227 -0.0778 -0.4744
 9121SOL    HW129037   0.430   4.191   4.320  1.9313 -1.6598 -1.6276
 9121SOL    HW229038   0.413   4.058   4.391  1.2240 -0.4385  0.5847
 9122SOL     OW29039   1.480   5.015   5.147  0.3094 -0.1054 -0.2272
 9122SOL    HW129040   1.470   4.920   5.141  1.0212 -0.0990 -2.3410
 9122SOL    HW229041   1.407   5.051   5.096  0.5417  0.4470 -0.1790
 9123SOL     OW29042   4.103   8.338   1.019  1.1484  0.5344 -0.6034
 9123SOL    HW129043   4.023   8.361   1.067  0.2880 -1.0271 -1.2157
 9123SOL    HW229044   4.104   8.399   0.945  1.5413  1.7725  0.3713
 9124SOL     OW29045   1.216   9.460   2.194 -0.0260  0.1830 -0.1862
 9124SOL    HW129046   1.186   9.435   2.281 -0.1041  0.8232 -0.0185
 9124SOL    HW229047   1.225   9.556   2.198  1.0561  0.1142 -0.5385
 9125SOL     OW29048   3.268   5.744   9.551  0.1554  0.3083  0.4484
 9125SOL    HW129049   3.213   5.669   9.574  1.1555 -0.3876  0.6104
 9125SOL    HW229050   3.325   5.712   9.481  0.3063  1.0516  0.2184
 9126SOL     OW29051   8.566   1.875   3.723 -0.1656  0.6235  0.5922
 9126SOL    HW129052   8.529   1.787   3.719  1.4237 -0.0450 -0.0356
 9126SOL    HW229053   8.543   1.906   3.810 -1.1355 -0.2293  0.6586
 9127SOL     OW29054   8.050   1.639   4.109  0.5956 -0.8197 -0.4214
 9127SOL    HW129055   8.055   1.611   4.017 -0.5486 -0.8866 -0.4760
 9127SOL    HW229056   7.983   1.706   4.110 -1.2785 -2.6042  0.7603
 9128SOL     OW29057   3.374   3.560   6.568  0.2500  0.4425  0.8738
 9128SOL    HW129058   3.427   3.639   6.572 -1.3465  1.5660  0.9433
 9128SOL    HW229059   3.378   3.533   6.476  2.3798 -0.5884  1.2043
 9129SOL     OW29060   4.625   2.950   2.573  0.7285  0.3254 -0.2406
 9129SOL    HW129061   4.560   3.007   2.531 -1.2933 -1.9767 -0.4777
 9129SOL    HW229062   4.574   2.876   2.605  3.4287 -2.4159 -1.8149
 9130SOL     OW29063   6.177   9.378   3.423  0.0105  0.2827 -0.0388
 9130SOL    HW129064   6.089   9.403   3.395  0.0212 -1.1003 -1.4181
 9130SOL    HW229065   6.165   9.293   3.467  0.8939 -1.1438 -2.3756
 9131SOL     OW29066   7.957   8.138   8.694  0.2477  0.2430  0.2171
 9131SOL    HW129067   8.040   8.182   8.715  0.5501 -0.6948  1.0556
 9131SOL    HW229068   7.954   8.063   8.753 -0.9631 -0.0297 -0.1686
 9132SOL     OW29069   4.966   7.858   5.853 -0.1027 -0.2850  0.3884
 9132SOL    HW129070   4.890   7.886   5.903 -0.7804 -2.5252  0.7231
 9132SOL    HW229071   5.012   7.798   5.911 -0.5538 -2.4371 -1.3751
 9133SOL     OW29072   0.677   4.118   3.054  0.2635  0.0978 -0.2648
 9133SOL    HW129073   0.765   4.104   3.086  0.1638 -1.0210 -0.4519
 9133SOL    HW229074   0.654   4.206   3.084  0.6543 -0.4016  1.5965
 9134SOL     OW29075   7.826   6.224   6.357 -0.2629 -0.8456 -0.6340
 9134SOL    HW129076   7.877   6.196   6.433  1.2079  0.3510 -1.1305
 9134SOL    HW229077   7.760   6.156   6.346 -2.8244  0.5386  3.7593
 9135SOL     OW29078   3.016   6.927   7.436  0.2917 -0.2363 -0.2117
 9135SOL    HW129079   3.011   6.836   7.409  1.2187 -0.3548 -0.0342
 9135SOL    HW229080   3.101   6.934   7.480 -0.9635  0.0101  2.3802
 9136SOL     OW29081   5.824   7.976   4.971 -0.2767  0.3022  0.3889
 9136SOL    HW129082   5.778   8.013   4.895  0.7254 -0.6365 -0.7272
 9136SOL    HW229083   5.900   7.932   4.933  0.8196  0.6803  2.0562
 9137SOL     OW29084   9.136   9.210   2.839  0.7195  0.0838 -0.0756
 9137SOL    HW129085   9.083   9.268   2.785 -0.4676  0.2604  1.2206
 9137SOL    HW229086   9.177   9.268   2.903 -0.0988 -0.4268  0.9332
 9138SOL     OW29087   5.775   0.430   7.623 -0.0838  0.4917  0.3682
 9138SOL    HW129088   5.704   0.494   7.623 -0.2761  0.2794  0.1763
 9138SOL    HW229089   5.744   0.359   7.567  1.0052  1.1980 -1.2224
 9139SOL     OW29090   5.088   7.363   3.257  0.7692  0.0829  0.1738
 9139SOL    HW129091   5.142   7.417   3.199 -0.9017  0.9432 -0.6211
 9139SOL    HW229092   5.113   7.273   3.235  1.8517  0.4571 -0.1837
 9140SOL     OW29093   1.080   6.581   1.147  0.1743 -0.0165  0.1156
 9140SOL    HW129094   1.083   6.581   1.052  2.7456  2.1888  0.0784
 9140SOL    HW229095   1.132   6.505   1.173  1.8978  0.9437 -0.3434
 9141SOL     OW29096   5.232   4.888   0.829 -0.4341  0.0490 -0.7467
 9141SOL    HW129097   5.179   4.924   0.900 -1.7458 -1.1175 -1.0860
 9141SOL    HW229098   5.288   4.961   0.802 -1.7627  1.3152 -0.2530
 9142SOL     OW29099   8.918   0.840   4.254 -0.5215 -0.1188 -0.0724
 9142SOL    HW129100   8.962   0.758   4.231  0.6696  0.1693  1.0264
 9142SOL    HW229101   8.881   0.824   4.341  2.0701  1.2978  1.4052
 9143SOL     OW29102   0.017   0.257   0.293 -0.1775 -0.4199  0.5421
 9143SOL    HW129103  -0.057   0.309   0.323 -0.1323 -0.6003  0.9699
 9143SOL    HW229104   0.081   0.321   0.261 -0.0617 -0.2011  1.1953
 9144SOL     OW29105   7.643   7.671   0.066 -0.5075 -0.0950 -0.8703
 9144SOL    HW129106   7.579   7.617   0.112  0.2257  0.7258  1.2268
 9144SOL    HW229107   7.589   7.735   0.019 -1.2782 -0.5544 -0.6409
 9145SOL     OW29108   0.727   4.483   8.114  0.6752  0.5795 -0.2734
 9145SOL    HW129109   0.716   4.576   8.099 -0.1305  0.3296 -1.3378
 9145SOL    HW229110   0.768   4.477   8.201  0.5280  1.8963 -0.0990
 9146SOL     OW29111   8.530   5.892   8.845  0.0613 -0.3820  0.5566
 9146SOL    HW129112   8.535   5.852   8.931  2.2290  1.4994  1.4095
 9146SOL    HW229113   8.437   5.888   8.821 -0.0305 -4.8292  0.9684
 9147SOL     OW29114   2.350   9.127   0.068  0.1736 -0.2155  0.0336
 9147SOL    HW129115   2.370   9.220   0.080  3.1611 -0.8238  0.4597
 9147SOL    HW229116   2.348   9.092   0.158 -0.8503 -0.6018 -0.1286
 9148SOL     OW29117   7.681   4.373   6.245 -0.1639  0.2177  0.0787
 9148SOL    HW129118   7.654   4.284   6.223 -0.1515  0.3820 -0.6074
 9148SOL    HW229119   7.748   4.362   6.312 -0.5485 -0.2657  0.3921
 9149SOL     OW29120   6.686   1.708   1.752  0.3048  0.0441 -0.2405
 9149SOL    HW129121   6.678   1.623   1.794  0.1651  0.6078  0.9206
 9149SOL    HW229122   6.753   1.754   1.803  2.4400 -0.3236 -2.5266
 9150SOL     OW29123   4.883   4.620   9.404 -0.4758 -0.4496  0.3740
 9150SOL    HW129124   4.977   4.610   9.386 -0.4041  0.3479  0.2498
 9150SOL    HW229125   4.841   4.593   9.323 -0.3351 -0.5125  0.3209
 9151SOL     OW29126   5.395   7.930   3.699  0.3011  0.0692 -0.1263
 9151SOL    HW129127   5.322   7.989   3.713 -0.8266 -1.2063 -0.3736
 9151SOL    HW229128   5.425   7.949   3.610 -1.5074 -1.2049 -1.0602
 9152SOL     OW29129   6.596   1.870   1.581  0.5733  0.0403 -0.9874
 9152SOL    HW129130   6.620   1.806   1.648 -3.0750  0.8393  1.4150
 9152SOL    HW229131   6.619   1.828   1.498  3.8728 -1.6946  0.5941
 9153SOL     OW29132   1.541   2.432   1.905 -0.7357 -0.1891 -0.2641
 9153SOL    HW129133   1.508   2.404   1.991 -1.5086  0.8320 -0.2010
 9153SOL    HW229134   1.611   2.371   1.885 -0.2513 -0.1875  1.3008
 9154SOL     OW29135   0.345   3.801   5.321 -0.4464 -0.2372  0.2001
 9154SOL    HW129136   0.267   3.761   5.360 -0.5153  0.5328  0.8724
 9154SOL    HW229137   0.387   3.729   5.274  0.1687 -1.5000  2.5277
 9155SOL     OW29138   2.284   7.967   7.688 -0.0813  0.3058 -0.9269
 9155SOL    HW129139   2.199   7.927   7.670  0.4387 -1.5100  0.3358
 9155SOL    HW229140   2.323   7.980   7.601 -2.0419  2.2425 -1.5983
 9156SOL     OW29141   0.492   5.576   4.630  0.7295  0.1504 -0.2169
 9156SOL    HW129142   0.458   5.639   4.693 -0.9184 -1.1087  0.2115
 9156SOL    HW229143   0.556   5.524   4.680 -1.0434 -1.2707  0.6811
 9157SOL     OW29144   9.627   0.062   5.453  0.4650 -0.2833 -0.1966
 9157SOL    HW129145   9.572  -0.017   5.450 -1.8683  1.2886 -1.8563
 9157SOL    HW229146   9.595   0.111   5.529  0.8870 -0.2097 -0.0597
 9158SOL     OW29147   6.824   6.275   7.443  0.4509  0.6411  0.2597
 9158SOL    HW129148   6.845   6.353   7.494  1.0985  0.5502  0.1299
 9158SOL    HW229149   6.908   6.236   7.421  0.1214 -0.4701  0.8950
 9159SOL     OW29150   6.241   9.586   5.849  0.2460 -0.0672 -0.5041
 9159SOL    HW129151   6.336   9.582   5.865 -0.0447  0.1081  1.6031
 9159SOL    HW229152   6.202   9.575   5.936 -1.6588  0.9266 -1.1723
 9160SOL     OW29153   6.841   0.095   3.923  0.0520 -0.1582  0.0973
 9160SOL    HW129154   6.769   0.158   3.922  0.0809 -0.0717  1.6722
 9160SOL    HW229155   6.801   0.014   3.956  0.2727 -0.6450 -0.8059
 9161SOL     OW29156   0.144   4.506   8.310 -0.1241  0.7553 -0.2838
 9161SOL    HW129157   0.078   4.500   8.241  0.9159 -1.6692 -1.1765
 9161SOL    HW229158   0.222   4.465   8.272  0.6836 -0.1050  2.1052
 9162SOL     OW29159   6.482   2.027   8.384  0.8454  0.3078  0.1977
 9162SOL    HW129160   6.458   2.030   8.477  3.6667  1.2836  1.0174
 9162SOL    HW229161   6.526   1.943   8.373  1.5015  0.6673  0.0366
 9163SOL     OW29162   5.043   3.788   5.444 -0.7959 -0.2917  0.0101
 9163SOL    HW129163   5.081   3.855   5.500 -0.4270 -0.8493  0.4476
 9163SOL    HW229164   4.962   3.826   5.412 -0.2632  0.6104 -0.2806
 9164SOL     OW29165   2.859   7.591   5.399 -0.3731  0.0306  0.1849
 9164SOL    HW129166   2.952   7.579   5.381 -0.1559 -1.1439  1.8742
 9164SOL    HW229167   2.817   7.582   5.313  1.1989  2.8693 -1.0116
 9165SOL     OW29168   4.638   7.429   0.914  0.1938  0.3931  0.0442
 9165SOL    HW129169   4.545   7.422   0.892  0.1205 -0.5244  0.5589
 9165SOL    HW229170   4.684   7.420   0.831 -0.1782  0.9094 -0.2193
 9166SOL     OW29171   2.302   9.405   5.887  0.4284 -0.1267 -0.3419
 9166SOL    HW129172   2.240   9.476   5.908  1.3027  0.8961 -1.0735
 9166SOL    HW229173   2.247   9.327   5.879 -0.8853  0.8523 -1.5804
 9167SOL     OW29174   1.786   2.548   8.729  0.0184 -0.2503  0.3235
 9167SOL    HW129175   1.880   2.563   8.717 -0.0537 -0.4642 -0.5603
 9167SOL    HW229176   1.764   2.481   8.664 -0.8115  0.0288  0.3052
 9168SOL     OW29177   0.599   0.337   0.173  0.2359  0.0622  0.2572
 9168SOL    HW129178   0.543   0.405   0.134  0.5313  0.0769 -0.1481
 9168SOL    HW229179   0.653   0.385   0.236  0.0344  0.1083  0.3940
 9169SOL     OW29180   0.548   0.398   8.977 -0.3725  0.1265 -0.0135
 9169SOL    HW129181   0.492   0.355   9.041 -0.1267  1.6054  1.2765
 9169SOL    HW229182   0.637   0.373   9.002 -0.2875  0.5223  0.0861
 9170SOL     OW29183   4.721   5.555   5.930  0.0997 -0.8839  0.1979
 9170SOL    HW129184   4.794   5.605   5.966 -1.2415  0.7163  0.9021
 9170SOL    HW229185   4.680   5.615   5.868  0.4028 -2.4100 -1.5428
 9171SOL     OW29186   7.666   3.922   0.990 -0.0859 -0.0315  0.3825
 9171SOL    HW129187   7.679   3.986   1.061  2.0333 -0.2715  0.2564
 9171SOL    HW229188   7.626   3.973   0.920  1.3161  1.1476  0.3797
 9172SOL     OW29189   4.665   8.391   3.049 -0.3696  0.0026  0.2396
 9172SOL    HW129190   4.718   8.393   3.129  1.4299 -0.0664 -0.8765
 9172SOL    HW229191   4.639   8.482   3.035  1.1833  0.4170 -0.2189
 9173SOL     OW29192   1.582   1.124   8.431 -0.4584 -0.7941  0.4996
 9173SOL    HW129193   1.531   1.145   8.353 -0.3315  0.1818  0.6694
 9173SOL    HW229194   1.670   1.156   8.412 -0.1409 -1.5812  0.5980
 9174SOL     OW29195   9.660   2.648   3.190 -0.1792 -0.2648 -0.4063
 9174SOL    HW129196   9.600   2.657   3.265  1.8439  1.5178  1.1171
 9174SOL    HW229197   9.625   2.709   3.125  1.3567  3.0108  1.5678
 9175SOL     OW29198   4.901   8.444   1.680 -0.0132 -0.2290 -0.0275
 9175SOL    HW129199   4.991   8.417   1.702  0.4449  0.5336 -0.8584
 9175SOL    HW229200   4.852   8.433   1.761  0.4176 -2.3539 -0.0035
 9176SOL     OW29201   6.291   0.207   1.188 -0.0760 -0.0952  0.3303
 9176SOL    HW129202   6.310   0.220   1.095 -1.1028 -0.9157 -0.0174
 9176SOL    HW229203   6.210   0.255   1.203 -0.9373 -1.4842  0.3251
 9177SOL     OW29204   8.277   4.267   6.020  0.2892  0.0188 -0.7637
 9177SOL    HW129205   8.328   4.294   5.944  2.2732 -0.3186  0.3706
 9177SOL    HW229206   8.312   4.181   6.044 -0.4776 -0.0037  0.3702
 9178SOL     OW29207   2.971   2.871   1.873  0.0704 -0.1840 -0.0291
 9178SOL    HW129208   2.930   2.857   1.958 -1.8667  1.2650 -0.6601
 9178SOL    HW229209   3.057   2.831   1.881  0.0112  0.0614  2.6649
 9179SOL     OW29210   5.150   1.258   4.862  0.6015 -0.3099 -0.1959
 9179SOL    HW129211   5.242   1.240   4.841  0.9231 -0.3403  1.1284
 9179SOL    HW229212   5.144   1.353   4.863  1.0186 -0.2680  1.1788
 9180SOL     OW29213   8.904   7.108   2.099  0.0436  0.2050  0.2743
 9180SOL    HW129214   8.818   7.069   2.109 -0.1227  0.5322  0.1356
 9180SOL    HW229215   8.952   7.080   2.178  0.8364 -2.5016 -1.0474
 9181SOL     OW29216   2.135   1.471   3.374  0.1397 -0.2640 -0.6362
 9181SOL    HW129217   2.185   1.502   3.450 -0.2613 -1.4823  0.1492
 9181SOL    HW229218   2.188   1.498   3.299  0.0542  1.8526  0.0061
 9182SOL     OW29219   2.570   6.901   2.741 -0.0242 -0.2190 -0.4951
 9182SOL    HW129220   2.568   6.891   2.646 -0.1561 -0.3392 -0.4798
 9182SOL    HW229221   2.566   6.812   2.775 -1.9493 -0.1174 -0.3472
 9183SOL     OW29222   6.838   5.568   2.863 -0.8350 -0.6404 -0.1988
 9183SOL    HW129223   6.921   5.568   2.814 -0.7769  0.9374 -0.1588
 9183SOL    HW229224   6.779   5.514   2.811  0.4806 -2.6831  0.2982
 9184SOL     OW29225   5.018   4.222   8.997 -0.3802 -0.2259  0.7496
 9184SOL    HW129226   4.939   4.203   8.945  0.0176 -1.1965  0.4708
 9184SOL    HW229227   5.054   4.301   8.957 -0.9874 -0.0118  0.6112
 9185SOL     OW29228   4.809   7.698   1.539 -0.4735  0.5220 -0.1122
 9185SOL    HW129229   4.900   7.712   1.564  0.7177 -3.4016 -1.4511
 9185SOL    HW229230   4.796   7.753   1.463  0.7469  1.1837  0.1356
 9186SOL     OW29231   9.409   4.306   9.454  0.3208  0.3979  1.0099
 9186SOL    HW129232   9.423   4.266   9.540 -1.1311  0.2149  1.1910
 9186SOL    HW229233   9.322   4.275   9.428 -0.2523  2.3054  0.5138
 9187SOL     OW29234   4.294   7.655   6.864  0.2117 -0.3613 -0.9006
 9187SOL    HW129235   4.227   7.714   6.897  2.2192  1.2743  0.5347
 9187SOL    HW229236   4.324   7.695   6.783 -0.9208 -1.4289 -1.8811
 9188SOL     OW29237   0.359   8.089   2.139 -0.0886 -0.1812  0.0944
 9188SOL    HW129238   0.353   7.998   2.169 -0.0290 -0.8347 -1.7377
 9188SOL    HW229239   0.312   8.089   2.055  1.4198  1.0455 -0.8118
 9189SOL     OW29240   5.936   7.405   3.661  0.1778 -0.1782  0.2258
 9189SOL    HW129241   5.975   7.322   3.690 -0.6415 -0.4455  0.5931
 9189SOL    HW229242   5.892   7.439   3.739 -1.4307 -0.5400 -0.4843
 9190SOL     OW29243   7.503   5.538   0.266 -0.0299 -0.2429 -0.4379
 9190SOL    HW129244   7.485   5.513   0.356  0.2805 -1.3349 -0.6662
 9190SOL    HW229245   7.422   5.580   0.236 -1.6877 -3.4914 -0.9063
 9191SOL     OW29246   0.064   1.489   0.270 -0.3008 -0.5077 -0.8051
 9191SOL    HW129247  -0.024   1.497   0.235 -0.3601  0.1390 -0.5090
 9191SOL    HW229248   0.054   1.498   0.365  0.0978 -0.2985 -0.7796
 9192SOL     OW29249   9.115   8.480   1.491  0.4632  0.9836  0.2439
 9192SOL    HW129250   9.188   8.421   1.472  0.1619  1.1310 -1.5348
 9192SOL    HW229251   9.041   8.421   1.507  0.2366  0.8313 -1.2130
 9193SOL     OW29252   5.869   5.288   2.481  0.3686 -0.2880 -0.0733
 9193SOL    HW129253   5.838   5.375   2.505 -0.0684 -0.9010  1.7524
 9193SOL    HW229254   5.911   5.255   2.560  2.6757 -0.8442 -1.4586
 9194SOL     OW29255   5.201   1.474   2.112  0.2727  0.0657  0.0232
 9194SOL    HW129256   5.289   1.454   2.081  0.0028  0.5818 -1.1112
 9194SOL    HW229257   5.205   1.566   2.137  0.0790  0.0637  0.0649
 9195SOL     OW29258   3.534   9.595   0.563  0.5824 -0.0638  0.5589
 9195SOL    HW129259   3.466   9.529   0.544  0.2572  0.1855  0.8462
 9195SOL    HW229260   3.558   9.578   0.654 -1.6250  2.0763  1.6410
 9196SOL     OW29261   7.787   0.321   3.460 -0.3828  0.2158 -0.5145
 9196SOL    HW129262   7.711   0.282   3.416 -0.7346  1.3299 -0.9529
 9196SOL    HW229263   7.749   0.370   3.533 -0.0453  0.4461 -0.4918
 9197SOL     OW29264   4.974   0.212   7.315  0.3931 -0.0987 -0.0601
 9197SOL    HW129265   5.046   0.274   7.324 -0.9233  1.1801  4.5740
 9197SOL    HW229266   4.947   0.194   7.405 -1.7135 -4.6866 -1.2899
 9198SOL     OW29267   5.261   0.017   3.263 -0.1128 -0.1480 -1.1682
 9198SOL    HW129268   5.194  -0.003   3.328  1.0658 -1.0668 -0.1946
 9198SOL    HW229269   5.334  -0.040   3.286  1.6322  1.9748 -1.1960
 9199SOL     OW29270   4.557   7.512   3.595 -0.5113 -0.1430  0.5739
 9199SOL    HW129271   4.631   7.540   3.648  1.8154 -0.2860 -2.3079
 9199SOL    HW229272   4.539   7.422   3.625  1.6720 -0.7492  0.2593
 9200SOL     OW29273   8.910   4.329   6.275 -0.0702 -0.1899  0.6070
 9200SOL    HW129274   8.910   4.402   6.336  0.8264 -0.7505  1.3256
 9200SOL    HW229275   8.850   4.265   6.314  0.3104 -0.4447  0.7905
 9201SOL     OW29276   4.742   6.214   2.839 -0.2489  0.1647  0.6551
 9201SOL    HW129277   4.775   6.126   2.822  2.5597  1.2090  0.1396
 9201SOL    HW229278   4.747   6.224   2.934  1.8314  0.5474  0.5481
 9202SOL     OW29279   4.859   9.450   6.441 -0.0328  0.7843 -0.6341
 9202SOL    HW129280   4.810   9.525   6.475  1.3265  1.8772 -0.9973
 9202SOL    HW229281   4.932   9.489   6.393  2.0935 -0.7342  1.1443
 9203SOL     OW29282   7.745   2.508   6.545  0.4139  0.5418 -0.4801
 9203SOL    HW129283   7.761   2.511   6.451  0.0301 -1.1856 -0.6234
 9203SOL    HW229284   7.687   2.583   6.562  1.3271  1.4866 -1.4143
 9204SOL     OW29285   7.575   1.944   5.250  0.0439  0.2368 -0.2245
 9204SOL    HW129286   7.632   1.880   5.207 -1.2246 -1.0137 -0.0876
 9204SOL    HW229287   7.488   1.928   5.215 -0.6005  0.7766  1.0473
 9205SOL     OW29288   6.601   3.055   0.012 -0.4068 -0.7842 -0.5790
 9205SOL    HW129289   6.606   3.023   0.102 -2.4172 -2.0439 -0.8411
 9205SOL    HW229290   6.518   3.020  -0.021 -0.6243  1.1872 -2.3398
 9206SOL     OW29291   0.411   8.388   5.694 -0.0594 -0.3767  0.0241
 9206SOL    HW129292   0.488   8.429   5.656  0.0465 -0.9775 -0.4393
 9206SOL    HW229293   0.400   8.430   5.779  1.1639 -0.7522  0.3794
 9207SOL     OW29294   9.312   7.380   7.160  0.1176 -0.3278  0.0476
 9207SOL    HW129295   9.307   7.319   7.086  0.6810  0.2460 -0.4877
 9207SOL    HW229296   9.222   7.409   7.173 -0.0346 -0.6587 -0.2216
 9208SOL     OW29297   1.611   5.110   4.315  0.2604  0.5550  0.5039
 9208SOL    HW129298   1.696   5.128   4.355 -0.2069  0.0550  1.7991
 9208SOL    HW229299   1.549   5.159   4.369 -0.4103 -0.2170  0.4574
 9209SOL     OW29300   8.254   5.135   5.978  0.1170  0.2895 -0.4244
 9209SOL    HW129301   8.238   5.070   5.910 -0.4430  0.5342 -0.5336
 9209SOL    HW229302   8.308   5.202   5.937  1.1237 -0.3433 -0.1707
 9210SOL     OW29303   4.158   4.176   0.843  0.5939 -0.4411 -0.0259
 9210SOL    HW129304   4.250   4.166   0.822  0.6385  0.7478 -0.4671
 9210SOL    HW229305   4.114   4.180   0.758  0.5628  2.4875  0.0323
 9211SOL     OW29306   2.093   3.767   0.723 -0.1947  0.2056  0.0129
 9211SOL    HW129307   2.153   3.693   0.714  0.6156  0.7371  0.7574
 9211SOL    HW229308   2.011   3.728   0.752 -0.0376 -0.4831 -0.4467
 9212SOL     OW29309   0.809   5.721   0.683 -0.2637  0.4314 -0.1049
 9212SOL    HW129310   0.831   5.798   0.631 -1.2161  0.4407 -0.5128
 9212SOL    HW229311   0.772   5.659   0.621  2.9524 -1.4956 -0.3044
 9213SOL     OW29312   0.818   3.096   7.680  0.1570  0.2110 -0.0995
 9213SOL    HW129313   0.750   3.031   7.699  2.7993 -2.6693  0.2600
 9213SOL    HW229314   0.864   3.109   7.763  0.5425  1.5529 -0.4898
 9214SOL     OW29315   9.188   0.725   5.843 -0.8635  0.6468 -0.0051
 9214SOL    HW129316   9.263   0.750   5.897  0.1838 -1.7140 -0.2477
 9214SOL    HW229317   9.218   0.741   5.753 -1.3439  1.3932 -0.0390
 9215SOL     OW29318   1.358   4.270   2.654  0.3036  0.8015 -0.0787
 9215SOL    HW129319   1.331   4.338   2.594 -0.5785 -0.9294 -1.7551
 9215SOL    HW229320   1.415   4.213   2.602 -2.3618 -2.0657 -0.1227
 9216SOL     OW29321   2.921   0.304   2.793 -0.2629  0.0883 -0.5910
 9216SOL    HW129322   2.918   0.276   2.702 -2.7505 -0.0715 -0.5261
 9216SOL    HW229323   2.909   0.222   2.843  0.7403  0.2171 -0.1185
 9217SOL     OW29324   5.486   6.521   3.535  0.5067  0.0671  0.2020
 9217SOL    HW129325   5.427   6.538   3.462  1.0632 -1.2190 -0.5879
 9217SOL    HW229326   5.558   6.583   3.523 -0.9937  2.2396  1.6533
 9218SOL     OW29327   5.724   5.663   4.685 -0.4436 -0.6162  0.1910
 9218SOL    HW129328   5.812   5.675   4.650 -0.6006  1.2174  0.3177
 9218SOL    HW229329   5.734   5.597   4.754  0.9289 -0.0998  0.5206
 9219SOL     OW29330   4.791   6.682   7.114 -0.1267 -0.0508  0.2698
 9219SOL    HW129331   4.783   6.659   7.207  0.7242 -1.2589  0.0657
 9219SOL    HW229332   4.737   6.618   7.068  0.8264 -0.5665 -0.1733
 9220SOL     OW29333   7.881   6.201   7.318  0.1244 -0.0907 -0.7344
 9220SOL    HW129334   7.831   6.217   7.397  0.8857 -1.1159 -0.0101
 9220SOL    HW229335   7.920   6.286   7.296 -0.5891  0.3347 -0.3689
 9221SOL     OW29336   3.452   0.563   1.655 -0.2222 -0.0726  0.0433
 9221SOL    HW129337   3.540   0.527   1.660 -0.3139 -0.2045  0.7484
 9221SOL    HW229338   3.406   0.504   1.594  0.1731  0.0009 -0.3276
 9222SOL     OW29339   8.426   4.122   8.837  0.2525  0.5079  0.3201
 9222SOL    HW129340   8.399   4.198   8.888 -3.8132 -2.0931  2.6012
 9222SOL    HW229341   8.373   4.126   8.757  0.1093  0.1458  0.3944
 9223SOL     OW29342   0.177   6.458   0.195  0.0311  0.0857  0.2385
 9223SOL    HW129343   0.139   6.373   0.213 -0.3246  0.0900 -0.4559
 9223SOL    HW229344   0.127   6.492   0.120 -1.7680  2.1612  2.2232
 9224SOL     OW29345   5.301   9.471   4.484  1.1757  0.1209  0.0879
 9224SOL    HW129346   5.236   9.401   4.495  0.2690  0.9446  0.1392
 9224SOL    HW229347   5.254   9.551   4.506  1.6964  0.9372 -1.5633
 9225SOL     OW29348   0.070   5.028   3.239  0.5191  0.1239 -0.8365
 9225SOL    HW129349   0.156   5.070   3.239  1.7498 -2.2294 -0.7224
 9225SOL    HW229350   0.028   5.060   3.319  1.4873  0.9308 -0.6232
 9226SOL     OW29351   3.584   7.286   6.432  0.1414  0.2265  0.1080
 9226SOL    HW129352   3.530   7.228   6.378 -0.6012  0.9795  0.0297
 9226SOL    HW229353   3.674   7.257   6.415 -0.0902  0.3552 -1.4254
 9227SOL     OW29354   0.742   3.983   0.111 -0.7273  0.3271 -0.0628
 9227SOL    HW129355   0.652   3.952   0.106 -0.8910  0.9528 -1.0848
 9227SOL    HW229356   0.764   3.975   0.204 -0.9351 -2.3288 -0.1471
 9228SOL     OW29357   0.577   9.077   4.642 -0.1092 -0.1483  0.0328
 9228SOL    HW129358   0.671   9.064   4.654 -0.0495 -2.4550 -2.1281
 9228SOL    HW229359   0.536   9.009   4.695 -0.5836  0.7434  0.8389
 9229SOL     OW29360   6.574   7.688   5.215 -0.1898 -0.1816  0.0253
 9229SOL    HW129361   6.585   7.669   5.308 -0.4080 -2.1149 -0.3085
 9229SOL    HW229362   6.636   7.759   5.197 -0.7590  0.8176  1.8107
 9230SOL     OW29363   2.989   1.201   7.617  0.4087 -0.5537 -0.5720
 9230SOL    HW129364   3.072   1.232   7.654 -0.9273  0.4412  1.8108
 9230SOL    HW229365   2.983   1.110   7.646 -0.0658 -0.1304  0.7480
 9231SOL     OW29366   4.512   7.303   0.538  0.0453 -0.8355  0.3662
 9231SOL    HW129367   4.509   7.321   0.444  1.6227 -2.6404 -0.0755
 9231SOL    HW229368   4.572   7.368   0.573 -1.5971  0.7427  0.4197
 9232SOL     OW29369   5.584   1.197   3.406 -0.0977 -0.0079 -0.2099
 9232SOL    HW129370   5.573   1.144   3.485  2.5880 -1.1316 -0.4837
 9232SOL    HW229371   5.571   1.136   3.334  1.8520 -0.1102 -0.5336
 9233SOL     OW29372   1.666   4.633   0.866 -0.5906 -0.2722  0.3617
 9233SOL    HW129373   1.631   4.561   0.919 -0.5984 -0.7588 -0.2946
 9233SOL    HW229374   1.602   4.704   0.877  0.4120  0.3640  2.6045
 9234SOL     OW29375   1.113   4.393   4.690  0.7637 -0.2424  0.1506
 9234SOL    HW129376   1.059   4.357   4.619 -1.3666 -0.8803  1.9726
 9234SOL    HW229377   1.183   4.329   4.702  0.1362 -1.0226 -0.2435
 9235SOL     OW29378   2.783   2.045   9.626  0.0067 -0.0406  0.6339
 9235SOL    HW129379   2.800   2.018   9.536  0.3108 -1.7292  1.1633
 9235SOL    HW229380   2.790   1.964   9.677 -0.0751  0.8928  2.1880
 9236SOL     OW29381   1.237   2.658   7.481 -0.2184  0.4440 -0.0124
 9236SOL    HW129382   1.147   2.675   7.507 -1.2343 -1.3617 -2.0145
 9236SOL    HW229383   1.278   2.621   7.560 -1.8661 -0.7222  0.3438
 9237SOL     OW29384   4.104   5.420   0.162 -0.9379 -0.5389  0.1155
 9237SOL    HW129385   4.097   5.351   0.096  0.3684 -1.1047  0.5371
 9237SOL    HW229386   4.075   5.499   0.117 -1.8858 -1.2467 -0.5562
 9238SOL     OW29387   7.936   4.366   2.914  0.0456  0.0004  0.6975
 9238SOL    HW129388   7.981   4.434   2.963  0.1710 -0.5315  1.3317
 9238SOL    HW229389   7.898   4.309   2.981  0.4927 -0.9137  0.1897
 9239SOL     OW29390   8.263   6.450   5.350 -0.3290  0.1670 -0.2779
 9239SOL    HW129391   8.269   6.372   5.295  0.1651  0.0100 -0.0145
 9239SOL    HW229392   8.172   6.454   5.378 -1.0518  1.2895 -2.5852
 9240SOL     OW29393   2.775   7.618   0.346  0.5115 -0.3671  0.2180
 9240SOL    HW129394   2.741   7.646   0.261 -3.3939 -0.3539  1.6040
 9240SOL    HW229395   2.818   7.534   0.328 -2.9735 -1.9837 -1.4043
 9241SOL     OW29396   7.245   0.990   9.623  0.5485 -0.5693  0.3524
 9241SOL    HW129397   7.156   1.014   9.599  0.9095  0.0725 -0.4184
 9241SOL    HW229398   7.235   0.927   9.694 -0.5561 -1.6716 -0.7379
 9242SOL     OW29399   4.885   8.563   4.161 -0.1068 -0.4343 -0.0431
 9242SOL    HW129400   4.823   8.635   4.170 -0.8925 -1.2646  1.6740
 9242SOL    HW229401   4.851   8.495   4.219  1.7636 -1.3939 -0.0013
 9243SOL     OW29402   5.346   5.257   4.057  0.1720  0.4191  0.1985
 9243SOL    HW129403   5.376   5.213   4.136 -0.3546  0.3577  0.3671
 9243SOL    HW229404   5.416   5.242   3.993 -0.1182 -0.8760  0.1678
 9244SOL     OW29405   0.133   0.182   2.224  0.8095  0.5325  0.5233
 9244SOL    HW129406   0.187   0.148   2.296  0.7663 -0.9390 -0.1091
 9244SOL    HW229407   0.048   0.199   2.264  0.5450 -1.0406  0.6899
 9245SOL     OW29408   2.511   0.454   3.608  0.4185  0.0613  0.1954
 9245SOL    HW129409   2.551   0.485   3.526  0.9648  1.4246  0.9427
 9245SOL    HW229410   2.417   0.456   3.590  0.5016  0.9479 -0.2163
 9246SOL     OW29411   1.316   1.806   2.610  0.1896  0.5156  0.2853
 9246SOL    HW129412   1.272   1.814   2.694  0.6177 -0.0189  0.5617
 9246SOL    HW229413   1.409   1.815   2.630  0.2058  2.6112 -0.4058
 9247SOL     OW29414   5.498   6.199   0.172 -0.3186  0.9705 -0.7101
 9247SOL    HW129415   5.555   6.123   0.161 -0.2748  1.0559 -1.0692
 9247SOL    HW229416   5.557   6.274   0.177 -0.1944  0.8073  1.7897
 9248SOL     OW29417   0.536   5.857   0.423  0.3405 -0.3362 -0.2098
 9248SOL    HW129418   0.599   5.928   0.431 -0.1550  0.4562 -2.6344
 9248SOL    HW229419   0.583   5.787   0.378  0.2409 -0.7840  0.3696
 9249SOL     OW29420   2.581   1.980   5.774  0.1820 -0.3777 -0.3061
 9249SOL    HW129421   2.487   1.993   5.761  0.4465  1.4798 -0.5459
 9249SOL    HW229422   2.619   1.995   5.687  0.8881  1.1446  0.2313
 9250SOL     OW29423   9.672   4.188   8.197  0.7537 -0.5157  0.4484
 9250SOL    HW129424   9.609   4.214   8.130 -1.1471 -1.2702  1.8716
 9250SOL    HW229425   9.752   4.166   8.148 -0.1613  0.1520 -1.4277
 9251SOL     OW29426   7.326   7.151   1.306 -0.1057  0.5567  0.0828
 9251SOL    HW129427   7.231   7.152   1.317 -0.2405  0.0675 -0.9713
 9251SOL    HW229428   7.340   7.170   1.214  0.7863 -0.1779  0.0547
 9252SOL     OW29429   1.082   0.732   0.994  0.5608 -0.2342  0.2634
 9252SOL    HW129430   1.058   0.789   0.921 -0.9058 -0.8200  0.2519
 9252SOL    HW229431   1.034   0.769   1.069 -0.4998 -1.4747  0.2338
 9253SOL     OW29432   1.991   5.656   8.712  0.6883  0.0221 -0.1664
 9253SOL    HW129433   1.930   5.681   8.781  0.9731  0.0684  0.0705
 9253SOL    HW229434   1.969   5.566   8.691  1.6656 -0.5608  1.1486
 9254SOL     OW29435   3.336   4.902   9.357 -0.0136  0.0029  0.1559
 9254SOL    HW129436   3.399   4.832   9.373  0.2192 -0.0785 -1.0558
 9254SOL    HW229437   3.387   4.975   9.325 -0.6344 -0.5654 -2.3446
 9255SOL     OW29438   1.056   1.163   4.001 -0.5421 -0.4733  0.0308
 9255SOL    HW129439   1.091   1.123   4.081 -1.3152 -3.1391 -0.8573
 9255SOL    HW229440   0.978   1.112   3.980 -2.0639  2.0196 -0.8902
 9256SOL     OW29441   7.013   5.565   4.214  0.2197 -0.6990 -0.1889
 9256SOL    HW129442   6.921   5.542   4.223 -0.6583  1.6090 -2.2826
 9256SOL    HW229443   7.041   5.591   4.302 -1.3981 -0.4726  0.2751
 9257SOL     OW29444   3.478   0.608   2.750  0.5676 -0.0210 -0.1320
 9257SOL    HW129445   3.521   0.689   2.725  1.8590 -0.6466 -0.0370
 9257SOL    HW229446   3.466   0.615   2.844 -1.1899  0.8977 -0.3926
 9258SOL     OW29447   8.679   5.694   0.865 -0.5138 -0.3292  0.1106
 9258SOL    HW129448   8.707   5.784   0.879  0.3940 -0.2103 -2.0963
 9258SOL    HW229449   8.592   5.690   0.904 -0.5179  1.4521  0.3732
 9259SOL     OW29450   5.976   0.809   6.494  0.5969 -0.2867 -0.0737
 9259SOL    HW129451   5.963   0.733   6.550  1.6740 -0.9302 -0.6639
 9259SOL    HW229452   5.993   0.881   6.554 -1.7441 -0.1744  0.5676
 9260SOL     OW29453   5.737   3.837   5.079  0.2063 -0.2855  0.2085
 9260SOL    HW129454   5.811   3.776   5.083 -0.2283 -0.7642  1.6282
 9260SOL    HW229455   5.729   3.871   5.168  0.0187  1.3724 -0.4134
 9261SOL     OW29456   8.034   8.805   4.303  0.0211 -0.0728  0.2641
 9261SOL    HW129457   7.958   8.849   4.341 -0.0461  0.2761 -0.2602
 9261SOL    HW229458   8.051   8.853   4.221  2.2950  1.4626  1.5130
 9262SOL     OW29459   4.680   7.187   2.764  0.3153 -0.0079 -0.0655
 9262SOL    HW129460   4.652   7.216   2.851 -0.5813 -0.6391 -0.1255
 9262SOL    HW229461   4.758   7.238   2.745 -0.7240  1.7370  0.1902
 9263SOL     OW29462   1.538   1.045   3.157  0.5175  0.0129  0.0353
 9263SOL    HW129463   1.447   1.016   3.150  0.4404  0.0127  0.9279
 9263SOL    HW229464   1.542   1.091   3.242  1.4045 -0.1967  0.1173
 9264SOL     OW29465   0.581   3.228   4.448  0.2724 -0.6258  0.1963
 9264SOL    HW129466   0.500   3.246   4.402 -0.9192  0.8815  2.6769
 9264SOL    HW229467   0.646   3.286   4.408 -0.5461  0.1654  0.0189
 9265SOL     OW29468   6.418   2.269   1.614  0.2681 -0.1907  0.2235
 9265SOL    HW129469   6.326   2.281   1.638 -0.2630  2.6811 -2.4752
 9265SOL    HW229470   6.420   2.185   1.567 -1.0871 -0.1218  0.0021
 9266SOL     OW29471   5.474   6.909   9.138 -0.3556 -0.1524  0.1227
 9266SOL    HW129472   5.544   6.867   9.188 -0.8010 -0.4097  0.5439
 9266SOL    HW229473   5.509   6.996   9.118  0.3731 -0.5383 -0.3214
 9267SOL     OW29474   7.559   3.071   0.064  0.3636  0.1945  0.1447
 9267SOL    HW129475   7.627   3.138   0.055  0.7943 -0.3482 -0.8497
 9267SOL    HW229476   7.546   3.062   0.158  0.5294  1.4379  0.3098
 9268SOL     OW29477   1.980   1.170   6.135  0.1260 -0.4035  0.6293
 9268SOL    HW129478   1.919   1.127   6.195  0.0404 -0.5230  0.4597
 9268SOL    HW229479   2.034   1.098   6.101 -1.0931 -0.6282 -0.9118
 9269SOL     OW29480   0.718   5.741   0.216 -0.2600 -0.3835 -0.3285
 9269SOL    HW129481   0.755   5.662   0.176 -2.6299 -1.0832 -1.2930
 9269SOL    HW229482   0.742   5.811   0.156  0.7333 -0.5588 -0.1561
 9270SOL     OW29483   5.805   7.854   0.629 -0.1414  0.5010 -0.4035
 9270SOL    HW129484   5.899   7.856   0.647  0.0928 -1.0494 -1.3096
 9270SOL    HW229485   5.781   7.762   0.635 -1.4372  0.7769 -1.0037
 9271SOL     OW29486   0.700   5.501   2.130  0.0453 -0.1141  0.0535
 9271SOL    HW129487   0.687   5.579   2.184  0.8196  1.6773 -2.2051
 9271SOL    HW229488   0.772   5.455   2.172 -0.6108  0.2122  1.5894
 9272SOL     OW29489   1.363   6.461   2.887 -0.4389 -0.2120  0.0440
 9272SOL    HW129490   1.401   6.375   2.905 -0.7789 -0.5587 -0.8611
 9272SOL    HW229491   1.351   6.463   2.793 -1.2802  0.4773  0.1553
 9273SOL     OW29492   8.517   3.461   4.421  0.0377 -0.6537 -0.4183
 9273SOL    HW129493   8.563   3.403   4.481  0.5445 -0.3626 -0.5164
 9273SOL    HW229494   8.557   3.444   4.336  0.5561  0.2164 -0.3551
 9274SOL     OW29495   2.533   0.622   9.331 -0.2801  0.6463  0.2520
 9274SOL    HW129496   2.533   0.714   9.358 -0.0689  0.3439  1.3238
 9274SOL    HW229497   2.626   0.601   9.321 -0.2400  0.1682  1.4229
 9275SOL     OW29498   1.053   5.101   6.055 -0.3886  0.6598 -0.1850
 9275SOL    HW129499   1.051   5.140   5.968 -0.7160  3.3917  0.9511
 9275SOL    HW229500   0.969   5.056   6.064 -1.5778  2.7404 -0.3250
 9276SOL     OW29501   8.071   5.830   5.459 -0.1594 -1.0572 -0.0920
 9276SOL    HW129502   8.032   5.912   5.428  0.3562 -0.2003  1.3957
 9276SOL    HW229503   8.044   5.764   5.395  0.1073  0.4178 -1.7848
 9277SOL     OW29504   9.593   2.677   8.260 -0.3011 -0.2881  0.1337
 9277SOL    HW129505   9.561   2.616   8.327 -0.3658 -0.1744  0.2063
 9277SOL    HW229506   9.688   2.679   8.273 -0.4135  0.5225  0.8924
 9278SOL     OW29507   7.838   0.982   1.940 -0.1316  0.6578  0.2145
 9278SOL    HW129508   7.780   1.002   1.866  0.1214  0.4767 -0.0332
 9278SOL    HW229509   7.905   1.051   1.937 -0.4287  0.9719  0.6081
 9279SOL     OW29510   9.668   9.559   4.091 -0.4163 -0.4853 -0.6357
 9279SOL    HW129511   9.706   9.490   4.037  3.4670  0.5540  0.4618
 9279SOL    HW229512   9.666   9.522   4.179  1.0117  0.4943 -0.1684
 9280SOL     OW29513   1.183   6.670   9.659  0.0999  0.4067 -0.3931
 9280SOL    HW129514   1.117   6.605   9.632 -2.0434  1.5359  1.6922
 9280SOL    HW229515   1.153   6.752   9.620  0.8158  0.7657 -0.2024
 9281SOL     OW29516   5.875   8.371   5.673 -0.6830  0.5567  0.3268
 9281SOL    HW129517   5.834   8.337   5.752  1.0477  0.6531  1.2973
 9281SOL    HW229518   5.870   8.299   5.610 -0.0098 -0.3522  1.2869
 9282SOL     OW29519   7.273   2.551   8.220 -0.2576 -0.1362 -0.0081
 9282SOL    HW129520   7.344   2.608   8.251 -0.3230 -0.7358  1.3277
 9282SOL    HW229521   7.196   2.581   8.270 -0.5929 -0.5077 -0.3011
 9283SOL     OW29522   4.380   2.561   7.959 -0.2780  0.4214  0.0964
 9283SOL    HW129523   4.345   2.638   8.004  0.8678  0.9746  0.0843
 9283SOL    HW229524   4.448   2.527   8.018 -2.1644 -1.8881  1.1160
 9284SOL     OW29525   8.001   7.969   2.831 -0.2700 -0.0114 -0.2773
 9284SOL    HW129526   7.976   8.055   2.797 -1.5069 -0.3896 -0.3721
 9284SOL    HW229527   7.918   7.924   2.845  0.3468 -1.0231  0.2249
 9285SOL     OW29528   3.201   0.588   5.552  0.1791 -0.2235  0.6682
 9285SOL    HW129529   3.204   0.552   5.641  1.6556 -0.2922  0.6147
 9285SOL    HW229530   3.280   0.643   5.546 -0.2411  0.2946 -0.3940
 9286SOL     OW29531   3.456   5.667   4.986  0.5876 -0.2327  0.4052
 9286SOL    HW129532   3.386   5.669   4.921  2.0476 -2.3773 -1.3650
 9286SOL    HW229533   3.507   5.746   4.969 -0.1429  0.2300  0.3017
 9287SOL     OW29534   7.959   5.661   1.219 -0.1317  0.3090  0.3905
 9287SOL    HW129535   8.029   5.698   1.272  0.1539 -3.5521  3.1107
 9287SOL    HW229536   8.004   5.627   1.141  0.2643  1.6451  0.0161
 9288SOL     OW29537   4.462   3.325   5.360  0.2553  0.1983 -0.0357
 9288SOL    HW129538   4.440   3.246   5.409 -1.5396  0.2745 -0.6506
 9288SOL    HW229539   4.546   3.353   5.397  0.5061 -1.4915  0.7855
 9289SOL     OW29540   5.432   3.283   1.807 -0.2394  0.2566 -0.1108
 9289SOL    HW129541   5.397   3.214   1.864  1.1504  0.8538  1.5485
 9289SOL    HW229542   5.367   3.354   1.812 -0.8628 -0.2657 -0.5182
 9290SOL     OW29543   2.427   8.869   7.542  0.5166 -0.0112  0.0827
 9290SOL    HW129544   2.442   8.958   7.573  1.4072  0.1197 -0.6853
 9290SOL    HW229545   2.338   8.870   7.507  1.3043  1.2381 -2.0668
 9291SOL     OW29546   5.047   7.144   6.591  0.3926  0.2325 -0.1690
 9291SOL    HW129547   5.123   7.171   6.643  1.1924 -1.0975 -0.5887
 9291SOL    HW229548   5.018   7.063   6.633  0.8766 -0.7130 -1.5740
 9292SOL     OW29549   4.302   6.418   6.195  0.5411  0.2166  0.3638
 9292SOL    HW129550   4.359   6.383   6.127  0.1837 -0.6585  0.5040
 9292SOL    HW229551   4.339   6.504   6.215  1.7986 -0.3136  0.4338
 9293SOL     OW29552   8.677   3.280   6.019 -0.0801  0.1854  0.0110
 9293SOL    HW129553   8.616   3.210   5.998 -1.1587  1.2489 -0.5466
 9293SOL    HW229554   8.733   3.288   5.941  0.8890 -0.8745  0.5719
 9294SOL     OW29555   3.941   5.205   8.444 -0.1721  0.0693 -0.2468
 9294SOL    HW129556   3.957   5.297   8.422  0.4202 -0.0231 -0.2229
 9294SOL    HW229557   3.882   5.209   8.519 -0.1923  0.4296 -0.2779
 9295SOL     OW29558   0.299   0.459   1.711 -0.6850 -0.2546  0.6933
 9295SOL    HW129559   0.302   0.532   1.650  1.5369 -0.3442  0.6082
 9295SOL    HW229560   0.340   0.386   1.663  2.1115 -0.0512  2.5274
 9296SOL     OW29561   7.677   3.263   7.794  0.2355  0.2050  0.8441
 9296SOL    HW129562   7.707   3.275   7.704  0.2313  0.1189  0.8319
 9296SOL    HW229563   7.697   3.172   7.815 -0.2359  0.0764  0.7514
 9297SOL     OW29564   2.595   8.122   5.019  0.1113 -0.0516 -0.7821
 9297SOL    HW129565   2.666   8.113   5.082 -1.1895  2.5643  1.2398
 9297SOL    HW229566   2.631   8.180   4.951  0.8639 -1.2764 -1.4694
 9298SOL     OW29567   3.639   5.972   3.356 -0.1282 -0.2092 -0.2029
 9298SOL    HW129568   3.592   5.905   3.306  0.1633 -1.3245  0.9355
 9298SOL    HW229569   3.592   5.975   3.440  0.1247  0.7295 -0.0864
 9299SOL     OW29570   0.591   4.253   9.422 -0.1659 -0.1206  0.2281
 9299SOL    HW129571   0.542   4.255   9.340  0.1990 -0.4151  0.0011
 9299SOL    HW229572   0.660   4.189   9.407  2.0236  2.2174 -0.4453
 9300SOL     OW29573   4.621   9.506   2.968  0.0094 -0.0322 -0.3785
 9300SOL    HW129574   4.579   9.588   2.945 -1.0115 -0.4572 -0.1136
 9300SOL    HW229575   4.639   9.463   2.885  0.2584  0.3139 -0.5054
 9301SOL     OW29576   6.824   6.041   8.072  0.5038 -0.3284  0.2331
 9301SOL    HW129577   6.854   6.123   8.112 -1.0769 -0.8054  2.6198
 9301SOL    HW229578   6.879   6.030   7.994  0.3893  3.2611 -0.5130
 9302SOL     OW29579   6.480   6.608   6.395  0.2222 -0.3800 -0.1928
 9302SOL    HW129580   6.386   6.624   6.388  0.4016  0.6618 -0.3378
 9302SOL    HW229581   6.513   6.678   6.452  1.0429 -0.2065 -0.8528
 9303SOL     OW29582   3.606   8.345   0.369  0.3732  0.3009 -0.2072
 9303SOL    HW129583   3.596   8.269   0.427  0.1486  0.8445  0.4789
 9303SOL    HW229584   3.538   8.334   0.303  1.2588 -0.8419 -0.9735
 9304SOL     OW29585   1.263   4.742   6.621  0.1418 -1.0299 -0.8463
 9304SOL    HW129586   1.180   4.772   6.584 -0.8827 -1.5508  0.9469
 9304SOL    HW229587   1.305   4.821   6.655 -0.7663 -1.0669  0.4146
 9305SOL     OW29588   5.610   6.342   6.238  0.4642 -0.1793 -0.1008
 9305SOL    HW129589   5.682   6.306   6.291 -0.0848  0.2128  0.9483
 9305SOL    HW229590   5.533   6.292   6.265  0.0218  0.5852  0.0881
 9306SOL     OW29591   7.290   2.327   5.882 -0.5878 -0.4765  0.0911
 9306SOL    HW129592   7.339   2.293   5.808  0.5922  0.0282  0.5978
 9306SOL    HW229593   7.229   2.258   5.905 -1.0233 -0.6060 -1.3802
 9307SOL     OW29594   2.612   0.748   0.809  0.8091  0.0394  0.1193
 9307SOL    HW129595   2.665   0.769   0.885  1.8832 -1.2882 -0.2400
 9307SOL    HW229596   2.630   0.656   0.791 -0.3761 -0.0054 -0.9971
 9308SOL     OW29597   2.762   4.467   8.768 -0.0245 -0.4678  0.2157
 9308SOL    HW129598   2.670   4.477   8.794  0.4400 -1.9124  2.8814
 9308SOL    HW229599   2.796   4.401   8.829  3.1289  1.0017  0.2352
 9309SOL     OW29600   8.478   2.731   8.032 -0.2363  0.2280 -0.2205
 9309SOL    HW129601   8.446   2.764   7.948  0.1753  1.2042 -0.0123
 9309SOL    HW229602   8.456   2.638   8.031 -0.2264  0.2178 -1.4104
 9310SOL     OW29603   7.783   0.068   6.494 -0.2282  0.3445 -0.7300
 9310SOL    HW129604   7.841   0.013   6.547 -1.6861  0.1586  0.7495
 9310SOL    HW229605   7.840   0.105   6.427  2.0560  1.6182  1.7018
 9311SOL     OW29606   4.334   3.840   1.574  0.2821 -0.2964 -0.4149
 9311SOL    HW129607   4.268   3.779   1.607 -0.1391  0.6593  0.5497
 9311SOL    HW229608   4.393   3.853   1.648  0.4271  0.3895 -0.6474
 9312SOL     OW29609   3.978   4.906   5.547 -0.1230  0.2623  0.1221
 9312SOL    HW129610   3.988   4.870   5.459 -0.5091  1.5135 -0.4544
 9312SOL    HW229611   4.054   4.963   5.558  0.5406 -0.7610  1.0651
 9313SOL     OW29612   2.192   4.794   2.176 -0.1002 -0.2513 -0.1888
 9313SOL    HW129613   2.143   4.873   2.154  0.6270  0.2454 -0.0549
 9313SOL    HW229614   2.154   4.765   2.259 -1.1362 -0.6963 -0.8047
 9314SOL     OW29615   4.484   7.764   8.275 -0.4359  0.3345  0.2512
 9314SOL    HW129616   4.415   7.697   8.274 -1.1406  1.0305  0.7075
 9314SOL    HW229617   4.436   7.847   8.285  0.4962  0.8023  1.0101
 9315SOL     OW29618   0.248   0.172   4.337  0.0172  0.3041 -0.5475
 9315SOL    HW129619   0.227   0.257   4.300 -1.4174 -0.4210 -1.5012
 9315SOL    HW229620   0.255   0.114   4.261  1.6149 -0.3176  0.0333
 9316SOL     OW29621   4.997   9.005   7.245 -0.4018  0.2176  0.1241
 9316SOL    HW129622   5.073   8.954   7.216 -0.0308  0.6948  0.2554
 9316SOL    HW229623   5.026   9.047   7.326 -0.4344  1.2761 -0.3996
 9317SOL     OW29624   0.265   6.277   8.234 -0.1241 -0.1411 -0.3116
 9317SOL    HW129625   0.189   6.331   8.255 -0.0802 -0.3930  0.5123
 9317SOL    HW229626   0.290   6.304   8.145  1.9510  3.6375  1.2085
 9318SOL     OW29627   3.525   4.261   7.555 -0.3047 -0.1690  0.0637
 9318SOL    HW129628   3.613   4.236   7.580 -0.1606  0.2464 -0.0173
 9318SOL    HW229629   3.514   4.349   7.591 -0.7697 -0.3138  0.2784
 9319SOL     OW29630   0.088   2.224   1.725  0.1858 -0.0813 -0.1758
 9319SOL    HW129631   0.088   2.194   1.634 -0.4574 -0.1163 -0.1710
 9319SOL    HW229632   0.018   2.173   1.767  1.9336 -1.7376  0.9160
 9320SOL     OW29633   6.411   0.435   1.536 -0.1280  0.1031  0.3710
 9320SOL    HW129634   6.346   0.397   1.478  0.1752 -0.0234  0.1127
 9320SOL    HW229635   6.434   0.364   1.596 -0.0573  0.0800  0.3161
 9321SOL     OW29636   3.038   2.164   5.736 -0.2636 -0.1224  0.1822
 9321SOL    HW129637   2.959   2.136   5.782  0.4871 -1.4671  0.7247
 9321SOL    HW229638   3.025   2.136   5.646 -0.2510 -0.7324  0.3608
 9322SOL     OW29639   7.618   4.011   5.948  0.1375 -0.4176 -0.6507
 9322SOL    HW129640   7.563   4.006   5.870 -1.0425 -0.9180  0.2001
 9322SOL    HW229641   7.659   3.924   5.953  1.2828  0.0507 -1.4537
 9323SOL     OW29642   3.348   3.410   8.804  0.3839  0.3673 -0.0494
 9323SOL    HW129643   3.427   3.356   8.817  0.5561  0.6087 -0.0944
 9323SOL    HW229644   3.281   3.366   8.856  1.1783  1.6041  2.1795
 9324SOL     OW29645   3.026   9.083   9.148  0.2441  0.3069 -0.4296
 9324SOL    HW129646   3.122   9.077   9.148  0.3268 -0.5499  2.8262
 9324SOL    HW229647   2.997   9.008   9.199 -2.2160  0.4867 -1.4093
 9325SOL     OW29648   7.230   1.357   7.488  0.0760  0.0689 -0.3950
 9325SOL    HW129649   7.151   1.320   7.528  0.8466 -0.6794  0.4783
 9325SOL    HW229650   7.278   1.281   7.455  1.7728  0.1964  1.5792
 9326SOL     OW29651   6.152   4.373   7.974 -0.4360 -0.2868  0.0416
 9326SOL    HW129652   6.075   4.395   8.027  0.5683  0.7386  1.1171
 9326SOL    HW229653   6.210   4.326   8.034  0.6055  0.6627 -0.2051
 9327SOL     OW29654   3.318   4.778   5.717 -0.1211 -0.5410  0.0096
 9327SOL    HW129655   3.284   4.755   5.804 -1.7098 -0.7991 -0.6292
 9327SOL    HW229656   3.345   4.694   5.679  0.7396 -0.4053  0.3172
 9328SOL     OW29657   7.593   8.178   7.812 -0.0443  0.0470  1.0594
 9328SOL    HW129658   7.662   8.219   7.759  0.2915  0.2884  1.6702
 9328SOL    HW229659   7.519   8.169   7.752  0.0285  1.1382  0.7822
 9329SOL     OW29660   4.469   0.518   1.466  0.6979  0.8072  0.4688
 9329SOL    HW129661   4.383   0.485   1.442  0.4861  0.3504  1.7639
 9329SOL    HW229662   4.453   0.609   1.494  1.1502  1.8243 -2.2684
 9330SOL     OW29663   0.585   2.767   5.695  0.3139  0.6638  0.5508
 9330SOL    HW129664   0.590   2.691   5.752 -1.4417  0.4024  0.4204
 9330SOL    HW229665   0.534   2.831   5.745  1.1067  1.4732  0.3482
 9331SOL     OW29666   7.165   0.954   5.908  0.1000  0.3296  0.1281
 9331SOL    HW129667   7.194   0.897   5.836 -0.5762  1.6312 -1.2365
 9331SOL    HW229668   7.218   0.926   5.983  0.8359 -1.0873 -0.8565
 9332SOL     OW29669   9.227   6.381   7.547 -0.2064  0.7449  0.9144
 9332SOL    HW129670   9.212   6.339   7.631  1.8548  0.7336  1.3404
 9332SOL    HW229671   9.270   6.314   7.493 -0.5486  1.0751  0.2097
 9333SOL     OW29672   3.509   1.134   3.618 -0.9122  0.1858  0.1833
 9333SOL    HW129673   3.552   1.099   3.695 -1.4301  0.1511  0.4628
 9333SOL    HW229674   3.574   1.190   3.576 -1.0503  1.2347  1.3437
 9334SOL     OW29675   7.932   7.930   6.473  0.3912  0.3178 -0.5294
 9334SOL    HW129676   7.933   7.992   6.546  1.8395 -0.6849  0.3370
 9334SOL    HW229677   7.911   7.984   6.396  1.4010  1.8570  0.2272
 9335SOL     OW29678   7.929   7.471   5.217  0.2736  0.6958  0.2790
 9335SOL    HW129679   8.001   7.418   5.250 -1.4933 -0.6687  2.1710
 9335SOL    HW229680   7.921   7.543   5.280 -0.9525 -0.0133  0.9591
 9336SOL     OW29681   6.523   1.070   7.417 -0.8221 -0.3182  0.1371
 9336SOL    HW129682   6.574   0.992   7.397 -0.1991 -0.7629  3.0240
 9336SOL    HW229683   6.443   1.060   7.366 -0.5597 -2.6268  0.0630
 9337SOL     OW29684   5.601   5.518   3.717 -0.2217 -0.3199 -0.6990
 9337SOL    HW129685   5.639   5.522   3.805 -1.0819 -1.4748 -0.2541
 9337SOL    HW229686   5.543   5.594   3.712 -0.6185 -0.5724 -0.0353
 9338SOL     OW29687   6.685   9.215   5.925  0.0240  0.5149 -0.1068
 9338SOL    HW129688   6.634   9.138   5.902  1.6613 -0.3917 -0.8365
 9338SOL    HW229689   6.731   9.238   5.845  1.7123  0.5488  0.8399
 9339SOL     OW29690   7.191   6.347   4.211  0.2885 -0.0628  0.1301
 9339SOL    HW129691   7.256   6.398   4.259 -0.1900  0.5490  0.1298
 9339SOL    HW229692   7.144   6.298   4.278  0.5813 -0.3128  0.1534
 9340SOL     OW29693   8.795   6.779   3.152  0.2521 -0.2900  0.0474
 9340SOL    HW129694   8.721   6.745   3.202  0.8344 -1.5442  0.0765
 9340SOL    HW229695   8.758   6.853   3.103 -0.8828 -0.5361  0.4942
 9341SOL     OW29696   0.244   2.406   9.274 -0.0638 -0.1257  0.1004
 9341SOL    HW129697   0.292   2.462   9.336  0.0846 -0.2244  0.0736
 9341SOL    HW229698   0.152   2.420   9.297 -0.0010 -0.2980  0.4615
 9342SOL     OW29699   9.225   6.901   4.416  0.1407 -0.2114  0.5102
 9342SOL    HW129700   9.296   6.854   4.372  0.4866 -0.2315  1.0722
 9342SOL    HW229701   9.250   6.993   4.411 -0.8139  0.0025 -1.0872
 9343SOL     OW29702   0.191   2.296   1.981  0.6788 -0.2496 -0.0493
 9343SOL    HW129703   0.103   2.281   1.945 -0.0633  1.0277  1.1193
 9343SOL    HW229704   0.250   2.279   1.908 -0.7741  2.4514 -2.0621
 9344SOL     OW29705   4.834   2.722   4.727 -0.5417  0.0054 -0.2828
 9344SOL    HW129706   4.866   2.807   4.757  0.2851 -0.1095 -0.8026
 9344SOL    HW229707   4.740   2.725   4.744 -0.5001  0.9518 -0.1303
 9345SOL     OW29708   9.251   6.665   3.833 -0.3340 -0.1238  0.1468
 9345SOL    HW129709   9.222   6.719   3.758  2.1379  0.6321 -0.3532
 9345SOL    HW229710   9.247   6.725   3.908  2.1053  0.7761 -0.3533
 9346SOL     OW29711   2.684   2.815   8.354 -0.6717  0.0236 -0.0096
 9346SOL    HW129712   2.699   2.845   8.443 -2.0129 -0.9460  0.5728
 9346SOL    HW229713   2.673   2.896   8.303  0.9093  0.6032  0.5153
 9347SOL     OW29714   0.332   8.985   3.730 -0.3675 -0.3885  0.8741
 9347SOL    HW129715   0.393   8.936   3.785  1.8887  0.0217 -1.0455
 9347SOL    HW229716   0.340   8.944   3.643 -0.3165  1.7158 -0.1901
 9348SOL     OW29717   9.304   7.671   0.422 -0.9035  0.1004 -0.0563
 9348SOL    HW129718   9.377   7.611   0.411  0.1352  1.2787  0.1475
 9348SOL    HW229719   9.239   7.621   0.472 -0.8595 -1.4346 -1.4406
 9349SOL     OW29720   3.117   8.734   6.036  0.2398  0.6962  0.5799
 9349SOL    HW129721   3.148   8.643   6.028  0.1605  0.8073 -1.5700
 9349SOL    HW229722   3.149   8.762   6.121  1.5666 -0.8837  0.6687
 9350SOL     OW29723   7.211   3.505   0.810  0.1930 -0.5527  0.5336
 9350SOL    HW129724   7.128   3.507   0.858  0.1643 -1.5539  0.5366
 9350SOL    HW229725   7.190   3.542   0.724 -0.2245 -0.6932  0.5755
 9351SOL     OW29726   0.583   7.343   3.052  0.6195 -0.0645 -0.5085
 9351SOL    HW129727   0.516   7.348   3.120 -0.3586  0.0029 -1.4459
 9351SOL    HW229728   0.574   7.255   3.016  1.9956 -0.5634  0.2738
 9352SOL     OW29729   2.230   2.142   8.420 -0.1948  0.2301 -0.6723
 9352SOL    HW129730   2.259   2.068   8.367  2.1669  0.0933  0.6810
 9352SOL    HW229731   2.235   2.217   8.362 -0.1438 -0.2895 -1.3483
 9353SOL     OW29732   3.385   6.818   2.971 -0.0908  0.4912  0.3475
 9353SOL    HW129733   3.345   6.735   2.943 -0.1305  0.3846  0.7222
 9353SOL    HW229734   3.315   6.864   3.016 -0.2054  0.9383 -0.2661
 9354SOL     OW29735   7.674   5.262   9.119  0.1185  0.2926  1.0183
 9354SOL    HW129736   7.651   5.208   9.194 -0.8627 -1.0349 -0.1691
 9354SOL    HW229737   7.630   5.220   9.045  0.0864  2.2195 -0.1252
 9355SOL     OW29738   3.392   1.345   1.166 -0.7598  0.0584 -0.1676
 9355SOL    HW129739   3.342   1.298   1.233 -0.6104  0.5682  0.3126
 9355SOL    HW229740   3.349   1.322   1.083 -0.7850 -0.7880  0.0711
 9356SOL     OW29741   6.352   0.961   9.324 -0.2128 -0.2757 -0.6676
 9356SOL    HW129742   6.435   0.926   9.357 -0.4817 -0.8751 -0.6071
 9356SOL    HW229743   6.363   1.056   9.326 -0.8513 -0.1674  2.8581
 9357SOL     OW29744   3.843   9.513   5.080  0.3409 -0.5598  0.3980
 9357SOL    HW129745   3.804   9.530   5.166  1.6551  0.0451  0.9166
 9357SOL    HW229746   3.802   9.432   5.050 -1.8816  0.4473  0.5168
 9358SOL     OW29747   6.054   4.366   0.941 -0.2560 -0.1608  0.3049
 9358SOL    HW129748   5.971   4.390   0.899  0.3897 -1.3943 -1.8644
 9358SOL    HW229749   6.031   4.348   1.032 -1.8731  2.0649  0.4015
 9359SOL     OW29750   2.822   0.676   9.450 -0.7860 -0.5050  0.3538
 9359SOL    HW129751   2.794   0.665   9.541 -1.1726 -0.2500  0.2714
 9359SOL    HW229752   2.891   0.742   9.455 -0.1482 -1.1698  0.5639
 9360SOL     OW29753   8.835   6.892   5.838 -0.6083 -0.6620  0.0276
 9360SOL    HW129754   8.768   6.867   5.774 -1.9713 -2.3089  1.9722
 9360SOL    HW229755   8.878   6.810   5.862  0.3189  0.0079  0.7536
 9361SOL     OW29756   5.773   4.362   3.026  0.6714  0.4782  0.0804
 9361SOL    HW129757   5.770   4.386   2.933 -1.1541  0.5803  0.1421
 9361SOL    HW229758   5.753   4.268   3.027  0.8210  0.4500  0.3718
 9362SOL     OW29759   5.233   7.482   2.108  1.0127 -0.4951  0.3877
 9362SOL    HW129760   5.325   7.506   2.094  0.7684 -0.6248 -1.8022
 9362SOL    HW229761   5.193   7.561   2.145  1.4842  0.4562 -1.0614
 9363SOL     OW29762   9.669   8.556   1.943  0.0418 -0.1081  0.1984
 9363SOL    HW129763   9.656   8.475   1.991  0.3354  0.0715  0.5895
 9363SOL    HW229764   9.581   8.585   1.918  0.0088 -1.1544 -0.9736
 9364SOL     OW29765   0.529   4.271   6.005  0.2584 -0.1441 -0.2778
 9364SOL    HW129766   0.577   4.250   6.085  1.2244  1.7290 -0.3103
 9364SOL    HW229767   0.592   4.319   5.952 -0.5436 -0.8831 -1.9475
 9365SOL     OW29768   8.088   3.981   1.476  0.3367 -0.6697  0.3738
 9365SOL    HW129769   8.071   3.886   1.481 -1.4113 -0.4233 -0.0608
 9365SOL    HW229770   8.171   3.993   1.521  0.8585 -2.4840 -0.0215
 9366SOL     OW29771   4.139   6.161   1.473 -0.3015 -0.0538  0.1223
 9366SOL    HW129772   4.097   6.227   1.418  0.8511  0.2166 -0.4815
 9366SOL    HW229773   4.100   6.172   1.559  1.2406  2.8123  0.5879
 9367SOL     OW29774   4.329   4.996   8.303  0.2454 -0.4129 -0.1761
 9367SOL    HW129775   4.241   5.031   8.287  0.2342 -0.6724 -0.7288
 9367SOL    HW229776   4.362   4.973   8.215  1.4662  1.0676 -0.1344
 9368SOL     OW29777   5.275   4.407   9.308 -0.4789  0.0782 -0.5512
 9368SOL    HW129778   5.220   4.329   9.301 -0.7836  0.3429 -1.2084
 9368SOL    HW229779   5.353   4.387   9.256 -0.1775 -0.1017 -0.0386
 9369SOL     OW29780   9.649   8.498   4.053 -0.3718  0.1767  0.1257
 9369SOL    HW129781   9.710   8.536   3.989 -1.2122  0.9637 -0.2259
 9369SOL    HW229782   9.565   8.496   4.008 -0.3429 -2.3881  0.0237
 9370SOL     OW29783   2.499   7.901   4.640 -0.5959  0.3961 -0.4423
 9370SOL    HW129784   2.441   7.953   4.695  0.9700  0.6619  1.0458
 9370SOL    HW229785   2.530   7.962   4.573  0.0648  1.0014  0.3958
 9371SOL     OW29786   1.154   5.731   1.292 -0.0925  0.1391 -0.4141
 9371SOL    HW129787   1.154   5.820   1.258 -0.9384  0.6224  0.7863
 9371SOL    HW229788   1.242   5.698   1.273  0.2251  1.2069 -0.8865
 9372SOL     OW29789   3.447   3.401   8.184 -0.6307  0.0206 -0.2534
 9372SOL    HW129790   3.480   3.488   8.205 -1.4228  0.3468 -0.3157
 9372SOL    HW229791   3.417   3.366   8.268  0.3814 -0.5113 -0.0940
 9373SOL     OW29792   1.209   0.722   6.568 -0.3056  0.1045  0.0014
 9373SOL    HW129793   1.120   0.710   6.534 -1.6138  1.3422  2.6437
 9373SOL    HW229794   1.203   0.800   6.623  2.3623  0.0076  0.5742
 9374SOL     OW29795   1.900   6.691   5.270  0.2040  0.6665 -0.2813
 9374SOL    HW129796   1.864   6.688   5.181 -2.1208 -1.7106  0.6178
 9374SOL    HW229797   1.831   6.732   5.322  0.5383 -0.1466  0.8265
 9375SOL     OW29798   2.736   6.943   7.975 -0.9549 -0.7820 -0.5699
 9375SOL    HW129799   2.831   6.950   7.971 -1.0659  1.8744 -0.1197
 9375SOL    HW229800   2.720   6.877   8.043  0.6010  0.6539  1.2899
 9376SOL     OW29801   0.558   6.826   6.546 -0.2180 -0.4552 -0.2995
 9376SOL    HW129802   0.603   6.746   6.572 -2.2105 -1.3727  0.4478
 9376SOL    HW229803   0.509   6.853   6.623  1.5324  2.3841 -0.0251
 9377SOL     OW29804   4.253   5.184   0.031 -0.2696 -0.4666 -0.6330
 9377SOL    HW129805   4.283   5.245  -0.036 -0.5772  1.6226  1.0649
 9377SOL    HW229806   4.311   5.199   0.106 -2.0198 -0.3366  0.7463
 9378SOL     OW29807   2.163   1.907   2.143  0.6307  0.0292  0.2336
 9378SOL    HW129808   2.073   1.875   2.148  0.8859 -0.5302  1.7499
 9378SOL    HW229809   2.212   1.852   2.204  1.8573  0.8053 -0.0094
 9379SOL     OW29810   6.661   3.993   8.510  0.3917 -0.0378  0.2136
 9379SOL    HW129811   6.706   4.062   8.558  2.4848  0.9804 -2.8583
 9379SOL    HW229812   6.710   3.913   8.532  2.4618  0.6983 -1.3646
 9380SOL     OW29813   9.632   1.078   0.604  0.3344  0.0256 -0.5195
 9380SOL    HW129814   9.687   1.146   0.644  0.7995 -1.4745  1.6146
 9380SOL    HW229815   9.550   1.083   0.653  0.0202 -0.3103 -1.0100
 9381SOL     OW29816   6.232   6.383   4.790  0.8128 -0.3011 -0.0456
 9381SOL    HW129817   6.316   6.399   4.832  1.6093  0.0712 -1.7275
 9381SOL    HW229818   6.174   6.450   4.826  1.8612  0.9407 -0.6136
 9382SOL     OW29819   8.539   0.661   3.856  0.1731  0.6055  0.4966
 9382SOL    HW129820   8.493   0.691   3.935 -1.1600 -1.2633  0.4957
 9382SOL    HW229821   8.487   0.696   3.784 -1.6034 -1.7995  0.4929
 9383SOL     OW29822   4.004   0.617   7.502  0.0680  0.1658 -0.3913
 9383SOL    HW129823   3.991   0.522   7.494  3.1458 -0.2063 -3.1509
 9383SOL    HW229824   4.084   0.627   7.553  1.7439  0.9643 -2.9655
 9384SOL     OW29825   6.351   2.117   0.286 -0.4058 -0.2091 -0.3764
 9384SOL    HW129826   6.418   2.168   0.240  0.0556  0.1571  0.6787
 9384SOL    HW229827   6.343   2.037   0.233  0.1166  0.1909 -1.0885
 9385SOL     OW29828   6.068   0.265   2.218 -0.3485 -0.5649 -0.1376
 9385SOL    HW129829   6.142   0.307   2.173 -0.8034 -0.8769 -1.2022
 9385SOL    HW229830   6.109   0.218   2.291  0.7178 -1.8346 -1.4725
 9386SOL     OW29831   9.267   8.892   2.457  0.2737 -0.4513  0.1587
 9386SOL    HW129832   9.327   8.966   2.470  1.9471 -1.4967 -1.1668
 9386SOL    HW229833   9.193   8.930   2.408  0.1387  0.7133  1.2107
 9387SOL     OW29834   4.823   1.251   0.349 -0.2961 -0.3973 -0.3080
 9387SOL    HW129835   4.828   1.237   0.443  0.7082  0.5860 -0.1831
 9387SOL    HW229836   4.891   1.317   0.331 -0.8875 -0.1046 -1.6214
 9388SOL     OW29837   6.198   6.569   8.867 -0.0855 -0.2979 -0.4316
 9388SOL    HW129838   6.104   6.556   8.860 -0.6421  1.2585  2.5516
 9388SOL    HW229839   6.234   6.481   8.882 -1.1010 -0.8400 -1.1178
 9389SOL     OW29840   2.538   5.288   6.113 -0.4812  0.0132  0.2457
 9389SOL    HW129841   2.627   5.255   6.119 -0.1877  0.9170  1.2516
 9389SOL    HW229842   2.548   5.383   6.101 -1.2937 -0.0858 -1.5351
 9390SOL     OW29843   6.805   6.079   8.422 -0.4636 -0.4161  0.6438
 9390SOL    HW129844   6.862   6.144   8.463  0.9022 -1.3292  0.2685
 9390SOL    HW229845   6.853   6.052   8.343 -1.6305 -0.9023  0.0888
 9391SOL     OW29846   1.174   5.556   3.780  0.1236 -0.3630  0.1727
 9391SOL    HW129847   1.085   5.542   3.814 -0.1997  0.6857 -0.2154
 9391SOL    HW229848   1.208   5.629   3.831  0.1112  0.3741 -0.8345
 9392SOL     OW29849   2.157   3.310   2.975 -0.3288 -0.0856 -0.0958
 9392SOL    HW129850   2.170   3.383   2.914 -0.3897  0.3797  0.4331
 9392SOL    HW229851   2.246   3.286   3.003 -0.1584 -1.5194 -1.7386
 9393SOL     OW29852   7.694   0.428   8.592 -0.1095 -0.6753  0.1542
 9393SOL    HW129853   7.705   0.510   8.641 -2.1379 -1.1260  1.5325
 9393SOL    HW229854   7.722   0.448   8.503  0.3160  1.2490  0.6811
 9394SOL     OW29855   3.258   5.978   5.953 -0.2437  0.2722 -0.1088
 9394SOL    HW129856   3.215   5.952   6.035  0.8402  0.2669  0.4825
 9394SOL    HW229857   3.236   6.071   5.944 -0.2403  0.3148  0.2803
 9395SOL     OW29858   6.252   1.162   1.812  0.9282 -0.2182 -0.3926
 9395SOL    HW129859   6.217   1.211   1.738  0.0075 -0.9011 -0.4272
 9395SOL    HW229860   6.201   1.192   1.887  0.6665 -0.7960 -0.3382
 9396SOL     OW29861   6.070   4.105   3.637  0.4801  0.5683 -0.1856
 9396SOL    HW129862   6.124   4.088   3.560 -1.9357  0.9148 -2.0496
 9396SOL    HW229863   6.042   4.196   3.628  0.0873  0.5998  1.0720
 9397SOL     OW29864   2.803   9.010   8.113  0.1118  0.1327  0.2146
 9397SOL    HW129865   2.745   8.964   8.053  2.0615 -1.1890 -0.7411
 9397SOL    HW229866   2.849   9.074   8.059 -0.9866  1.7813  1.1256
 9398SOL     OW29867   1.461   6.108   7.627 -0.3017  0.3524  0.1516
 9398SOL    HW129868   1.518   6.038   7.660  0.0411  0.6880  0.2880
 9398SOL    HW229869   1.390   6.113   7.690 -1.6919 -1.5447 -1.1492
 9399SOL     OW29870   3.698   2.835   8.982  0.1624  0.0146  0.3096
 9399SOL    HW129871   3.748   2.910   9.012  1.7044 -1.4812  1.7327
 9399SOL    HW229872   3.723   2.824   8.890 -0.4006  1.4396 -0.0295
 9400SOL     OW29873   4.668   7.224   6.261  0.3741 -0.4044  0.4486
 9400SOL    HW129874   4.698   7.306   6.222 -1.1507  1.0141  2.0806
 9400SOL    HW229875   4.748   7.182   6.292  1.2340  0.2153 -0.8493
 9401SOL     OW29876   5.032   6.793   1.234  0.2548 -0.2818 -0.5282
 9401SOL    HW129877   5.078   6.875   1.253 -0.3335 -0.1131  0.2000
 9401SOL    HW229878   4.989   6.808   1.150  0.1715  0.1517 -0.4093
 9402SOL     OW29879   9.288   7.875   9.160  0.6013 -0.4880  0.0590
 9402SOL    HW129880   9.341   7.853   9.237  0.7380 -2.0844 -0.4394
 9402SOL    HW229881   9.275   7.969   9.165  0.2161 -0.6143  2.2816
 9403SOL     OW29882   3.059   6.019   5.457  0.4563 -0.1929  0.1231
 9403SOL    HW129883   3.123   5.954   5.430 -1.2500 -0.8345 -2.7283
 9403SOL    HW229884   3.093   6.102   5.424 -0.8826 -0.7740 -3.1326
 9404SOL     OW29885   2.864   1.061   5.429 -0.5178  0.4980 -0.5208
 9404SOL    HW129886   2.934   1.023   5.483 -3.4605 -2.3435  1.6495
 9404SOL    HW229887   2.884   1.031   5.340  0.8812 -0.4926  0.0788
 9405SOL     OW29888   5.156   8.036   6.556 -0.0184 -0.1698 -0.0598
 9405SOL    HW129889   5.201   8.015   6.474  0.1082 -0.4179  0.0713
 9405SOL    HW229890   5.199   8.117   6.587  1.0736 -0.9600  0.5961
 9406SOL     OW29891   4.553   7.235   9.421 -0.4713  0.3053 -0.1240
 9406SOL    HW129892   4.569   7.168   9.355  1.2352 -1.5399  1.9873
 9406SOL    HW229893   4.479   7.201   9.472 -0.7721  0.9372 -0.1360
 9407SOL     OW29894   7.326   1.134   1.382 -0.1268  0.4234 -0.3103
 9407SOL    HW129895   7.306   1.156   1.291 -2.2255  0.2210  0.0474
 9407SOL    HW229896   7.241   1.112   1.420  1.0488 -2.3008  0.9681
 9408SOL     OW29897   7.474   0.412   0.210  0.2019  0.1407 -0.3565
 9408SOL    HW129898   7.535   0.377   0.145  2.9646 -1.1927  2.7049
 9408SOL    HW229899   7.523   0.482   0.254 -1.3665  0.6564  0.6497
 9409SOL     OW29900   1.311   2.230   6.566  0.3563 -0.2252  0.3576
 9409SOL    HW129901   1.405   2.234   6.579  0.3035 -1.5138  1.5123
 9409SOL    HW229902   1.299   2.209   6.473  1.1499  0.9238 -0.0153
 9410SOL     OW29903   6.430   0.379   6.260  0.0546  0.1297  0.0559
 9410SOL    HW129904   6.379   0.454   6.291 -1.5861 -1.1112  0.5209
 9410SOL    HW229905   6.515   0.388   6.303 -0.6283  0.9259  1.3099
 9411SOL     OW29906   2.550   3.094   9.111  0.4678 -0.5225  0.1706
 9411SOL    HW129907   2.605   3.020   9.137  0.2447 -0.4748  0.7993
 9411SOL    HW229908   2.508   3.065   9.030  2.0994 -0.2110 -0.8192
 9412SOL     OW29909   1.755   5.217   6.067  0.1172  0.1923 -0.0702
 9412SOL    HW129910   1.678   5.165   6.088 -0.0371  0.4685  0.0455
 9412SOL    HW229911   1.817   5.197   6.138 -0.5851  1.5066  0.9552
 9413SOL     OW29912   4.615   6.428   0.668 -0.5047  0.1132  0.1966
 9413SOL    HW129913   4.705   6.398   0.655  0.0781  1.3394  1.1326
 9413SOL    HW229914   4.606   6.504   0.611 -1.9175 -1.5967 -2.0440
 9414SOL     OW29915   3.203   2.612   0.831  0.4041 -0.1007  0.1772
 9414SOL    HW129916   3.109   2.622   0.816  0.1725 -0.1340  1.5361
 9414SOL    HW229917   3.211   2.597   0.925  1.7235 -0.7456 -0.0178
 9415SOL     OW29918   3.411   6.696   6.954  0.0116  0.0148  0.4618
 9415SOL    HW129919   3.455   6.611   6.964  0.6610  0.2410 -0.3647
 9415SOL    HW229920   3.436   6.725   6.866 -1.7097  0.2082  0.0086
 9416SOL     OW29921   7.906   4.219   4.110 -0.3411 -0.2257  0.5095
 9416SOL    HW129922   7.811   4.211   4.119 -0.6150  0.0239 -1.6830
 9416SOL    HW229923   7.941   4.174   4.187 -2.1343 -4.1796 -0.6980
 9417SOL     OW29924   3.555   8.205   2.195 -0.6553  0.1771  1.4298
 9417SOL    HW129925   3.637   8.253   2.204 -0.1396  0.0447 -1.5303
 9417SOL    HW229926   3.505   8.256   2.131 -1.7685 -1.1212  1.2269
 9418SOL     OW29927   4.488   3.124   5.559  0.1300 -0.1654 -0.0959
 9418SOL    HW129928   4.505   3.053   5.497  1.8342  0.7250 -0.7273
 9418SOL    HW229929   4.516   3.089   5.643  0.6225 -0.3816 -0.3425
 9419SOL     OW29930   5.936   7.953   6.891  0.0686 -0.0609  0.1061
 9419SOL    HW129931   5.931   7.913   6.804 -1.0125  2.2501 -0.9760
 9419SOL    HW229932   5.877   7.900   6.944  1.4443 -2.0821 -0.2530
 9420SOL     OW29933   0.434   4.808   9.562  0.2726 -0.4025 -0.1988
 9420SOL    HW129934   0.450   4.773   9.475 -1.5698  0.4945 -0.9677
 9420SOL    HW229935   0.338   4.818   9.567  0.4356  0.9271  1.3736
 9421SOL     OW29936   8.569   4.710   2.494  0.1844  0.1323 -0.4154
 9421SOL    HW129937   8.600   4.650   2.561  1.6720  3.1162  1.8059
 9421SOL    HW229938   8.639   4.712   2.429  0.3598 -0.1235 -0.2325
 9422SOL     OW29939   7.246   5.075   4.549  0.4825  0.2946 -0.1935
 9422SOL    HW129940   7.233   4.985   4.577  1.2917  0.0315 -0.6264
 9422SOL    HW229941   7.326   5.103   4.595  0.8630  0.4177 -0.9222
 9423SOL     OW29942   5.382   3.816   7.440  0.6344  0.4234 -0.0477
 9423SOL    HW129943   5.426   3.828   7.524 -0.6305 -0.3800  0.7660
 9423SOL    HW229944   5.438   3.756   7.391  0.2294 -1.0224  1.1750
 9424SOL     OW29945   9.455   4.645   9.427 -0.3179 -0.1797  0.0402
 9424SOL    HW129946   9.410   4.693   9.496 -0.1375 -2.5433  1.9360
 9424SOL    HW229947   9.547   4.644   9.454 -0.2332 -1.0570 -0.2331
 9425SOL     OW29948   9.384   3.064   7.895 -0.3443  0.3578 -0.2912
 9425SOL    HW129949   9.311   3.023   7.942 -0.3805  1.6877  0.8728
 9425SOL    HW229950   9.462   3.032   7.941  0.0993 -2.8441 -2.8723
 9426SOL     OW29951   4.784   4.375   6.506 -0.1234 -0.7712 -0.2558
 9426SOL    HW129952   4.726   4.354   6.433 -0.1701 -0.7434 -0.2268
 9426SOL    HW229953   4.732   4.432   6.563 -0.5415 -1.8294  0.4561
 9427SOL     OW29954   3.715   7.970   0.830 -0.2685  0.2025 -0.0656
 9427SOL    HW129955   3.633   7.974   0.879 -0.4576 -0.4559 -0.3231
 9427SOL    HW229956   3.710   7.888   0.781  0.1283  0.6016 -0.8023
 9428SOL     OW29957   3.013   9.005   4.671 -0.3573  0.3407 -0.1775
 9428SOL    HW129958   2.983   9.082   4.621 -2.0917 -0.2357 -0.0893
 9428SOL    HW229959   3.027   8.938   4.604  1.1923  0.7211 -0.2578
 9429SOL     OW29960   8.056   2.377   3.371 -0.6520 -0.2355  0.4149
 9429SOL    HW129961   8.057   2.288   3.335  2.0487 -0.0345 -0.2301
 9429SOL    HW229962   8.140   2.414   3.345 -0.3788  1.4632  3.2928
 9430SOL     OW29963   9.543   9.380   5.564 -0.7692 -0.1658 -0.2366
 9430SOL    HW129964   9.494   9.461   5.573 -1.5359 -0.5374 -1.0180
 9430SOL    HW229965   9.484   9.320   5.519 -0.2899 -1.2305  0.4902
 9431SOL     OW29966   0.469   2.641   7.026  0.4778  0.1625 -0.5676
 9431SOL    HW129967   0.538   2.655   7.091 -2.2862 -0.4981  2.8687
 9431SOL    HW229968   0.471   2.547   7.008 -0.1031 -0.0545  0.3914
 9432SOL     OW29969   0.303   6.154   3.542 -0.8909 -0.2304  0.4758
 9432SOL    HW129970   0.378   6.122   3.592  2.6646  3.7686 -1.6786
 9432SOL    HW229971   0.262   6.220   3.598 -1.0788 -0.4298  0.5765
 9433SOL     OW29972   2.085   4.436   8.194  0.1454  0.0193  0.4777
 9433SOL    HW129973   2.019   4.381   8.237  0.4292 -1.7521 -1.2289
 9433SOL    HW229974   2.034   4.490   8.134  0.0047  0.7016  1.1890
 9434SOL     OW29975   0.690   9.122   9.323  0.0120  0.4343  0.1506
 9434SOL    HW129976   0.609   9.174   9.325  0.2547  1.0655 -2.4376
 9434SOL    HW229977   0.700   9.098   9.231  1.9204 -1.0523  0.6842
 9435SOL     OW29978   2.976   2.026   8.412  0.6117 -1.0499  0.2968
 9435SOL    HW129979   3.004   2.025   8.504  1.1816 -2.0469  0.1288
 9435SOL    HW229980   3.053   2.052   8.363  0.1755 -0.0396  0.1273
 9436SOL     OW29981   9.266   4.976   0.655  0.0014 -0.5804  0.2666
 9436SOL    HW129982   9.285   5.066   0.681 -0.4370  0.2941 -2.1847
 9436SOL    HW229983   9.174   4.963   0.679  0.5261 -1.0521  2.2243
 9437SOL     OW29984   8.273   3.080   4.660 -0.0656  0.5712  0.0261
 9437SOL    HW129985   8.289   3.156   4.716 -0.2979  0.2156  0.5749
 9437SOL    HW229986   8.180   3.063   4.668 -0.0226  0.2548 -0.1335
 9438SOL     OW29987   2.906   0.011   9.464 -0.2781  0.3451 -0.0340
 9438SOL    HW129988   2.846   0.011   9.390  0.4647  1.1544 -0.6607
 9438SOL    HW229989   2.976  -0.049   9.437 -0.8562 -0.7136  0.7530
 9439SOL     OW29990   1.343   7.584   5.914 -0.1367  0.0100  0.3923
 9439SOL    HW129991   1.274   7.543   5.862 -0.5878 -1.1978  1.8671
 9439SOL    HW229992   1.424   7.541   5.884 -0.2880 -0.1173  0.1652
 9440SOL     OW29993   9.467   2.610   1.669  0.3582 -0.1424  0.0909
 9440SOL    HW129994   9.493   2.520   1.646  0.9206  0.2255 -0.8001
 9440SOL    HW229995   9.411   2.637   1.596  1.7971  0.9005 -0.6894
 9441SOL     OW29996   4.802   2.665   7.798 -0.1509 -0.1701  0.0769
 9441SOL    HW129997   4.848   2.708   7.870 -1.2221 -1.3140  1.5307
 9441SOL    HW229998   4.715   2.645   7.834 -1.4074  0.8479 -2.1642
 9442SOL     OW29999   4.725   1.996   5.909 -0.3384  0.1438 -0.4759
 9442SOL    HW130000   4.635   1.996   5.876 -0.0501 -0.4077 -1.2890
 9442SOL    HW230001   4.772   1.938   5.849  0.6997  0.9472 -0.4548
 9443SOL     OW30002   8.123   6.264   0.643 -0.7902  0.2527  0.6534
 9443SOL    HW130003   8.090   6.317   0.570  2.1034  2.3256  0.6626
 9443SOL    HW230004   8.069   6.289   0.718 -3.2899 -1.3256 -0.4920
 9444SOL     OW30005   6.118   8.586   5.208  0.0444  0.1479  0.2234
 9444SOL    HW130006   6.034   8.609   5.168  0.4233 -0.0618 -0.7089
 9444SOL    HW230007   6.119   8.635   5.290 -2.2193 -1.9336  1.6486
 9445SOL     OW30008   8.559   8.242   2.665  0.0520  0.0538 -0.0184
 9445SOL    HW130009   8.572   8.322   2.717 -0.3334 -0.0383  0.2235
 9445SOL    HW230010   8.638   8.190   2.680 -0.1818 -0.0992  0.7072
 9446SOL     OW30011   6.291   7.617   8.983 -0.4368  0.1058  0.0023
 9446SOL    HW130012   6.311   7.526   8.959  1.0024  0.5148 -0.4477
 9446SOL    HW230013   6.372   7.649   9.022 -1.5332  0.6350  1.9363
 9447SOL     OW30014   5.402   3.218   7.385 -0.2563 -0.2616  0.2535
 9447SOL    HW130015   5.356   3.212   7.469 -0.4443 -0.6078  0.1266
 9447SOL    HW230016   5.446   3.134   7.376  2.3104  0.8466  1.4572
 9448SOL     OW30017   1.864   7.175   2.987  0.2116 -0.3682 -0.0155
 9448SOL    HW130018   1.779   7.152   2.948 -1.1177  2.3261  1.0312
 9448SOL    HW230019   1.860   7.142   3.076  0.0782  0.1240  0.1634
 9449SOL     OW30020   5.440   1.571   0.253 -0.5415  0.0032 -0.1236
 9449SOL    HW130021   5.404   1.625   0.323  0.1912  0.9665 -0.4581
 9449SOL    HW230022   5.408   1.483   0.271 -2.4397  0.6728 -0.0144
 9450SOL     OW30023   4.858   3.072   9.310 -0.2175 -0.4795 -0.0130
 9450SOL    HW130024   4.853   3.012   9.235  1.6005  0.5508 -1.0475
 9450SOL    HW230025   4.913   3.027   9.373 -0.8905 -0.9114  0.2759
 9451SOL     OW30026   5.986   4.223   6.702 -0.0703 -0.6086 -0.1213
 9451SOL    HW130027   6.073   4.252   6.731 -0.5840 -1.2694  2.3085
 9451SOL    HW230028   5.928   4.246   6.774 -1.7989 -0.9245 -1.3554
 9452SOL     OW30029   7.643   2.294   4.665 -0.1392 -0.4228 -0.1439
 9452SOL    HW130030   7.633   2.214   4.614 -0.2885 -1.0207  0.8094
 9452SOL    HW230031   7.717   2.277   4.723  0.5439  0.5446 -0.6955
 9453SOL     OW30032   1.645   1.734   9.278  0.8469  0.5335  0.2328
 9453SOL    HW130033   1.696   1.762   9.354  0.5757  0.8717  0.2959
 9453SOL    HW230034   1.659   1.803   9.213  1.1006  0.2311 -0.0393
 9454SOL     OW30035   7.110   1.615   3.094 -0.2241 -0.1397 -0.2371
 9454SOL    HW130036   7.118   1.541   3.154 -0.4046 -0.4998 -0.6536
 9454SOL    HW230037   7.200   1.643   3.078 -0.0642 -1.1557 -1.1710
 9455SOL     OW30038   4.630   7.635   6.721 -0.1435 -0.2148 -0.1044
 9455SOL    HW130039   4.606   7.592   6.639  2.2468 -0.7699 -0.5973
 9455SOL    HW230040   4.648   7.726   6.696 -0.0620 -0.2202 -0.0653
 9456SOL     OW30041   7.108   1.414   9.406  0.0588 -0.0819 -0.1959
 9456SOL    HW130042   7.075   1.486   9.459  4.2261  1.1644  1.0072
 9456SOL    HW230043   7.180   1.377   9.457 -0.8659 -4.2080 -1.4743
 9457SOL     OW30044   6.767   8.553   2.581 -0.4952  0.1985 -0.1582
 9457SOL    HW130045   6.799   8.615   2.515 -0.6177  0.6799  0.2254
 9457SOL    HW230046   6.692   8.511   2.540  0.8334 -1.2671 -1.2450
 9458SOL     OW30047   3.960   4.798   5.302  0.1158 -0.2412 -0.0833
 9458SOL    HW130048   3.872   4.836   5.298  0.4937  0.6489 -0.1285
 9458SOL    HW230049   3.962   4.735   5.230 -0.0273  0.7418 -0.9695
 9459SOL     OW30050   1.864   9.274   8.148  0.1773 -0.2537 -0.2693
 9459SOL    HW130051   1.835   9.359   8.180  3.3988  1.1378 -0.7478
 9459SOL    HW230052   1.918   9.239   8.218  0.7061 -0.8828 -0.9775
 9460SOL     OW30053   0.867   5.532   1.162 -0.0650  0.9573 -0.2703
 9460SOL    HW130054   0.871   5.437   1.146 -3.3898  0.6667  0.0118
 9460SOL    HW230055   0.850   5.570   1.076 -0.9504  1.0539 -0.0603
 9461SOL     OW30056   5.982   7.449   1.512 -0.0302 -0.4536  0.3972
 9461SOL    HW130057   6.076   7.435   1.498  0.2612  0.8275  0.8639
 9461SOL    HW230058   5.973   7.544   1.515 -1.1271 -0.5646  1.7476
 9462SOL     OW30059   3.755   8.431   2.214  0.4577 -0.0186 -0.1909
 9462SOL    HW130060   3.787   8.397   2.298 -0.9036 -1.5744 -0.2484
 9462SOL    HW230061   3.726   8.520   2.234  0.7144 -0.1605  0.8644
 9463SOL     OW30062   3.043   4.525   2.041 -0.1687 -0.1972 -0.1101
 9463SOL    HW130063   3.024   4.590   1.973  2.0527  0.2400 -0.3904
 9463SOL    HW230064   3.103   4.569   2.101  1.7720 -2.0587 -0.5516
 9464SOL     OW30065   4.170   7.965   4.944  0.2803  0.5456  0.1644
 9464SOL    HW130066   4.104   7.898   4.966  0.7789 -0.7580 -1.9981
 9464SOL    HW230067   4.189   7.950   4.852  2.5093  1.8804  0.3415
 9465SOL     OW30068   6.278   3.671   5.545 -0.1740 -0.0481 -0.1385
 9465SOL    HW130069   6.247   3.606   5.482 -1.3168  0.6319 -0.3170
 9465SOL    HW230070   6.262   3.630   5.630 -1.6246  0.2657 -0.2235
 9466SOL     OW30071   1.102   0.388   7.730 -0.4620  0.0165 -0.0786
 9466SOL    HW130072   1.125   0.295   7.721 -0.0511 -0.1504  2.1156
 9466SOL    HW230073   1.149   0.417   7.808 -1.0820  1.9232 -0.3677
 9467SOL     OW30074   7.739   3.656   6.545 -0.4785 -0.4323 -0.4732
 9467SOL    HW130075   7.746   3.682   6.453 -1.3648  0.1453 -0.3910
 9467SOL    HW230076   7.744   3.737   6.594  0.3653 -0.7756  0.0219
 9468SOL     OW30077   3.974   7.243   6.002 -0.2723  0.0160 -0.0288
 9468SOL    HW130078   4.034   7.244   6.076  1.4698 -1.0909 -1.3586
 9468SOL    HW230079   4.009   7.177   5.943 -1.9532  0.4252 -1.5863
 9469SOL     OW30080   2.331   2.446   6.407 -0.4455  0.1668 -0.2323
 9469SOL    HW130081   2.376   2.363   6.419  1.8030  1.2221 -0.8083
 9469SOL    HW230082   2.274   2.432   6.331  1.3351 -0.3605 -1.5457
 9470SOL     OW30083   0.182   8.873   4.754  0.2125 -0.3304  0.2481
 9470SOL    HW130084   0.134   8.955   4.758  0.9196  0.1406 -0.6375
 9470SOL    HW230085   0.118   8.806   4.781 -0.5095  0.4440  0.4818
 9471SOL     OW30086   7.644   4.853   8.129  0.1930 -0.4966  0.4430
 9471SOL    HW130087   7.691   4.916   8.183 -1.2416  0.3395  0.7846
 9471SOL    HW230088   7.625   4.780   8.188  0.7136 -0.6620  0.4059
 9472SOL     OW30089   0.773   5.528   0.067 -0.4791 -0.6773  0.2844
 9472SOL    HW130090   0.723   5.507  -0.011 -0.7699 -0.6671  0.4659
 9472SOL    HW230091   0.859   5.553   0.035 -1.4499  2.2311 -0.2682
 9473SOL     OW30092   9.244   7.373   2.354 -0.2030  0.3768  0.1707
 9473SOL    HW130093   9.238   7.390   2.260 -0.0466 -0.9724 -0.1032
 9473SOL    HW230094   9.298   7.444   2.388 -0.9532  1.3432 -0.6123
 9474SOL     OW30095   7.719   4.725   9.637  0.6425 -0.1856 -0.6839
 9474SOL    HW130096   7.698   4.774   9.717  0.2891 -0.0583 -0.8516
 9474SOL    HW230097   7.797   4.769   9.602 -0.7855  1.5918 -1.9036
 9475SOL     OW30098   2.319   6.388   9.567 -0.0721  0.9065 -0.3497
 9475SOL    HW130099   2.403   6.406   9.526  0.5496  3.2836  1.7003
 9475SOL    HW230100   2.309   6.293   9.562  2.1051  0.6916 -1.7730
 9476SOL     OW30101   6.787   8.542   7.568  0.5429 -0.6565 -0.0639
 9476SOL    HW130102   6.793   8.501   7.654  2.8452  1.6345  0.9829
 9476SOL    HW230103   6.863   8.510   7.520  1.7140  1.3535  0.3619
 9477SOL     OW30104   8.882   8.117   3.004 -0.5285  0.4617 -0.5723
 9477SOL    HW130105   8.842   8.030   3.007 -0.0994  0.2253 -1.2017
 9477SOL    HW230106   8.952   8.113   3.069  0.2283 -0.0770 -1.3760
 9478SOL     OW30107   5.281   4.649   5.031 -0.0964  0.1094 -0.0670
 9478SOL    HW130108   5.338   4.573   5.022  0.9172  0.8558 -0.0907
 9478SOL    HW230109   5.335   4.715   5.074 -0.7765  1.0122 -0.5500
 9479SOL     OW30110   2.778   3.686   7.494  0.0981 -0.0712 -0.2094
 9479SOL    HW130111   2.796   3.719   7.406  0.0939 -0.9459 -0.5477
 9479SOL    HW230112   2.778   3.590   7.484 -2.0328 -0.1725  0.2860
 9480SOL     OW30113   7.633   7.551   7.761 -0.1758  0.2642  0.0184
 9480SOL    HW130114   7.646   7.570   7.854  0.6957 -1.0932  0.1918
 9480SOL    HW230115   7.540   7.529   7.755 -0.3056  0.6550  0.5163
 9481SOL     OW30116   7.442   1.558   9.323 -0.1051 -0.1243  0.7634
 9481SOL    HW130117   7.445   1.651   9.344  0.4410 -0.1096  0.6324
 9481SOL    HW230118   7.385   1.553   9.246 -1.3487 -0.0745  1.6650
 9482SOL     OW30119   4.198   4.059   4.554  0.3265  0.2486 -0.3538
 9482SOL    HW130120   4.146   4.002   4.611 -0.7394  0.7817 -0.7758
 9482SOL    HW230121   4.161   4.047   4.467  1.2361  0.2689 -0.7566
 9483SOL     OW30122   9.551   0.056   7.392 -0.1255 -0.5535 -0.5694
 9483SOL    HW130123   9.619   0.122   7.380 -0.2890 -0.0069  1.2393
 9483SOL    HW230124   9.502   0.057   7.310  0.6260  0.7067 -1.0274
 9484SOL     OW30125   3.111   3.304   1.872 -0.1203 -0.4548  0.0148
 9484SOL    HW130126   3.151   3.349   1.798 -2.3033 -0.5982 -1.3719
 9484SOL    HW230127   3.120   3.365   1.945  0.9719  0.2475 -0.6804
 9485SOL     OW30128   9.202   8.091   5.944 -0.3673  0.6238  0.4760
 9485SOL    HW130129   9.123   8.038   5.948 -1.0025  1.2823 -1.7530
 9485SOL    HW230130   9.171   8.177   5.913  1.0417  1.3505  0.9917
 9486SOL     OW30131   7.576   1.965   1.749 -0.4601  0.1849  0.1297
 9486SOL    HW130132   7.578   1.885   1.801  2.5722 -0.8737 -1.3997
 9486SOL    HW230133   7.639   2.023   1.791 -0.9667  0.8962 -0.0672
 9487SOL     OW30134   8.384   6.782   5.568  0.4625 -0.2084  0.0980
 9487SOL    HW130135   8.437   6.736   5.503  0.1718 -1.6159  0.8074
 9487SOL    HW230136   8.312   6.820   5.518 -0.6415 -2.6138 -0.2671
 9488SOL     OW30137   9.402   5.695   2.668 -0.1568  0.8569 -0.0645
 9488SOL    HW130138   9.457   5.773   2.660  0.3308  0.6647  1.2723
 9488SOL    HW230139   9.328   5.724   2.721 -0.0795  0.4622  0.2613
 9489SOL     OW30140   6.582   1.513   9.346 -0.3367 -0.0008  0.3749
 9489SOL    HW130141   6.546   1.505   9.434  1.8163 -3.5540  1.1148
 9489SOL    HW230142   6.506   1.499   9.289 -1.3646 -0.0903  1.7029
 9490SOL     OW30143   0.324   7.648   1.752  0.4231 -0.6793  0.2131
 9490SOL    HW130144   0.402   7.640   1.806 -0.1265 -2.5122  0.8078
 9490SOL    HW230145   0.251   7.638   1.813 -0.2124 -2.7286 -0.7939
 9491SOL     OW30146   7.631   6.047   9.304 -0.3434  0.2588 -0.2933
 9491SOL    HW130147   7.551   6.090   9.274  0.6972  2.7110  0.2458
 9491SOL    HW230148   7.662   5.997   9.228 -1.5187  0.5659 -0.9945
 9492SOL     OW30149   0.366   0.327   5.747  0.5260 -0.4039 -0.3130
 9492SOL    HW130150   0.314   0.331   5.667 -0.8025 -0.2249  0.5122
 9492SOL    HW230151   0.417   0.246   5.739 -0.5303 -1.0413 -0.7944
 9493SOL     OW30152   1.229   7.071   0.757  0.1625  0.0035 -0.4842
 9493SOL    HW130153   1.213   7.146   0.814  0.6606 -0.3569  0.1474
 9493SOL    HW230154   1.220   7.106   0.669 -2.4655  0.1595 -0.2282
 9494SOL     OW30155   6.953   7.410   2.480 -0.4057 -0.6401  0.0460
 9494SOL    HW130156   6.928   7.374   2.395 -2.0165 -0.2825  0.3306
 9494SOL    HW230157   6.999   7.491   2.459  1.6142 -1.8784 -0.5330
 9495SOL     OW30158   2.914   9.223   4.517 -0.4332 -0.1486 -0.1483
 9495SOL    HW130159   2.953   9.288   4.576 -2.1771  0.2325  0.6524
 9495SOL    HW230160   2.832   9.263   4.489 -0.1315 -0.7643 -2.0646
 9496SOL     OW30161   1.301   4.201   9.391  0.0012  0.2689 -0.3469
 9496SOL    HW130162   1.318   4.256   9.314  2.5714 -0.8531 -0.6854
 9496SOL    HW230163   1.331   4.114   9.366  0.4507 -0.2437  1.7321
 9497SOL     OW30164   8.920   7.995   5.388 -0.2929 -0.2461  0.0420
 9497SOL    HW130165   9.001   8.042   5.403 -0.1103 -1.0819  1.8726
 9497SOL    HW230166   8.863   8.020   5.461 -1.2901 -0.5241 -0.6160
 9498SOL     OW30167   5.723   5.969   5.514 -0.6635 -0.1800  0.1583
 9498SOL    HW130168   5.681   5.917   5.583 -0.7210  1.7937  1.7122
 9498SOL    HW230169   5.798   5.916   5.487  1.1437  0.0967  3.8850
 9499SOL     OW30170   2.735   5.018   9.186  0.7306  0.0594  0.8087
 9499SOL    HW130171   2.696   5.046   9.103 -0.4587  0.0234  1.3326
 9499SOL    HW230172   2.783   5.094   9.218  0.6507  0.2798  0.3990
 9500SOL     OW30173   2.846   7.533   6.228 -0.0470  0.0525  0.4688
 9500SOL    HW130174   2.880   7.622   6.218  0.1531 -0.0386  0.3161
 9500SOL    HW230175   2.802   7.533   6.313  0.2995  0.1887  0.6516
 9501SOL     OW30176   7.180   0.293   8.984 -0.0730 -0.2847  0.0238
 9501SOL    HW130177   7.095   0.305   9.025  0.6694  0.1900  1.5263
 9501SOL    HW230178   7.197   0.374   8.938 -0.3364 -0.2895 -0.0780
 9502SOL     OW30179   9.584   3.524   2.302 -0.5339 -0.2011  0.1740
 9502SOL    HW130180   9.648   3.485   2.362  0.5195 -0.2998 -0.9832
 9502SOL    HW230181   9.601   3.482   2.218  0.5875  2.6237 -1.1405
 9503SOL     OW30182   3.094   8.544   0.590  0.1863  0.0760  0.0755
 9503SOL    HW130183   3.048   8.602   0.651 -0.8224  1.3650 -1.8117
 9503SOL    HW230184   3.171   8.594   0.564  0.0906 -0.0437 -0.4406
 9504SOL     OW30185   2.316   3.364   4.406  0.5785  0.2267  0.2997
 9504SOL    HW130186   2.291   3.336   4.493  0.8645  0.6336  0.5193
 9504SOL    HW230187   2.234   3.367   4.356  0.5493 -1.0256  0.2511
 9505SOL     OW30188   6.602   4.761   3.312 -0.1878 -0.3091  0.2083
 9505SOL    HW130189   6.692   4.752   3.280  0.0858  0.1257  0.8281
 9505SOL    HW230190   6.547   4.753   3.234  0.3446 -1.3246 -0.0798
 9506SOL     OW30191   2.430   9.401   6.746  0.5731 -0.3924 -0.2170
 9506SOL    HW130192   2.390   9.352   6.674 -0.1081 -0.7476  0.3937
 9506SOL    HW230193   2.366   9.398   6.816  0.7175  0.9951  0.0045
 9507SOL     OW30194   8.028   3.716   5.683  0.2283  0.3461 -0.2750
 9507SOL    HW130195   8.017   3.639   5.740 -1.0740 -0.5366 -1.6350
 9507SOL    HW230196   7.996   3.687   5.598 -0.2836  2.4048 -0.8397
 9508SOL     OW30197   5.891   1.252   8.262  0.5486 -0.3071  0.4446
 9508SOL    HW130198   5.954   1.198   8.310  2.5672  1.4839 -0.0552
 9508SOL    HW230199   5.929   1.339   8.262 -0.1591  0.1362 -2.9570
 9509SOL     OW30200   2.312   9.164   2.386 -0.2230  0.1423  0.1737
 9509SOL    HW130201   2.376   9.228   2.354 -1.3091  1.3454  0.3051
 9509SOL    HW230202   2.263   9.212   2.453 -2.2398 -0.2467 -0.9681
 9510SOL     OW30203   9.059   4.472   9.473  0.2338 -0.2683 -0.6161
 9510SOL    HW130204   9.004   4.406   9.431 -0.5066 -0.1765  0.1715
 9510SOL    HW230205   9.083   4.532   9.402  0.5315 -1.1206 -1.2432
 9511SOL     OW30206   3.457   7.847   7.841  0.2533 -0.7408 -0.0366
 9511SOL    HW130207   3.520   7.775   7.829  0.9954  0.1297 -1.7122
 9511SOL    HW230208   3.482   7.912   7.775 -0.2777  1.1687  1.5602
 9512SOL     OW30209   7.657   1.365   4.896  0.4715 -0.2654 -0.0028
 9512SOL    HW130210   7.626   1.294   4.840  1.2247 -0.6259  0.0255
 9512SOL    HW230211   7.577   1.411   4.922 -0.1792 -1.9018  1.0643
 9513SOL     OW30212   1.394   0.421   6.391  0.1129 -0.7443 -0.3179
 9513SOL    HW130213   1.407   0.491   6.455  0.9176  0.4143 -1.6889
 9513SOL    HW230214   1.480   0.379   6.385  0.4246  0.0187 -1.5783
 9514SOL     OW30215   7.115   1.916   5.251 -0.0298 -0.5623 -0.4207
 9514SOL    HW130216   7.176   1.990   5.248 -0.9675  0.3380  1.3729
 9514SOL    HW230217   7.147   1.860   5.321 -0.4456 -0.8337 -0.4402
 9515SOL     OW30218   3.629   8.834   9.632 -0.4493  0.1804  0.5769
 9515SOL    HW130219   3.635   8.780   9.553  2.0269  1.3705 -0.1680
 9515SOL    HW230220   3.610   8.922   9.600  1.9760  0.9715  1.0670
 9516SOL     OW30221   1.092   0.427   8.204  0.0156 -0.2824  0.2109
 9516SOL    HW130222   1.148   0.482   8.258 -1.3796  0.4193  0.9919
 9516SOL    HW230223   1.058   0.361   8.264  0.7531 -1.3209 -0.4713
 9517SOL     OW30224   3.255   4.495   5.870 -0.0788  0.1848  0.2837
 9517SOL    HW130225   3.238   4.427   5.806 -1.1811 -0.0117  0.7636
 9517SOL    HW230226   3.187   4.561   5.854 -0.3420  0.1506  1.2181
 9518SOL     OW30227   4.375   3.939   4.731  0.4704 -0.4238  0.1487
 9518SOL    HW130228   4.319   3.890   4.791  0.5303  1.6307  2.0437
 9518SOL    HW230229   4.315   3.994   4.682  0.6463  1.9059  2.3005
 9519SOL     OW30230   3.625   6.104   1.604 -0.1723  0.5876  0.0774
 9519SOL    HW130231   3.628   6.128   1.697  0.8612 -0.7224  0.4132
 9519SOL    HW230232   3.590   6.015   1.603 -0.6171  0.7609 -0.8356
 9520SOL     OW30233   8.751   6.202   8.873  0.0724 -0.0891  0.4817
 9520SOL    HW130234   8.737   6.160   8.958  1.3704  1.5406  1.5711
 9520SOL    HW230235   8.774   6.292   8.895  1.7890  0.0316 -1.5412
 9521SOL     OW30236   0.661   3.184   8.579  0.8001 -0.3908  0.0573
 9521SOL    HW130237   0.665   3.272   8.616 -0.5152 -1.1573  2.2074
 9521SOL    HW230238   0.753   3.156   8.572  1.1349 -0.2489  3.0130
 9522SOL     OW30239   8.113   7.390   6.141  0.0183 -0.2313 -0.1097
 9522SOL    HW130240   8.131   7.301   6.172 -2.0198 -0.4516  0.5932
 9522SOL    HW230241   8.115   7.444   6.219 -0.8707 -0.0511 -0.1930
 9523SOL     OW30242   0.347   8.792   2.675 -0.7482 -0.7923 -0.0645
 9523SOL    HW130243   0.427   8.826   2.634 -1.1935 -1.1851 -1.3352
 9523SOL    HW230244   0.305   8.869   2.712  0.2878 -0.6034  0.7580
 9524SOL     OW30245   4.314   3.563   5.829  0.4012 -0.0799  0.0386
 9524SOL    HW130246   4.317   3.482   5.879 -1.5540 -0.4197 -0.2898
 9524SOL    HW230247   4.310   3.535   5.738  0.3745  0.4033 -0.1146
 9525SOL     OW30248   4.913   3.133   8.615 -0.4059 -0.2621  0.5052
 9525SOL    HW130249   4.823   3.105   8.595 -1.8032  3.4665  0.8204
 9525SOL    HW230250   4.906   3.173   8.701  1.0870  1.9096 -0.3245
 9526SOL     OW30251   0.315   5.007   5.296  0.1514 -0.3943  0.2076
 9526SOL    HW130252   0.270   4.937   5.248 -0.6115 -0.1524  0.5718
 9526SOL    HW230253   0.405   4.974   5.305 -0.3382 -1.6178  0.9259
 9527SOL     OW30254   2.515   0.803   4.238 -0.4276  0.2391  0.0808
 9527SOL    HW130255   2.504   0.866   4.167 -0.0605  0.8651  0.5759
 9527SOL    HW230256   2.602   0.822   4.273 -0.6540  0.0025  0.7727
 9528SOL     OW30257   5.412   0.951   7.669  0.3414 -0.1709  0.0145
 9528SOL    HW130258   5.493   0.917   7.707  1.1735  0.5108 -1.0763
 9528SOL    HW230259   5.410   0.916   7.580 -1.4445 -1.5374  0.5310
 9529SOL     OW30260   2.804   8.367   3.839  0.3365 -0.5893 -0.0352
 9529SOL    HW130261   2.832   8.452   3.806  0.9959 -0.8546 -0.1882
 9529SOL    HW230262   2.751   8.387   3.916 -1.8537  0.0812 -1.6178
 9530SOL     OW30263   2.441   5.930   0.828 -0.7181 -0.3697 -0.1219
 9530SOL    HW130264   2.504   5.921   0.899  0.3655 -0.3139 -1.0469
 9530SOL    HW230265   2.382   6.000   0.855  0.8973  1.0431 -0.1490
 9531SOL     OW30266   6.180   7.355   8.405 -0.1931  0.3287  0.6081
 9531SOL    HW130267   6.090   7.386   8.410 -0.3402  0.3556 -1.2765
 9531SOL    HW230268   6.213   7.390   8.322  1.6250  0.4692  1.3382
 9532SOL     OW30269   7.752   1.078   7.359  0.2030 -0.5250 -0.0688
 9532SOL    HW130270   7.743   1.122   7.443  0.7588 -1.4109  0.4730
 9532SOL    HW230271   7.674   1.104   7.309  0.5980  1.1904  0.1524
 9533SOL     OW30272   3.451   4.406   6.982  0.1180  0.8706  0.2368
 9533SOL    HW130273   3.475   4.401   7.075 -1.3563 -0.1718  0.5997
 9533SOL    HW230274   3.358   4.427   6.983  0.2164  1.4139 -1.0373
 9534SOL     OW30275   0.994   4.085   1.237 -0.0706 -0.2814 -0.3525
 9534SOL    HW130276   0.902   4.112   1.243 -0.2913 -1.0794  0.0126
 9534SOL    HW230277   1.022   4.074   1.327  1.1015  2.1818 -0.3456
 9535SOL     OW30278   5.669   5.576   0.384  0.5890 -0.1619  0.0923
 9535SOL    HW130279   5.686   5.518   0.310  0.0690  1.2160 -1.1465
 9535SOL    HW230280   5.719   5.537   0.456  0.3794 -2.0521 -0.7123
 9536SOL     OW30281   0.086   2.072   3.539  0.2522  0.4619  0.1998
 9536SOL    HW130282   0.089   2.135   3.611  1.3550  1.2139 -0.4719
 9536SOL    HW230283  -0.007   2.063   3.519 -0.0900  0.0810  1.8367
 9537SOL     OW30284   2.756   4.183   7.476 -0.5490 -0.3625  0.0264
 9537SOL    HW130285   2.767   4.222   7.563  1.5453 -1.6554  0.4177
 9537SOL    HW230286   2.819   4.111   7.474 -1.5546 -1.2672 -2.0670
 9538SOL     OW30287   6.171   4.889   7.073 -0.1888 -0.5274  0.0542
 9538SOL    HW130288   6.135   4.904   7.160  1.8313 -1.3883  1.1067
 9538SOL    HW230289   6.126   4.811   7.042 -0.5482 -0.5187  0.5389
 9539SOL     OW30290   7.150   9.386   4.006  0.0515 -0.0976  0.0630
 9539SOL    HW130291   7.154   9.377   4.101  0.8472 -1.0921 -0.0430
 9539SOL    HW230292   7.069   9.342   3.982 -1.1782  1.8808  0.4322
 9540SOL     OW30293   5.702   1.400   3.830  0.4612  0.4856 -0.1418
 9540SOL    HW130294   5.783   1.396   3.779  0.0910 -2.1480 -0.6598
 9540SOL    HW230295   5.707   1.325   3.889 -0.4592  1.7764  1.6863
 9541SOL     OW30296   1.314   0.425   4.766 -0.1611 -0.2685  0.0527
 9541SOL    HW130297   1.304   0.334   4.737  1.8302 -0.2507 -0.9002
 9541SOL    HW230298   1.353   0.418   4.853 -0.0002 -0.3450 -0.0235
 9542SOL     OW30299   5.016   2.794   7.672  0.0641 -0.1475 -0.3886
 9542SOL    HW130300   5.074   2.725   7.639  0.0197 -0.7366  0.7024
 9542SOL    HW230301   4.938   2.748   7.703  0.0598  0.3695  0.4193
 9543SOL     OW30302   3.609   4.503   2.149 -0.3133 -0.4729 -0.3130
 9543SOL    HW130303   3.571   4.590   2.153  0.2112 -0.2334 -0.4550
 9543SOL    HW230304   3.534   4.444   2.143 -0.7557 -0.1414  1.4230
 9544SOL     OW30305   7.627   5.010   6.208 -0.0178 -0.1742  0.0497
 9544SOL    HW130306   7.587   4.927   6.182 -1.0656  0.9174 -2.0945
 9544SOL    HW230307   7.671   5.041   6.129  1.5205  0.6969  1.1946
 9545SOL     OW30308   5.020   4.868   4.304  0.6013 -0.0753 -0.3805
 9545SOL    HW130309   4.949   4.884   4.242  1.2259  3.0794 -0.4809
 9545SOL    HW230310   5.096   4.911   4.264  2.5063 -2.8481 -0.0066
 9546SOL     OW30311   7.734   7.129   8.545  0.2104 -0.5342 -0.1861
 9546SOL    HW130312   7.825   7.114   8.570  0.5672 -0.3275 -1.3036
 9546SOL    HW230313   7.685   7.059   8.589  0.6404  0.3872  1.8766
 9547SOL     OW30314   6.172   8.317   5.320  0.3341 -0.3080 -0.2920
 9547SOL    HW130315   6.116   8.377   5.271  1.7129 -0.1377 -1.7470
 9547SOL    HW230316   6.256   8.363   5.328  0.2776 -0.4808  1.9772
 9548SOL     OW30317   6.250   5.338   8.686 -0.0612  0.1795  0.2422
 9548SOL    HW130318   6.202   5.406   8.733  2.1450  1.5540  0.6730
 9548SOL    HW230319   6.242   5.362   8.593 -1.1953 -0.3189  0.1989
 9549SOL     OW30320   7.600   2.467   1.166 -0.1891 -0.3610 -0.0310
 9549SOL    HW130321   7.632   2.491   1.079 -0.3753  1.9218  0.4745
 9549SOL    HW230322   7.533   2.401   1.148  0.2700 -0.4650 -1.5645
 9550SOL     OW30323   2.640   0.932   4.983 -0.2104  0.2034 -0.1262
 9550SOL    HW130324   2.730   0.919   5.014 -1.0555 -0.1977  2.3854
 9550SOL    HW230325   2.630   0.867   4.913  1.1802 -0.3551  0.1462
 9551SOL     OW30326   6.143   7.188   7.339 -0.2498  0.0967 -0.3154
 9551SOL    HW130327   6.175   7.111   7.292  0.1826 -0.2949  0.6072
 9551SOL    HW230328   6.192   7.261   7.302  1.2171 -0.4024  0.5646
 9552SOL     OW30329   5.886   3.268   0.913 -0.3229 -0.2355  0.3484
 9552SOL    HW130330   5.883   3.362   0.928  1.9558 -0.2481  1.4325
 9552SOL    HW230331   5.980   3.246   0.919 -0.8104 -2.5957  0.3681
 9553SOL     OW30332   5.110   3.911   3.725 -0.2357 -0.1367  0.1133
 9553SOL    HW130333   5.205   3.915   3.709 -0.1060  2.1630  1.0303
 9553SOL    HW230334   5.071   3.954   3.649 -0.3873  0.4317  0.4991
 9554SOL     OW30335   4.826   2.766   6.552  0.0639  0.2354  0.4663
 9554SOL    HW130336   4.751   2.741   6.607  0.9066 -0.2630  1.4275
 9554SOL    HW230337   4.901   2.727   6.595  0.8575  0.4834 -0.6498
 9555SOL     OW30338   3.738   7.567   4.998 -0.4350 -0.6777 -0.0738
 9555SOL    HW130339   3.644   7.551   5.005 -0.6392  0.6241  0.4923
 9555SOL    HW230340   3.770   7.561   5.088  0.0040 -0.9899 -0.2489
 9556SOL     OW30341   8.181   1.433   0.292 -0.4371  0.0248 -0.2227
 9556SOL    HW130342   8.213   1.353   0.333 -2.1363 -0.6593 -0.1828
 9556SOL    HW230343   8.195   1.420   0.198  1.2592  0.6110 -0.0936
 9557SOL     OW30344   9.126   1.384   4.123 -0.0523 -0.3413 -0.2277
 9557SOL    HW130345   9.197   1.329   4.156  1.3953  0.8199 -1.3158
 9557SOL    HW230346   9.089   1.335   4.049  0.1254 -0.5881 -0.1526
 9558SOL     OW30347   2.252   2.061   1.489 -0.0392 -0.0993  0.3812
 9558SOL    HW130348   2.291   2.039   1.574 -0.5884 -0.8999  0.4299
 9558SOL    HW230349   2.183   1.997   1.476 -1.4550  1.3577  0.3566
 9559SOL     OW30350   8.793   4.197   0.734  0.3183 -0.0516 -0.2155
 9559SOL    HW130351   8.771   4.118   0.783  1.6883  0.1232  0.7508
 9559SOL    HW230352   8.826   4.258   0.800  1.4283  0.5024 -1.2272
 9560SOL     OW30353   0.071   0.280   6.152 -0.5409  0.5792 -0.4684
 9560SOL    HW130354   0.120   0.258   6.073 -1.3023  1.3197 -1.1665
 9560SOL    HW230355   0.106   0.221   6.219  0.0746 -0.0999 -1.3625
 9561SOL     OW30356   5.285   9.091   6.786  0.2226  0.1085  0.7953
 9561SOL    HW130357   5.252   9.097   6.696 -2.9188 -0.5965  1.7711
 9561SOL    HW230358   5.262   9.175   6.825 -0.5439 -0.4342  1.5336
 9562SOL     OW30359   5.249   4.058   4.024 -0.8120 -0.0313  0.2101
 9562SOL    HW130360   5.318   4.108   4.069 -0.2480  0.3430 -1.0385
 9562SOL    HW230361   5.289   3.973   4.005  0.1037  0.8776 -2.3665
 9563SOL     OW30362   8.913   2.675   0.052 -0.2835  0.0447  0.0643
 9563SOL    HW130363   8.895   2.663   0.145  0.0221 -0.6533  0.0359
 9563SOL    HW230364   9.008   2.667   0.044 -0.2713  0.4533 -0.2634
 9564SOL     OW30365   0.473   2.713   4.848 -0.0152  0.0291 -0.5745
 9564SOL    HW130366   0.469   2.784   4.912  1.3490  0.2324 -0.6759
 9564SOL    HW230367   0.531   2.648   4.887 -1.1412 -0.9861 -0.5505
 9565SOL     OW30368   6.216   1.881   3.970  0.3557 -0.7276  0.2887
 9565SOL    HW130369   6.233   1.899   3.878  0.2783  2.0097  0.7445
 9565SOL    HW230370   6.122   1.897   3.982  0.4841 -0.4297  0.9680
 9566SOL     OW30371   0.334   0.127   9.416  0.0682  0.1929 -0.3386
 9566SOL    HW130372   0.423   0.094   9.426  0.1941  0.1979 -1.3512
 9566SOL    HW230373   0.285   0.053   9.381 -0.1937  0.3660 -0.3427
 9567SOL     OW30374   3.358   7.781   5.524  0.2592 -0.4603  0.2364
 9567SOL    HW130375   3.450   7.803   5.510 -0.2972  0.9909 -1.4493
 9567SOL    HW230376   3.327   7.845   5.588  0.3520 -0.8341  0.6644
 9568SOL     OW30377   9.102   4.292   6.761  0.6289  0.0946 -0.0860
 9568SOL    HW130378   9.141   4.205   6.762  0.2347 -0.0798  1.2626
 9568SOL    HW230379   9.010   4.278   6.784  0.8006  0.9774  1.2134
 9569SOL     OW30380   5.372   2.163   5.094 -0.0795 -0.2898 -0.0905
 9569SOL    HW130381   5.325   2.132   5.017  1.9603 -1.6739 -0.8394
 9569SOL    HW230382   5.428   2.090   5.120  0.5014  0.7282  1.7366
 9570SOL     OW30383   0.701   9.668   0.518  0.1949  0.3273 -0.2885
 9570SOL    HW130384   0.747   9.748   0.544 -0.9329  0.9754 -0.2340
 9570SOL    HW230385   0.614   9.697   0.491 -0.4385 -0.9379  0.2788
 9571SOL     OW30386   4.417   8.506   5.456  0.0596  0.3413 -0.0856
 9571SOL    HW130387   4.451   8.438   5.398  0.2045  1.0186 -0.8172
 9571SOL    HW230388   4.488   8.524   5.517  0.2170  0.2061 -0.2272
 9572SOL     OW30389   2.485   4.098   5.762  0.0010  0.9237 -1.0135
 9572SOL    HW130390   2.392   4.119   5.761  0.1007  1.5134  0.3526
 9572SOL    HW230391   2.525   4.169   5.812  0.9791 -0.1632 -0.2003
 9573SOL     OW30392   3.223   5.849   0.301  0.4781  0.2341  0.0385
 9573SOL    HW130393   3.163   5.819   0.369 -0.4308 -0.4656 -1.0476
 9573SOL    HW230394   3.206   5.943   0.294  1.7909  0.6610  1.9295
 9574SOL     OW30395   2.930   5.619   2.058  0.3185 -0.3577 -0.8284
 9574SOL    HW130396   2.921   5.678   1.983  0.7094  0.3464 -0.3432
 9574SOL    HW230397   2.970   5.674   2.126  1.1410 -1.3151 -0.5120
 9575SOL     OW30398   4.976   6.314   7.976  0.5715  0.2307  0.0058
 9575SOL    HW130399   4.912   6.257   8.018  0.0175 -1.3068 -2.6857
 9575SOL    HW230400   5.051   6.313   8.035 -1.2505  0.8180  2.4675
 9576SOL     OW30401   8.764   4.844   1.048 -0.1273  0.2692 -0.5165
 9576SOL    HW130402   8.729   4.842   0.959 -1.0925 -0.8638 -0.1436
 9576SOL    HW230403   8.836   4.780   1.046  0.6025  1.0804 -0.7556
 9577SOL     OW30404   7.405   5.869   6.378 -0.6336 -0.4427 -0.3568
 9577SOL    HW130405   7.346   5.827   6.316 -1.1936 -0.3727  0.1201
 9577SOL    HW230406   7.347   5.911   6.442 -0.0717 -0.3421  0.0975
 9578SOL     OW30407   3.258   5.845   1.306  0.6088  0.0559 -0.0915
 9578SOL    HW130408   3.167   5.849   1.278  0.2701  0.7617  1.0598
 9578SOL    HW230409   3.302   5.912   1.253  0.6150 -0.7124 -1.1025
 9579SOL     OW30410   8.167   3.648   0.647  0.0755 -0.7478 -0.7197
 9579SOL    HW130411   8.073   3.632   0.645 -0.0843  0.2171 -1.9853
 9579SOL    HW230412   8.205   3.573   0.602 -0.2011 -0.4978 -1.3794
 9580SOL     OW30413   4.736   7.631   7.921 -0.9268 -0.0851 -0.9606
 9580SOL    HW130414   4.732   7.726   7.912  0.3674  0.4062  2.3543
 9580SOL    HW230415   4.645   7.605   7.941 -0.7728  0.9994  1.4946
 9581SOL     OW30416   5.986   3.339   0.554  0.1997  0.0272  0.5953
 9581SOL    HW130417   6.032   3.263   0.591 -1.0584 -0.9701  0.1881
 9581SOL    HW230418   5.971   3.316   0.462  0.9432  1.3376  0.1305
 9582SOL     OW30419   4.262   4.019   0.021 -0.0216 -0.1265 -0.0206
 9582SOL    HW130420   4.355   4.037   0.039  0.2259 -0.9305 -0.4447
 9582SOL    HW230421   4.215   4.073   0.084  0.7023  1.0881 -0.4729
 9583SOL     OW30422   2.607   1.745   0.671  0.0749  0.5580 -0.4674
 9583SOL    HW130423   2.599   1.792   0.754  0.2820 -0.2799  0.0414
 9583SOL    HW230424   2.701   1.749   0.650  0.0291  0.7335 -0.6384
 9584SOL     OW30425   4.583   5.444   6.521  0.1623 -0.0621  0.6351
 9584SOL    HW130426   4.651   5.433   6.588  0.8205  1.6277  0.2822
 9584SOL    HW230427   4.519   5.502   6.561 -0.2552 -0.3229  0.3592
 9585SOL     OW30428   6.074   3.200   1.953  0.4340  0.9817 -0.7900
 9585SOL    HW130429   6.153   3.159   1.917  1.1587  0.1990  1.4842
 9585SOL    HW230430   6.007   3.132   1.949  0.4977  0.9147 -0.7270
 9586SOL     OW30431   1.134   8.617   8.785  0.2256  0.2808  0.1385
 9586SOL    HW130432   1.139   8.646   8.694 -0.1462 -0.3766 -0.0979
 9586SOL    HW230433   1.049   8.649   8.816  0.5650  0.9427  0.4218
 9587SOL     OW30434   0.178   7.610   5.407  0.3390  0.4284 -0.5751
 9587SOL    HW130435   0.168   7.596   5.312 -0.2606  0.6081 -0.5373
 9587SOL    HW230436   0.256   7.558   5.429  0.3923  0.2518 -1.1370
 9588SOL     OW30437   8.379   1.434   4.125 -0.5439  0.1092  0.3255
 9588SOL    HW130438   8.341   1.489   4.194 -0.3893 -0.6314  1.0116
 9588SOL    HW230439   8.310   1.372   4.103 -0.4679  0.1208  0.0585
 9589SOL     OW30440   1.657   9.421   0.331 -0.6347 -0.6142 -0.8762
 9589SOL    HW130441   1.585   9.445   0.388 -1.6424  0.2617 -2.4608
 9589SOL    HW230442   1.693   9.504   0.300  0.8737 -1.0408 -0.3736
 9590SOL     OW30443   5.989   2.071   6.024 -0.1440 -0.0565 -0.8056
 9590SOL    HW130444   6.031   2.118   6.096 -0.1887 -0.3999 -0.5534
 9590SOL    HW230445   6.036   1.988   6.017  0.4360  0.3327 -1.7593
 9591SOL     OW30446   8.697   7.913   9.525 -0.2798 -0.2257  0.3036
 9591SOL    HW130447   8.642   7.957   9.591 -0.8017  0.6306 -0.6721
 9591SOL    HW230448   8.640   7.847   9.486  0.0364 -0.7467  0.7016
 9592SOL     OW30449   6.953   1.785   3.232 -0.3703 -0.1139  0.4495
 9592SOL    HW130450   6.938   1.731   3.309  0.5700 -0.0012  0.7302
 9592SOL    HW230451   7.012   1.732   3.177 -0.3199  0.1690  0.2279
 9593SOL     OW30452   8.646   4.111   7.285  0.2200  0.1720 -0.2617
 9593SOL    HW130453   8.617   4.197   7.253 -1.5601 -0.6950 -1.1189
 9593SOL    HW230454   8.565   4.066   7.308  1.1689 -1.1026  0.6644
 9594SOL     OW30455   4.320   6.412   5.326  0.1347 -0.2635  0.1152
 9594SOL    HW130456   4.262   6.421   5.251  0.2515  0.7721  0.1312
 9594SOL    HW230457   4.407   6.400   5.288 -0.1477 -2.7130  0.0790
 9595SOL     OW30458   9.676   4.530   4.485  0.7040  0.0093 -0.1632
 9595SOL    HW130459   9.704   4.620   4.504  2.2875 -0.2110 -1.2065
 9595SOL    HW230460   9.726   4.476   4.546 -0.5398 -0.1706  0.7344
 9596SOL     OW30461   6.993   1.362   4.276  0.4432  0.0669 -0.3679
 9596SOL    HW130462   6.974   1.281   4.228 -0.6514  0.4815 -0.6736
 9596SOL    HW230463   6.994   1.430   4.208  0.5394  0.4213 -0.0131
 9597SOL     OW30464   0.658   6.032   6.140  0.3049 -0.1828 -0.1831
 9597SOL    HW130465   0.617   6.014   6.224  0.5675 -0.6602 -0.1564
 9597SOL    HW230466   0.620   5.969   6.080 -0.7566  0.9107 -0.7057
 9598SOL     OW30467   0.007   7.481   8.196  0.1355  0.1519  0.2882
 9598SOL    HW130468  -0.029   7.438   8.118  0.5875 -0.1931  0.2634
 9598SOL    HW230469   0.041   7.409   8.249 -0.4559  0.3553  0.9612
 9599SOL     OW30470   6.113   3.287   5.634 -0.0508 -0.0456  0.1113
 9599SOL    HW130471   6.083   3.377   5.648  1.1332  0.4540 -0.4060
 9599SOL    HW230472   6.092   3.242   5.716 -0.2100  0.8335  0.5669
 9600SOL     OW30473   3.895   6.124   5.045  0.3394  0.7705 -0.1199
 9600SOL    HW130474   3.806   6.092   5.060 -0.4581  2.0639 -1.6470
 9600SOL    HW230475   3.902   6.200   5.103  1.2724 -0.5431  1.5688
 9601SOL     OW30476   8.380   2.981   2.899  0.1758 -0.2572  0.2779
 9601SOL    HW130477   8.449   2.923   2.868  2.5742  1.5716  1.9173
 9601SOL    HW230478   8.332   2.928   2.964  1.8044 -0.6990  1.1630
 9602SOL     OW30479   4.386   3.121   7.558 -0.1977  0.1140  0.4487
 9602SOL    HW130480   4.405   3.173   7.636  0.7164 -0.3828  0.5704
 9602SOL    HW230481   4.311   3.068   7.583  0.3321 -0.3283  1.1398
 9603SOL     OW30482   8.291   5.224   1.268  0.0571 -0.2609  0.1850
 9603SOL    HW130483   8.230   5.213   1.341 -0.2745  0.8345  0.0788
 9603SOL    HW230484   8.343   5.300   1.292  1.2155 -1.0081  0.1401
 9604SOL     OW30485   1.375   5.044   9.592 -0.0472  0.0198 -0.2196
 9604SOL    HW130486   1.351   5.011   9.678 -1.5998  1.2959 -0.1302
 9604SOL    HW230487   1.296   5.087   9.559  0.9521  0.8642 -1.6540
 9605SOL     OW30488   4.893   4.781   6.258  0.5358 -0.1748 -0.0576
 9605SOL    HW130489   4.803   4.800   6.286  1.2015 -0.2656  2.3965
 9605SOL    HW230490   4.943   4.776   6.339  3.0733  1.2772 -1.3836
 9606SOL     OW30491   2.095   1.351   2.764 -0.1542 -0.6419 -0.1501
 9606SOL    HW130492   2.118   1.258   2.774 -0.9275 -0.8023  0.1662
 9606SOL    HW230493   2.018   1.363   2.819 -0.3402  0.0859 -0.5585
 9607SOL     OW30494   6.421   4.092   6.811  0.4257  0.4375 -0.0250
 9607SOL    HW130495   6.392   4.006   6.842  0.4245  0.4534  0.0177
 9607SOL    HW230496   6.515   4.095   6.830  0.4259  0.4450 -0.0277
 9608SOL     OW30497   4.979   1.276   1.981 -0.0850  0.0733  0.1984
 9608SOL    HW130498   5.051   1.213   1.975  0.7725  0.8297  1.9518
 9608SOL    HW230499   5.019   1.356   2.013 -1.0253  1.8414 -2.6855
 9609SOL     OW30500   4.811   3.399   2.048 -0.5444 -0.0153 -0.1529
 9609SOL    HW130501   4.795   3.427   1.958 -2.3460 -0.8499 -0.1279
 9609SOL    HW230502   4.727   3.367   2.079 -0.2704  1.3635  2.2740
 9610SOL     OW30503   1.433   3.592   0.455 -0.3905  0.2241  0.3175
 9610SOL    HW130504   1.387   3.643   0.389  1.1144  0.2256 -0.7887
 9610SOL    HW230505   1.520   3.630   0.459  0.6135 -1.8717 -0.1509
 9611SOL     OW30506   5.907   8.914   2.946 -0.4113 -0.3592  0.4768
 9611SOL    HW130507   6.000   8.898   2.932 -0.5329 -0.1897 -0.6773
 9611SOL    HW230508   5.866   8.888   2.863 -1.4747 -1.0748  1.1993
 9612SOL     OW30509   9.478   4.955   6.557  0.6328  0.1574  0.0218
 9612SOL    HW130510   9.532   4.905   6.618 -0.4468 -0.5590  0.4273
 9612SOL    HW230511   9.401   4.899   6.543  0.4115  0.7498 -1.2284
 9613SOL     OW30512   9.063   6.809   3.072 -0.0864  0.1484 -0.4680
 9613SOL    HW130513   8.978   6.803   3.115  0.3287  0.6443  0.4528
 9613SOL    HW230514   9.053   6.758   2.991 -0.8071 -1.0452  0.3419
 9614SOL     OW30515   6.336   9.101   2.638  0.3276 -0.2000  0.4014
 9614SOL    HW130516   6.341   9.088   2.543 -0.3734 -1.3876  0.5107
 9614SOL    HW230517   6.249   9.139   2.652  0.5005  0.1450  0.5610
 9615SOL     OW30518   7.463   5.737   9.483 -0.0177 -0.4573 -0.1853
 9615SOL    HW130519   7.522   5.667   9.510  1.4206  0.9107  0.4557
 9615SOL    HW230520   7.390   5.693   9.440  0.3522 -2.3830  1.0360
 9616SOL     OW30521   7.004   0.584   5.504  0.0432 -0.0137 -0.0051
 9616SOL    HW130522   6.976   0.519   5.568  1.7850  0.4669  1.3329
 9616SOL    HW230523   7.097   0.564   5.488  0.3386  1.4690 -0.3507
 9617SOL     OW30524   6.116   1.365   0.866  0.2705 -0.5982  0.5797
 9617SOL    HW130525   6.133   1.287   0.813  3.0307  1.5018 -1.9924
 9617SOL    HW230526   6.177   1.358   0.939 -0.8998 -1.7232  1.4886
 9618SOL     OW30527   2.263   7.343   3.752  0.2275  0.1736 -0.4346
 9618SOL    HW130528   2.244   7.432   3.782  0.9173 -0.3022  1.5735
 9618SOL    HW230529   2.356   7.331   3.769 -0.2956 -1.6598  1.5384
 9619SOL     OW30530   4.538   7.874   4.938  0.3182  0.1368 -0.0649
 9619SOL    HW130531   4.610   7.859   4.999 -0.5667 -0.4182  0.8688
 9619SOL    HW230532   4.546   7.966   4.913  1.3144  0.0947  0.0620
 9620SOL     OW30533   5.987   2.356   6.611  0.4474 -0.0381  0.0650
 9620SOL    HW130534   6.003   2.263   6.628  1.9575 -0.2772 -2.2859
 9620SOL    HW230535   5.894   2.362   6.593  0.5631 -1.3571 -1.0753
 9621SOL     OW30536   1.742   4.413   0.187 -0.5967 -0.3434  0.0761
 9621SOL    HW130537   1.671   4.351   0.169 -1.6849 -0.1455  3.0599
 9621SOL    HW230538   1.712   4.461   0.264  0.2845  3.8500 -1.9343
 9622SOL     OW30539   3.008   2.703   1.616 -0.2090  0.3046  0.3299
 9622SOL    HW130540   3.041   2.661   1.696  1.5541 -0.0251 -0.5175
 9622SOL    HW230541   3.085   2.712   1.560 -1.6552 -1.0759 -2.0562
 9623SOL     OW30542   3.826   4.688   0.351 -0.1229 -0.7796  0.0143
 9623SOL    HW130543   3.877   4.764   0.320 -0.5634 -0.7458 -0.6283
 9623SOL    HW230544   3.793   4.716   0.437  0.9404 -0.8045  0.4617
 9624SOL     OW30545   0.425   3.419   6.325 -0.4451  0.7972  0.6521
 9624SOL    HW130546   0.455   3.453   6.241  1.5229 -0.0519  0.9551
 9624SOL    HW230547   0.496   3.438   6.386  0.2577 -2.6265  1.1071
 9625SOL     OW30548   5.926   2.920   7.527 -0.7531 -0.3763  0.8854
 9625SOL    HW130549   5.947   2.921   7.620 -0.7029 -0.6537  0.8787
 9625SOL    HW230550   5.848   2.975   7.519 -1.1217 -0.8509  1.1788
 9626SOL     OW30551   2.481   9.657   0.140  0.2938 -0.7640 -0.2089
 9626SOL    HW130552   2.435   9.705   0.209 -0.4206 -3.2502  1.1892
 9626SOL    HW230553   2.461   9.705   0.060 -1.5625  0.4370  0.8845
 9627SOL     OW30554   3.012   8.677   8.596 -1.1302  0.5020 -0.6429
 9627SOL    HW130555   3.088   8.734   8.595 -0.5272 -0.2841 -0.7352
 9627SOL    HW230556   3.019   8.627   8.515 -0.2717 -1.4361  0.5455
 9628SOL     OW30557   8.839   6.680   5.136  1.3149  0.0604 -0.3051
 9628SOL    HW130558   8.752   6.717   5.120  0.7740 -0.7024  0.7444
 9628SOL    HW230559   8.868   6.720   5.217  1.3262 -0.7247  0.0945
 9629SOL     OW30560   8.816   3.440   2.796 -0.1184  0.7651  0.0087
 9629SOL    HW130561   8.853   3.480   2.876  1.3581 -1.2675  0.4293
 9629SOL    HW230562   8.882   3.457   2.729  1.6842 -2.6485  0.6982
 9630SOL     OW30563   0.661   8.506   0.073  0.4677 -0.2862  0.0629
 9630SOL    HW130564   0.682   8.412   0.078 -2.7812 -1.4204 -3.2521
 9630SOL    HW230565   0.596   8.519   0.143  2.3521  0.1372  1.8530
 9631SOL     OW30566   2.077   9.368   0.515 -0.3614 -0.7593  0.6892
 9631SOL    HW130567   2.147   9.327   0.565 -1.3112 -2.1151  0.9726
 9631SOL    HW230568   2.003   9.307   0.523 -1.0027 -0.2910 -1.1480
 9632SOL     OW30569   8.594   1.801   1.917  0.0100 -0.4247 -0.5003
 9632SOL    HW130570   8.553   1.847   1.843 -0.7511 -0.5062 -0.1360
 9632SOL    HW230571   8.682   1.839   1.922 -0.3939  0.5600 -0.5937
 9633SOL     OW30572   8.261   3.163   8.744 -0.1690 -0.1664  0.1597
 9633SOL    HW130573   8.340   3.177   8.796 -0.9425 -0.9093  1.5819
 9633SOL    HW230574   8.220   3.249   8.738 -0.5438 -0.2193  1.6128
 9634SOL     OW30575   9.581   9.227   0.647  0.2249  0.4789 -0.6843
 9634SOL    HW130576   9.531   9.282   0.706 -0.1378 -0.5036 -0.0436
 9634SOL    HW230577   9.581   9.140   0.688  0.4795 -0.0927 -1.8190
 9635SOL     OW30578   4.203   5.696   4.644  0.5301 -0.0274 -0.0418
 9635SOL    HW130579   4.170   5.727   4.560  1.3693  0.2919 -0.2610
 9635SOL    HW230580   4.160   5.751   4.709  1.1768  0.8718 -0.3632
 9636SOL     OW30581   1.912   3.189   2.887  0.2818  0.2341  0.1442
 9636SOL    HW130582   1.860   3.266   2.865 -0.9758 -0.8092 -0.7049
 9636SOL    HW230583   1.995   3.224   2.919 -0.8622  1.9551  1.3949
 9637SOL     OW30584   0.407   7.631   3.310 -0.1538  0.1071  0.2364
 9637SOL    HW130585   0.420   7.674   3.225 -0.6425 -1.3723 -0.6234
 9637SOL    HW230586   0.491   7.642   3.355  0.3261  0.3946 -0.6860
 9638SOL     OW30587   8.295   4.651   8.165  0.3871 -0.2781 -0.1892
 9638SOL    HW130588   8.375   4.695   8.193  0.5281 -0.9001  0.4214
 9638SOL    HW230589   8.225   4.706   8.199  0.5603 -0.8036  1.0812
 9639SOL     OW30590   7.971   7.492   3.804  0.0979 -0.2310  0.1879
 9639SOL    HW130591   8.000   7.402   3.792 -0.7776 -0.4937 -0.0205
 9639SOL    HW230592   7.994   7.536   3.722  2.2215  0.2310  0.9666
 9640SOL     OW30593   4.006   0.907   5.256 -0.0332  0.1455 -0.0506
 9640SOL    HW130594   3.974   0.871   5.174 -0.9661  0.9360 -0.0529
 9640SOL    HW230595   4.040   0.832   5.304  1.0370 -0.2516 -1.3658
 9641SOL     OW30596   9.251   1.630   2.777 -0.3470  0.1014  0.3235
 9641SOL    HW130597   9.301   1.705   2.746 -0.8080  0.4413  0.3942
 9641SOL    HW230598   9.267   1.628   2.872 -0.1049 -0.0638  0.2802
 9642SOL     OW30599   8.131   8.555   1.495 -0.4921  0.3131 -0.2211
 9642SOL    HW130600   8.152   8.639   1.537 -0.9989  1.0923 -1.4821
 9642SOL    HW230601   8.079   8.508   1.561  0.8826  0.4233  0.9989
 9643SOL     OW30602   0.990   2.236   4.302  0.6752  0.4422 -0.3038
 9643SOL    HW130603   1.060   2.247   4.367  0.0722  0.8819  0.2952
 9643SOL    HW230604   0.911   2.223   4.355  0.6483 -2.7256 -0.9364
 9644SOL     OW30605   0.485   0.487   6.685 -0.3998 -0.5009 -0.3149
 9644SOL    HW130606   0.488   0.580   6.663 -0.0583  0.6709  3.8334
 9644SOL    HW230607   0.565   0.450   6.648  1.2109  1.6908  0.7829
 9645SOL     OW30608   1.148   0.076   0.006 -0.4920  0.0049 -0.0973
 9645SOL    HW130609   1.058   0.074   0.041 -0.9223 -2.0146 -1.1257
 9645SOL    HW230610   1.175   0.167   0.013 -1.4162  0.1545  3.2029
 9646SOL     OW30611   6.495   4.502   0.342 -0.2608 -0.2709 -0.8872
 9646SOL    HW130612   6.484   4.417   0.384 -0.4270  0.4463  0.5629
 9646SOL    HW230613   6.453   4.492   0.256 -0.2921 -1.6288 -0.7282
 9647SOL     OW30614   6.986   2.677   3.179 -0.3873 -0.0978  0.2261
 9647SOL    HW130615   6.944   2.619   3.243 -0.7973 -1.1382 -0.9357
 9647SOL    HW230616   7.056   2.623   3.141  0.3404  0.7604  0.3158
 9648SOL     OW30617   1.233   4.520   7.118  0.4306  0.3188 -0.2508
 9648SOL    HW130618   1.253   4.483   7.032  0.3736 -0.8322  0.2202
 9648SOL    HW230619   1.153   4.476   7.146  0.7069  0.3345  0.5942
 9649SOL     OW30620   7.957   6.269   6.657 -0.0588 -0.1859  0.3518
 9649SOL    HW130621   7.883   6.210   6.672 -0.4160  0.2193  0.2119
 9649SOL    HW230622   8.028   6.212   6.628 -0.3237 -0.5756  0.4665
 9650SOL     OW30623   5.435   9.643   5.254  1.0515 -0.4378  0.0312
 9650SOL    HW130624   5.362   9.654   5.315  0.6825  1.2238 -0.6569
 9650SOL    HW230625   5.482   9.727   5.257  2.1616 -1.0153 -0.5269
 9651SOL     OW30626   8.618   8.254   9.250 -0.5320  0.3469  0.2316
 9651SOL    HW130627   8.667   8.172   9.245 -0.7673 -0.0547  2.8141
 9651SOL    HW230628   8.538   8.232   9.298 -2.4680  1.3767 -2.2963
 9652SOL     OW30629   2.091   0.880   0.327 -0.0450 -0.0039  0.1875
 9652SOL    HW130630   2.019   0.829   0.290  0.3364 -1.8589  1.8525
 9652SOL    HW230631   2.166   0.822   0.326  1.2743  1.6106 -0.6886
 9653SOL     OW30632   3.857   0.568   1.845  0.1120 -0.3378 -0.1867
 9653SOL    HW130633   3.775   0.551   1.890 -0.0672  0.6466 -0.1296
 9653SOL    HW230634   3.902   0.484   1.846 -0.5520 -0.7004  0.4723
 9654SOL     OW30635   3.127   9.628   2.928  0.6427  0.3520  0.0417
 9654SOL    HW130636   3.211   9.651   2.887  0.7406 -0.0634  0.0045
 9654SOL    HW230637   3.151   9.595   3.014  0.3503  2.4253  0.9632
 9655SOL     OW30638   1.719   7.631   5.113  0.4422 -0.4569 -0.3435
 9655SOL    HW130639   1.724   7.703   5.175  0.4149 -0.4819 -0.3124
 9655SOL    HW230640   1.754   7.667   5.031 -0.4456 -0.1214 -0.5847
 9656SOL     OW30641   2.648   7.526   7.067  0.2025 -0.3532  0.1062
 9656SOL    HW130642   2.686   7.522   7.155  2.0520 -1.1247 -0.6712
 9656SOL    HW230643   2.638   7.619   7.049  3.0216 -0.0242 -0.1159
 9657SOL     OW30644   4.351   4.042   1.401 -0.1386 -0.5219  0.5796
 9657SOL    HW130645   4.289   4.070   1.334 -1.3815 -0.8132  1.5551
 9657SOL    HW230646   4.314   3.960   1.434  1.3597 -1.2791  0.4541
 9658SOL     OW30647   3.649   2.279   8.747 -0.4069 -0.0217  0.0889
 9658SOL    HW130648   3.614   2.310   8.831 -0.9965  1.2871 -0.6032
 9658SOL    HW230649   3.662   2.185   8.759 -1.0390  0.0468  1.4527
 9659SOL     OW30650   6.753   7.006   6.112  0.3785  0.3818  0.0866
 9659SOL    HW130651   6.723   6.954   6.038  0.9179  1.1051 -0.6587
 9659SOL    HW230652   6.680   7.004   6.174  0.0916 -0.5994 -0.2563
 9660SOL     OW30653   8.312   4.262   9.369  0.4994  0.2578  0.1912
 9660SOL    HW130654   8.363   4.273   9.449 -0.2319  1.5984  0.5012
 9660SOL    HW230655   8.307   4.167   9.356  1.6902  0.0681  1.0304
 9661SOL     OW30656   6.574   0.397   6.012 -0.0825  0.4562 -0.1899
 9661SOL    HW130657   6.612   0.309   6.016  0.3766  0.5922 -1.3500
 9661SOL    HW230658   6.561   0.421   6.104  0.9392 -0.3279  0.1777
 9662SOL     OW30659   3.258   0.168   5.132  0.6465  0.0884 -0.5063
 9662SOL    HW130660   3.175   0.124   5.116 -0.3066  1.4253  0.5447
 9662SOL    HW230661   3.277   0.151   5.225  1.0833  0.5478 -0.5066
 9663SOL     OW30662   6.431   0.951   1.746  0.1597  0.1361  0.3048
 9663SOL    HW130663   6.403   0.879   1.803  0.4211 -0.2734 -0.0690
 9663SOL    HW230664   6.364   1.018   1.757 -1.1802 -0.9355 -0.7959
 9664SOL     OW30665   7.165   6.118   2.504 -0.2368  0.1677 -0.1780
 9664SOL    HW130666   7.134   6.029   2.489 -0.2392 -0.1365  1.3859
 9664SOL    HW230667   7.161   6.160   2.419 -1.8850 -0.8213 -0.6354
 9665SOL     OW30668   0.794   4.827   4.499  0.4824  0.1524 -0.3126
 9665SOL    HW130669   0.804   4.877   4.581 -1.3956  1.4212 -0.7987
 9665SOL    HW230670   0.802   4.893   4.430  1.2143 -0.7773 -1.1517
 9666SOL     OW30671   1.241   6.565   7.515  0.2914 -0.2595 -0.0935
 9666SOL    HW130672   1.331   6.586   7.489 -0.4102  0.0990 -2.4544
 9666SOL    HW230673   1.200   6.651   7.527  0.0842 -0.4183  0.3226
 9667SOL     OW30674   2.147   0.703   5.718 -0.5520 -0.5923 -0.3713
 9667SOL    HW130675   2.156   0.651   5.798 -0.6437  1.2558  0.8915
 9667SOL    HW230676   2.100   0.645   5.658  1.6470 -2.9282 -0.0147
 9668SOL     OW30677   3.029   1.598   9.538  0.2343  0.0361  0.3679
 9668SOL    HW130678   2.939   1.619   9.562  0.4559 -0.2906  1.5014
 9668SOL    HW230679   3.041   1.641   9.453 -1.2392 -0.5975 -0.1864
 9669SOL     OW30680   1.373   7.177   5.744 -0.0858 -0.1330  0.2281
 9669SOL    HW130681   1.393   7.155   5.653 -0.2829  1.1254 -0.1339
 9669SOL    HW230682   1.456   7.205   5.782  0.0989 -1.1245  0.5985
 9670SOL     OW30683   6.512   6.024   2.868  0.2674 -0.7318 -0.4170
 9670SOL    HW130684   6.469   5.982   2.942  1.1167 -1.3966 -0.2793
 9670SOL    HW230685   6.574   5.958   2.836 -0.2486 -0.5534 -1.8792
 9671SOL     OW30686   9.015   7.888   2.124  0.4792  0.6554  0.7881
 9671SOL    HW130687   9.002   7.826   2.196 -0.4371  0.8015  0.7607
 9671SOL    HW230688   9.094   7.937   2.148  0.5934  0.2157  1.3353
 9672SOL     OW30689   3.421   2.449   9.278 -0.0038  0.2148  0.2264
 9672SOL    HW130690   3.472   2.524   9.246  0.3848 -0.7877 -1.6119
 9672SOL    HW230691   3.335   2.460   9.240 -0.2818  0.2961  0.8638
 9673SOL     OW30692   5.036   5.903   5.611 -0.1325 -0.8123 -0.0844
 9673SOL    HW130693   5.072   5.947   5.534 -1.0837 -1.1553 -0.7451
 9673SOL    HW230694   5.030   5.811   5.585  2.5670 -1.5638  1.5444
 9674SOL     OW30695   9.555   8.225   9.442 -0.2861  0.4837 -0.0861
 9674SOL    HW130696   9.572   8.131   9.445  1.6446  0.7828 -0.1754
 9674SOL    HW230697   9.634   8.265   9.480  0.3183  2.1606 -2.8225
 9675SOL     OW30698   5.203   8.725   0.078  0.0907 -0.0874 -0.0833
 9675SOL    HW130699   5.108   8.729   0.083  0.1585  2.4163  0.2756
 9675SOL    HW230700   5.233   8.740   0.167  0.7597  6.0342 -0.8852
 9676SOL     OW30701   9.496   9.265   2.855  0.0601  0.0682  0.2444
 9676SOL    HW130702   9.584   9.228   2.853 -0.5039 -1.3113 -0.3280
 9676SOL    HW230703   9.468   9.257   2.946  0.3961  0.2027  0.3596
 9677SOL     OW30704   7.386   2.321   1.099  0.1683  0.1150 -0.0280
 9677SOL    HW130705   7.336   2.280   1.029  0.2894 -1.4378  0.7386
 9677SOL    HW230706   7.379   2.260   1.173  0.5034  1.4203  1.1437
 9678SOL     OW30707   9.217   3.364   7.993 -0.3219  0.1597  0.2391
 9678SOL    HW130708   9.267   3.408   7.924  1.8328 -0.2212  1.4798
 9678SOL    HW230709   9.239   3.272   7.985 -2.7433 -0.4225 -0.6493
 9679SOL     OW30710   9.566   3.396   4.822  0.3896  0.5436 -0.2773
 9679SOL    HW130711   9.515   3.412   4.742 -2.5691 -0.4067  1.3082
 9679SOL    HW230712   9.597   3.306   4.813  1.4429  0.9479 -0.9956
 9680SOL     OW30713   6.104   7.569   3.472 -0.5046 -0.4990 -0.1432
 9680SOL    HW130714   6.064   7.525   3.547  1.2742 -1.7590  0.1239
 9680SOL    HW230715   6.163   7.504   3.434  0.7504  1.0256 -0.9281
 9681SOL     OW30716   0.374   7.978   4.085 -0.3395 -0.6968  0.0652
 9681SOL    HW130717   0.291   7.977   4.131 -1.3217  0.8759 -1.5722
 9681SOL    HW230718   0.364   7.912   4.016  0.6178 -2.0411  1.1359
 9682SOL     OW30719   4.003   8.683   3.163 -0.4063 -0.4304  0.0775
 9682SOL    HW130720   4.058   8.744   3.114  2.8148 -0.4604  3.2178
 9682SOL    HW230721   3.955   8.738   3.224 -0.3228 -0.7420  0.4273
 9683SOL     OW30722   6.021   6.163   1.389 -0.5949 -0.2361  0.0962
 9683SOL    HW130723   5.926   6.148   1.380 -0.7034  0.5443 -0.1383
 9683SOL    HW230724   6.051   6.092   1.445 -1.0602 -1.3992 -1.0708
 9684SOL     OW30725   3.149   7.138   1.154  0.0256  0.3330 -0.0929
 9684SOL    HW130726   3.147   7.216   1.099  1.4693  0.0123 -0.6720
 9684SOL    HW230727   3.240   7.108   1.149 -0.5199 -1.4787 -0.0380
 9685SOL     OW30728   5.477   9.255   9.588 -0.4185 -0.0751 -0.2510
 9685SOL    HW130729   5.386   9.281   9.603  0.3445  1.3639  2.6917
 9685SOL    HW230730   5.484   9.243   9.494 -3.5067  0.3302 -0.6147
 9686SOL     OW30731   7.244   2.486   6.913  0.1272 -0.2272  0.0065
 9686SOL    HW130732   7.304   2.539   6.860  0.6464 -0.4202  0.3961
 9686SOL    HW230733   7.194   2.550   6.964  0.1631 -0.0771 -0.1456
 9687SOL     OW30734   1.712   4.359   6.197 -0.0088 -0.0698 -0.0824
 9687SOL    HW130735   1.636   4.406   6.232  0.1147 -0.4949  0.8043
 9687SOL    HW230736   1.731   4.401   6.114 -1.0119  0.2593 -0.1523
 9688SOL     OW30737   0.693   4.488   7.239 -0.1469 -0.0762 -0.0359
 9688SOL    HW130738   0.716   4.395   7.235 -0.5526 -0.2578  1.5150
 9688SOL    HW230739   0.743   4.528   7.167  1.0544 -1.2758  0.1017
 9689SOL     OW30740   8.048   8.881   1.240 -0.2504 -0.3015 -0.2032
 9689SOL    HW130741   7.971   8.827   1.257  0.1704 -1.0570 -0.6070
 9689SOL    HW230742   8.068   8.922   1.324  0.2125 -1.8382  0.4695
 9690SOL     OW30743   9.332   4.687   6.808 -0.0325  0.6690 -0.1949
 9690SOL    HW130744   9.242   4.692   6.841  0.3013 -0.5019  0.9740
 9690SOL    HW230745   9.360   4.778   6.800 -1.2782  1.0484 -0.4858
 9691SOL     OW30746   0.258   8.596   9.308 -0.3295  0.7113  0.3544
 9691SOL    HW130747   0.292   8.684   9.292  0.3583  0.1322 -1.6784
 9691SOL    HW230748   0.172   8.610   9.347  0.1405  2.2524  0.9124
 9692SOL     OW30749   6.753   7.505   5.721 -0.0579 -0.1811 -0.7534
 9692SOL    HW130750   6.817   7.438   5.697 -1.4750 -1.5241 -0.9234
 9692SOL    HW230751   6.692   7.461   5.779 -0.8363  1.0681 -0.5838
 9693SOL     OW30752   7.722   8.947   5.322 -0.0564 -0.1457  0.4057
 9693SOL    HW130753   7.719   8.853   5.303 -0.0709 -0.2352  0.8446
 9693SOL    HW230754   7.693   8.955   5.413 -0.1344  0.2930  0.3472
 9694SOL     OW30755   8.130   1.668   2.557 -0.6893  0.0871  0.3352
 9694SOL    HW130756   8.046   1.638   2.520 -1.3482  2.3271 -0.1556
 9694SOL    HW230757   8.161   1.733   2.495  0.8614  0.1216  1.1109
 9695SOL     OW30758   0.893   8.315   1.229 -0.3178  0.5518 -0.4511
 9695SOL    HW130759   0.889   8.402   1.267  0.6821  0.2603  0.3758
 9695SOL    HW230760   0.984   8.287   1.242 -0.7918 -0.8979 -0.0077
 9696SOL     OW30761   0.555   1.262   1.008  1.3359  0.0685  0.0992
 9696SOL    HW130762   0.646   1.243   0.984  1.3718  0.7613 -0.3129
 9696SOL    HW230763   0.561   1.305   1.093  1.2595 -1.6171  1.0059
 9697SOL     OW30764   9.053   0.106   4.584 -0.2852  0.1727  0.1534
 9697SOL    HW130765   9.084   0.189   4.546 -2.0420  0.1536 -1.4815
 9697SOL    HW230766   9.123   0.080   4.644  2.0509  0.9519 -2.0340
 9698SOL     OW30767   7.804   0.837   8.915 -0.0638 -0.1670 -0.1991
 9698SOL    HW130768   7.742   0.879   8.974  0.6499  2.4522 -1.1640
 9698SOL    HW230769   7.882   0.892   8.918  0.3771 -0.5061 -2.7497
 9699SOL     OW30770   7.320   3.225   8.323 -0.1789  0.7262 -0.6123
 9699SOL    HW130771   7.385   3.192   8.261 -0.0362 -0.7065  0.2540
 9699SOL    HW230772   7.367   3.229   8.407 -0.1809  3.2440 -0.6617
 9700SOL     OW30773   5.513   8.137   1.678 -0.0552  0.0411 -0.5718
 9700SOL    HW130774   5.575   8.068   1.656  0.0169  0.7274 -2.7941
 9700SOL    HW230775   5.567   8.216   1.686 -0.4363  0.3418 -0.9019
 9701SOL     OW30776   3.107   7.012   1.950 -0.0115  0.1525  0.5227
 9701SOL    HW130777   3.120   6.927   1.909 -1.9736  0.0606 -0.0015
 9701SOL    HW230778   3.193   7.053   1.949  0.5231 -0.9250 -1.2806
 9702SOL     OW30779   8.071   2.041   9.270 -0.9176 -0.3710  0.1615
 9702SOL    HW130780   8.053   1.972   9.206  0.4636  1.5210 -2.4346
 9702SOL    HW230781   8.006   2.108   9.251  1.3447  1.4991 -1.4054
 9703SOL     OW30782   7.557   5.385   1.645 -0.3613  0.7733  0.2196
 9703SOL    HW130783   7.542   5.293   1.623  0.5769  0.6275  0.1346
 9703SOL    HW230784   7.636   5.384   1.699 -0.2272  1.5490  0.0510
 9704SOL     OW30785   8.903   6.465   6.705  0.1680 -0.3729  0.0365
 9704SOL    HW130786   8.877   6.447   6.795  1.5866 -1.4879  0.2596
 9704SOL    HW230787   8.999   6.462   6.707  0.2521  0.6354 -1.3068
 9705SOL     OW30788   7.553   1.686   4.335 -0.6930 -0.6761 -0.2833
 9705SOL    HW130789   7.490   1.716   4.270 -1.4855  0.4872  0.9770
 9705SOL    HW230790   7.576   1.764   4.385  0.9102 -1.2946  0.0029
 9706SOL     OW30791   4.215   7.631   4.405  0.0657 -0.1097  0.2663
 9706SOL    HW130792   4.287   7.680   4.364  0.9674  0.2016  2.1112
 9706SOL    HW230793   4.175   7.693   4.465  2.3590 -1.9098  4.0227
 9707SOL     OW30794   3.897   8.273   2.418  0.1299  0.3487  0.0215
 9707SOL    HW130795   3.851   8.279   2.502  0.4160 -0.4650  0.2455
 9707SOL    HW230796   3.967   8.338   2.425 -0.8639  1.4802 -0.2598
 9708SOL     OW30797   5.288   0.572   2.651  0.0767 -0.2357 -0.2712
 9708SOL    HW130798   5.371   0.525   2.640 -0.3848 -0.9367 -0.8244
 9708SOL    HW230799   5.288   0.636   2.580  1.0585  1.1647  0.9403
 9709SOL     OW30800   8.992   3.676   5.836 -0.4070 -0.6685 -0.2849
 9709SOL    HW130801   8.929   3.749   5.841 -0.7121 -0.9725  0.5755
 9709SOL    HW230802   9.025   3.668   5.925  1.9143  0.3798 -0.9743
 9710SOL     OW30803   7.490   6.893   7.331  0.3558  0.3817 -0.4960
 9710SOL    HW130804   7.441   6.814   7.351 -0.4568  0.3236 -2.4584
 9710SOL    HW230805   7.425   6.964   7.341  0.1611  0.4306 -1.9068
 9711SOL     OW30806   9.129   5.297   6.562  0.2175 -0.0821  0.8428
 9711SOL    HW130807   9.171   5.382   6.563  0.7961 -0.3532  0.2512
 9711SOL    HW230808   9.041   5.314   6.528  0.2505  0.3157  0.9624
 9712SOL     OW30809   5.874   6.285   7.732 -0.2689 -0.2153 -0.3552
 9712SOL    HW130810   5.834   6.368   7.706  1.2365  0.8367  0.5575
 9712SOL    HW230811   5.935   6.308   7.802  0.1747 -2.1015 -0.0611
 9713SOL     OW30812   9.375   5.789   1.169  0.2449  0.4852 -0.2786
 9713SOL    HW130813   9.298   5.821   1.217 -0.0323  0.8468 -0.9535
 9713SOL    HW230814   9.378   5.696   1.188  0.5151  0.7297  0.9713
 9714SOL     OW30815   4.265   1.661   5.633 -0.1664 -0.0740  0.1935
 9714SOL    HW130816   4.282   1.731   5.570 -1.8045 -0.5020 -0.7927
 9714SOL    HW230817   4.230   1.706   5.710 -1.6969  0.2218 -0.6196
 9715SOL     OW30818   5.963   3.436   1.981 -0.4581 -0.0636 -0.3155
 9715SOL    HW130819   6.006   3.351   1.976 -0.7510 -0.1678 -1.1191
 9715SOL    HW230820   5.954   3.453   2.075 -0.2728 -0.8528 -0.1520
 9716SOL     OW30821   1.713   1.193   0.969  0.0338  0.3892  0.6716
 9716SOL    HW130822   1.762   1.273   0.949 -1.0672  1.4316  1.9982
 9716SOL    HW230823   1.733   1.134   0.896  1.7831  1.4324  0.2491
 9717SOL     OW30824   1.823   2.078   3.859  0.1581 -0.2222  0.2133
 9717SOL    HW130825   1.911   2.109   3.834  0.2085 -1.6951 -1.6641
 9717SOL    HW230826   1.766   2.152   3.840  0.5698 -0.3988 -2.0291
 9718SOL     OW30827   3.604   3.259   8.553 -0.6403 -0.1594 -0.1483
 9718SOL    HW130828   3.669   3.233   8.488 -1.0779  0.4309 -0.8436
 9718SOL    HW230829   3.643   3.236   8.637  0.1392 -0.5076 -0.5936
 9719SOL     OW30830   9.536   4.473   6.211  0.2887 -0.1697 -0.2139
 9719SOL    HW130831   9.506   4.387   6.238 -1.6026  0.3351 -0.5213
 9719SOL    HW230832   9.616   4.488   6.260  0.0073 -1.6124  0.7304
 9720SOL     OW30833   1.084   8.787   6.887  1.0764  1.3260  0.7338
 9720SOL    HW130834   1.149   8.809   6.820 -0.0065  2.3399 -0.0096
 9720SOL    HW230835   1.134   8.737   6.953  2.2860  0.8109 -0.5215
 9721SOL     OW30836   3.140   5.927   7.031 -0.6606 -0.6285  0.0674
 9721SOL    HW130837   3.079   5.994   7.060 -0.2894  0.2045 -1.0014
 9721SOL    HW230838   3.152   5.945   6.938 -0.9384 -2.4972 -0.3562
 9722SOL     OW30839   8.470   8.861   3.464  0.4426  0.6869 -0.1877
 9722SOL    HW130840   8.390   8.883   3.512  0.8033  2.3401 -0.2898
 9722SOL    HW230841   8.453   8.774   3.428 -0.3885 -0.0216  1.7568
 9723SOL     OW30842   4.290   4.227   1.626 -0.3943 -0.0307  0.0048
 9723SOL    HW130843   4.271   4.166   1.697  0.2448  0.8786  0.9944
 9723SOL    HW230844   4.319   4.172   1.553  2.5126 -0.8424  1.6256
 9724SOL     OW30845   7.071   4.076   9.647  0.1826 -0.8373 -0.1066
 9724SOL    HW130846   7.116   4.000   9.684  0.7327 -0.9633 -1.0018
 9724SOL    HW230847   7.123   4.099   9.569  0.0735  0.5038  0.1985
 9725SOL     OW30848   5.149   6.131   4.080  0.0945  0.3918  1.0463
 9725SOL    HW130849   5.088   6.132   4.153  0.7100 -1.4526  1.6374
 9725SOL    HW230850   5.231   6.164   4.117  0.4061 -0.5424  1.2261
 9726SOL     OW30851   3.234   0.638   1.895  0.0149 -0.4193  0.2485
 9726SOL    HW130852   3.164   0.695   1.861 -0.2473 -0.3250  0.9294
 9726SOL    HW230853   3.189   0.561   1.928  0.1298 -0.0275  1.4015
 9727SOL     OW30854   4.436   3.527   4.603 -0.0864 -0.2355  0.0707
 9727SOL    HW130855   4.397   3.536   4.516 -0.5734 -0.2767  0.2815
 9727SOL    HW230856   4.531   3.533   4.588 -0.1438 -0.7301 -0.5199
 9728SOL     OW30857   7.122   9.488   8.825 -0.3079 -0.6829 -0.0789
 9728SOL    HW130858   7.080   9.574   8.820  0.5216 -0.2298  0.5032
 9728SOL    HW230859   7.151   9.470   8.735 -2.1079 -1.2099 -0.5809
 9729SOL     OW30860   7.113   5.502   4.546 -0.2313 -0.6614 -0.2318
 9729SOL    HW130861   7.157   5.564   4.488 -1.6347 -0.8546 -1.5498
 9729SOL    HW230862   7.131   5.416   4.508  2.2769 -1.2356  1.9579
 9730SOL     OW30863   5.316   2.159   8.238 -0.0231 -0.5410 -0.0753
 9730SOL    HW130864   5.278   2.235   8.282  1.9790  1.8254 -2.1186
 9730SOL    HW230865   5.375   2.121   8.303 -0.6302 -0.0202  0.8130
 9731SOL     OW30866   2.137   8.941   9.465 -0.2258 -0.0724  0.5427
 9731SOL    HW130867   2.051   8.905   9.488 -1.3536  2.5637  0.8160
 9731SOL    HW230868   2.140   8.937   9.369 -0.8444  0.1802  0.5073
 9732SOL     OW30869   4.351   7.173   9.067 -0.2014  0.1131  0.0100
 9732SOL    HW130870   4.354   7.260   9.109 -3.0356  0.6517 -0.7388
 9732SOL    HW230871   4.431   7.170   9.014  0.1867  2.0978  0.3848
 9733SOL     OW30872   6.092   3.756   6.257  0.0988 -0.3082  0.2135
 9733SOL    HW130873   6.165   3.752   6.320  1.1017 -0.2383 -0.9094
 9733SOL    HW230874   6.015   3.775   6.311  0.9150 -0.3242  1.4284
 9734SOL     OW30875   1.908   1.888   5.653  0.4457 -0.2919 -0.2287
 9734SOL    HW130876   1.873   1.818   5.708 -0.9324  0.5283 -0.0013
 9734SOL    HW230877   1.870   1.968   5.689 -0.7851  0.2629 -2.5289
 9735SOL     OW30878   2.279   1.758   7.503 -0.0704  0.1146  0.1073
 9735SOL    HW130879   2.275   1.752   7.407 -1.3551  0.3270  0.1292
 9735SOL    HW230880   2.339   1.831   7.520  1.7485 -1.1510 -0.4691
 9736SOL     OW30881   8.520   2.296   2.902 -0.0070 -0.1570  0.3392
 9736SOL    HW130882   8.557   2.384   2.888 -1.5794  0.1990 -2.2136
 9736SOL    HW230883   8.492   2.268   2.815  1.1842 -3.6090  0.9046
 9737SOL     OW30884   9.083   7.375   5.281  0.1674 -0.8009  0.5864
 9737SOL    HW130885   9.153   7.347   5.340  1.8365 -0.4894 -1.1603
 9737SOL    HW230886   9.081   7.470   5.289 -0.0511 -0.8054  0.5996
 9738SOL     OW30887   0.941   6.198   8.496  0.0080  0.1968 -0.0468
 9738SOL    HW130888   0.970   6.165   8.581 -0.5595  0.3878  0.2246
 9738SOL    HW230889   0.964   6.129   8.434 -1.2094 -0.7624  0.5241
 9739SOL     OW30890   2.902   5.059   5.427 -0.2242  0.0040  0.7371
 9739SOL    HW130891   2.883   4.977   5.472  1.2367 -1.9376 -1.8819
 9739SOL    HW230892   2.863   5.048   5.340  0.4971  1.8476  0.1202
 9740SOL     OW30893   1.216   4.525   4.901 -0.2617 -0.2899  0.0939
 9740SOL    HW130894   1.185   4.470   4.829  1.0047 -0.9517  0.0102
 9740SOL    HW230895   1.197   4.474   4.980  0.1502 -0.4863  0.0725
 9741SOL     OW30896   2.525   1.194   2.126 -0.0949 -0.2526 -0.4921
 9741SOL    HW130897   2.442   1.191   2.077 -0.3551 -1.2280 -0.0140
 9741SOL    HW230898   2.527   1.282   2.164 -1.8057 -0.7968  1.0041
 9742SOL     OW30899   7.377   2.548   2.406 -0.4036  0.5932  0.1138
 9742SOL    HW130900   7.312   2.556   2.476 -0.3756  0.0955  0.2040
 9742SOL    HW230901   7.431   2.473   2.432  0.4902  1.2772  0.2581
 9743SOL     OW30902   9.351   1.345   5.332 -0.3131  0.0078  0.0493
 9743SOL    HW130903   9.414   1.272   5.330  1.1922  1.2064  1.1417
 9743SOL    HW230904   9.296   1.327   5.409 -0.9411 -0.7310 -0.5574
 9744SOL     OW30905   5.532   0.751   4.096 -0.2299  0.4061  0.0510
 9744SOL    HW130906   5.589   0.784   4.026 -2.4623 -1.4440 -2.8599
 9744SOL    HW230907   5.591   0.700   4.153  1.3348  0.0317 -1.8038
 9745SOL     OW30908   8.265   1.987   2.679 -0.9646 -0.3401  0.1899
 9745SOL    HW130909   8.232   2.076   2.693  0.1425  0.0143  0.6324
 9745SOL    HW230910   8.187   1.936   2.656 -1.8326  0.4435  1.2965
 9746SOL     OW30911   5.880   6.751   1.432  0.1479  0.1166  0.6609
 9746SOL    HW130912   5.929   6.805   1.494  1.4066  0.8229 -0.8690
 9746SOL    HW230913   5.924   6.666   1.434  0.1995  0.1454  0.7304
 9747SOL     OW30914   6.589   3.640   8.021 -0.0446  0.0806  0.1402
 9747SOL    HW130915   6.626   3.684   8.098 -0.4138 -0.0627  0.4056
 9747SOL    HW230916   6.500   3.675   8.014  0.3015  0.8246 -0.8110
 9748SOL     OW30917   7.975   2.999   3.037 -0.4792  0.2767 -0.0886
 9748SOL    HW130918   7.949   2.914   3.000  0.0531 -0.1028  0.3795
 9748SOL    HW230919   7.901   3.057   3.019 -2.1929 -1.0294  2.1759
 9749SOL     OW30920   8.363   3.146   5.182 -0.1225  0.0975 -0.0711
 9749SOL    HW130921   8.410   3.070   5.215 -0.8785 -0.4582 -0.2510
 9749SOL    HW230922   8.334   3.192   5.261  1.4270  0.9183  0.0578
 9750SOL     OW30923   1.329   8.569   8.460 -0.5161  0.1486  0.5694
 9750SOL    HW130924   1.244   8.527   8.465 -0.4035  0.0372  1.9994
 9750SOL    HW230925   1.327   8.618   8.377 -0.9641 -1.9236 -0.7186
 9751SOL     OW30926   4.606   3.947   0.231 -0.2989 -0.0821 -0.5992
 9751SOL    HW130927   4.549   3.876   0.202  0.5733 -1.1981  0.2606
 9751SOL    HW230928   4.695   3.914   0.214  0.1142  1.3313 -1.3114
 9752SOL     OW30929   6.282   6.114   7.894 -0.2885 -0.0054 -0.3969
 9752SOL    HW130930   6.202   6.161   7.917  0.9327  1.5834  0.8196
 9752SOL    HW230931   6.319   6.086   7.978  1.4095  1.0040 -0.7705
 9753SOL     OW30932   9.414   7.779   8.945 -0.0453  0.9011 -0.0458
 9753SOL    HW130933   9.438   7.785   9.037 -0.0068  2.0997 -0.1225
 9753SOL    HW230934   9.373   7.863   8.925  1.0011  1.1261 -1.4193
 9754SOL     OW30935   2.947   3.368   8.618  0.1243  0.5467 -0.2770
 9754SOL    HW130936   2.860   3.392   8.585  0.6560 -0.6632 -2.7524
 9754SOL    HW230937   2.961   3.279   8.586  2.5492  0.9663 -0.5276
 9755SOL     OW30938   1.375   6.345   1.477  0.2483 -0.2422  0.9609
 9755SOL    HW130939   1.459   6.378   1.445  0.6235 -1.6712  0.3883
 9755SOL    HW230940   1.310   6.387   1.421  0.7161 -0.4800  0.2192
 9756SOL     OW30941   3.490   0.680   9.667  0.2728  0.2770  0.4627
 9756SOL    HW130942   3.428   0.752   9.676 -0.6855 -0.4328 -0.1547
 9756SOL    HW230943   3.576   0.721   9.673 -0.2506  1.3662  0.8119
 9757SOL     OW30944   2.652   3.023   8.135  0.0619 -0.0977 -0.5335
 9757SOL    HW130945   2.665   3.099   8.078 -1.5414  0.0501 -0.7394
 9757SOL    HW230946   2.569   2.985   8.107 -0.5251 -0.3370  1.3397
 9758SOL     OW30947   0.870   6.059   5.913 -0.0936 -0.1265  0.2189
 9758SOL    HW130948   0.948   6.082   5.962  0.1286 -0.0763 -0.1531
 9758SOL    HW230949   0.801   6.051   5.979  0.2270 -0.1797  0.5486
 9759SOL     OW30950   2.482   2.902   6.590  0.1557  0.0962  0.3177
 9759SOL    HW130951   2.431   2.821   6.598 -1.0900  0.7444 -0.7888
 9759SOL    HW230952   2.449   2.944   6.511  3.4306 -0.1368 -1.3543
 9760SOL     OW30953   6.514   3.812   8.314 -0.1931  0.4300 -0.2779
 9760SOL    HW130954   6.432   3.846   8.280 -0.9579 -0.7502  0.3333
 9760SOL    HW230955   6.544   3.880   8.375 -1.3660  0.3256  0.4494
 9761SOL     OW30956   6.481   7.241   7.885  0.0176 -0.1551  0.4523
 9761SOL    HW130957   6.390   7.271   7.884 -0.0846 -0.4746  0.1409
 9761SOL    HW230958   6.475   7.147   7.903  0.3018 -0.1281  0.7069
 9762SOL     OW30959   2.929   9.473   0.134 -0.1286 -0.2565  0.2559
 9762SOL    HW130960   2.885   9.449   0.215 -0.3194 -0.3435  0.1289
 9762SOL    HW230961   2.912   9.567   0.123 -1.9351 -0.6523 -0.7741
 9763SOL     OW30962   5.653   4.649   4.696 -0.5935  0.4115 -0.2946
 9763SOL    HW130963   5.620   4.727   4.652 -1.2917  1.1831  1.4942
 9763SOL    HW230964   5.745   4.668   4.713 -0.1753 -0.1088 -1.7994
 9764SOL     OW30965   6.807   6.055   0.595  0.4841 -0.0544  0.2635
 9764SOL    HW130966   6.809   6.084   0.687 -1.5050 -0.9807  0.6406
 9764SOL    HW230967   6.863   5.978   0.593 -1.0267 -1.2289  1.1960
 9765SOL     OW30968   5.817   0.677   1.279  0.7882 -0.3205  0.1220
 9765SOL    HW130969   5.907   0.700   1.255  0.9615  1.4560  2.1706
 9765SOL    HW230970   5.818   0.582   1.288  2.4247 -0.3482 -0.0639
 9766SOL     OW30971   7.196   5.735   7.389  0.3199 -0.3243  0.1366
 9766SOL    HW130972   7.145   5.700   7.463  1.8903 -1.6170  0.6831
 9766SOL    HW230973   7.138   5.726   7.314 -0.3976 -1.4249  0.7891
 9767SOL     OW30974   6.378   7.145   4.271 -0.0353 -0.2192  0.0564
 9767SOL    HW130975   6.355   7.054   4.249 -3.6912  0.6862 -0.4766
 9767SOL    HW230976   6.461   7.160   4.224 -1.1384 -2.2306 -2.8868
 9768SOL     OW30977   3.961   5.253   1.645 -0.0947 -0.2025 -0.2974
 9768SOL    HW130978   3.960   5.218   1.555 -0.3325 -0.7228 -0.0954
 9768SOL    HW230979   3.870   5.272   1.665 -0.1731 -1.0959  0.2208
 9769SOL     OW30980   9.036   3.522   0.970  0.3309  0.0572 -0.0180
 9769SOL    HW130981   9.037   3.617   0.960 -0.9931  0.0955  0.0637
 9769SOL    HW230982   9.001   3.490   0.887 -1.3760 -0.2046  0.7645
 9770SOL     OW30983   2.238   1.029   3.886  0.0750  0.2254  0.0557
 9770SOL    HW130984   2.198   0.942   3.878 -1.9646  1.0109  1.0612
 9770SOL    HW230985   2.313   1.026   3.827 -0.2910 -2.0159 -0.3868
 9771SOL     OW30986   4.129   9.433   1.795  0.0514  0.3955 -0.0201
 9771SOL    HW130987   4.142   9.349   1.840  2.5950 -0.4285 -2.0597
 9771SOL    HW230988   4.135   9.498   1.865  1.7001 -0.9313  1.1599
 9772SOL     OW30989   8.196   0.584   9.483 -0.2068 -0.6072  0.1885
 9772SOL    HW130990   8.231   0.508   9.437 -0.2775 -0.5671  0.0679
 9772SOL    HW230991   8.267   0.611   9.542 -0.1509 -0.7142  0.1708
 9773SOL     OW30992   1.625   1.113   5.422 -0.7492  0.0658  0.4519
 9773SOL    HW130993   1.634   1.157   5.507 -1.5367 -0.1367  0.6513
 9773SOL    HW230994   1.559   1.166   5.376 -1.5851 -0.7978  0.6322
 9774SOL     OW30995   8.675   0.228   6.801  0.3184  0.1485 -0.4708
 9774SOL    HW130996   8.606   0.166   6.826  1.3044 -1.3149 -1.2539
 9774SOL    HW230997   8.749   0.206   6.858  0.5684  0.8540 -0.5133
 9775SOL     OW30998   1.379   5.326   3.301 -0.1622 -0.1309  0.0459
 9775SOL    HW130999   1.307   5.388   3.309  1.1502  1.6155 -0.9112
 9775SOL    HW231000   1.340   5.247   3.263 -1.3882  1.1688 -1.5114
 9776SOL     OW31001   9.663   5.562   6.760 -0.4175  0.4934 -0.2958
 9776SOL    HW131002   9.605   5.523   6.694  0.8072 -0.0763 -1.0643
 9776SOL    HW231003   9.661   5.501   6.834 -0.5353  0.3146 -0.4488
 9777SOL     OW31004   3.258   9.012   7.058 -0.2294  0.7592  0.2704
 9777SOL    HW131005   3.239   9.088   7.003 -0.5044 -1.4053 -2.8713
 9777SOL    HW231006   3.236   8.937   7.004  1.9651 -1.6603  2.4554
 9778SOL     OW31007   1.017   1.317   4.356  0.0468 -0.1664 -0.1004
 9778SOL    HW131008   1.065   1.382   4.406  1.6332  0.7097 -2.5908
 9778SOL    HW231009   0.997   1.248   4.419  0.4787  1.5765  2.0542
 9779SOL     OW31010   5.360   5.491   5.298  0.0783 -0.3384 -0.2725
 9779SOL    HW131011   5.306   5.516   5.222  0.5253 -1.7501 -1.0831
 9779SOL    HW231012   5.374   5.397   5.288 -1.2543 -0.9341  2.4904
 9780SOL     OW31013   8.425   5.286   5.481  0.0998  0.2037 -0.0280
 9780SOL    HW131014   8.384   5.360   5.436  0.5325  1.0347  0.9127
 9780SOL    HW231015   8.352   5.233   5.512 -0.2479  0.8293  0.2473
 9781SOL     OW31016   8.851   6.650   7.170 -0.4050 -0.2304  0.0875
 9781SOL    HW131017   8.834   6.715   7.239  1.7277 -1.5922  2.0670
 9781SOL    HW231018   8.923   6.688   7.120  0.2921 -0.6455  0.7413
 9782SOL     OW31019   6.665   4.638   7.444 -0.1644  0.1632  0.3657
 9782SOL    HW131020   6.637   4.716   7.492  0.2161  0.9928 -0.7289
 9782SOL    HW231021   6.586   4.607   7.400  0.2218  1.5487 -1.3972
 9783SOL     OW31022   1.121   5.110   2.058  0.7544 -0.2808  0.1532
 9783SOL    HW131023   1.074   5.162   1.993 -1.5589 -1.2948  0.8986
 9783SOL    HW231024   1.136   5.170   2.131  1.5490  0.3174 -0.4848
 9784SOL     OW31025   2.370   5.568   2.973  0.2342  0.3151  0.0832
 9784SOL    HW131026   2.275   5.583   2.977 -0.1012 -1.1918 -1.1453
 9784SOL    HW231027   2.386   5.502   3.041  0.2400 -0.1200 -0.3388
 9785SOL     OW31028   0.897   7.196   6.493 -0.0459  0.1394 -0.1157
 9785SOL    HW131029   0.982   7.192   6.535 -0.3833 -1.3702  0.4978
 9785SOL    HW231030   0.907   7.261   6.424  1.4334  0.3697  0.2865
 9786SOL     OW31031   7.658   3.327   1.047 -0.4070 -0.0403 -0.6937
 9786SOL    HW131032   7.583   3.334   1.106 -0.5334  1.7220 -1.0079
 9786SOL    HW231033   7.621   3.295   0.965 -0.5497 -0.5960 -0.4219
 9787SOL     OW31034   8.191   9.026   8.854  0.1155 -0.2047 -0.4001
 9787SOL    HW131035   8.273   9.066   8.883  1.6311 -2.3233 -1.4671
 9787SOL    HW231036   8.178   8.952   8.913  0.1371 -1.1308 -1.5184
 9788SOL     OW31037   7.352   4.805   3.752  0.1422 -0.5671 -0.7399
 9788SOL    HW131038   7.297   4.777   3.825 -1.2276  0.5411 -1.3073
 9788SOL    HW231039   7.291   4.832   3.684  1.3760  0.6590 -1.4245
 9789SOL     OW31040   0.409   4.749   5.618 -0.1540  0.2130 -0.2464
 9789SOL    HW131041   0.386   4.658   5.636  1.0481 -0.3760 -1.4622
 9789SOL    HW231042   0.326   4.790   5.594 -0.5870 -0.8104 -0.5824
 9790SOL     OW31043   0.170   4.611   5.930 -0.5631 -0.0092 -0.2211
 9790SOL    HW131044   0.126   4.670   5.869  0.1546  1.6807  0.8211
 9790SOL    HW231045   0.166   4.655   6.014 -0.6897 -1.8461  0.7985
 9791SOL     OW31046   3.810   5.014   7.226 -0.3789 -0.2229  0.3493
 9791SOL    HW131047   3.894   4.989   7.263 -0.3937 -0.8110  0.0082
 9791SOL    HW231048   3.751   5.020   7.301  0.0370  0.4867  0.6185
 9792SOL     OW31049   3.741   6.802   7.364 -0.3101 -0.5727  0.3187
 9792SOL    HW131050   3.782   6.729   7.411 -2.0300 -2.1410 -0.4498
 9792SOL    HW231051   3.668   6.828   7.420 -0.5095 -0.3737 -0.0305
 9793SOL     OW31052   7.740   1.016   2.505  0.2335 -0.3977 -0.2320
 9793SOL    HW131053   7.798   0.998   2.430  0.9277  0.1051  0.1731
 9793SOL    HW231054   7.654   0.987   2.476  0.8006 -1.7654 -0.6111
 9794SOL     OW31055   0.295   3.044   6.755  0.6103 -0.1898  0.1823
 9794SOL    HW131056   0.202   3.068   6.752  0.7262  0.2428 -0.0203
 9794SOL    HW231057   0.324   3.072   6.842  0.8526  0.8322 -0.2134
 9795SOL     OW31058   2.458   3.294   4.877 -0.2351  0.6908 -0.1755
 9795SOL    HW131059   2.395   3.276   4.947  0.1878  0.9648  0.2839
 9795SOL    HW231060   2.527   3.229   4.891 -0.5494  0.1952 -0.8579
 9796SOL     OW31061   8.595   8.614   9.057 -0.6334 -0.1260  0.3095
 9796SOL    HW131062   8.677   8.664   9.055 -1.2345  0.9891  1.8161
 9796SOL    HW231063   8.624   8.522   9.061  0.5020  0.1493 -0.6355
 9797SOL     OW31064   2.238   3.731   7.984 -0.6021 -0.2346 -0.3892
 9797SOL    HW131065   2.244   3.789   8.060 -1.9635  0.4263 -0.7425
 9797SOL    HW231066   2.318   3.749   7.934 -0.5778  0.7001 -0.0383
 9798SOL     OW31067   5.977   1.963   7.017 -0.5701 -0.0869 -0.1855
 9798SOL    HW131068   6.046   2.009   7.065 -0.1138  0.5016 -1.3745
 9798SOL    HW231069   5.928   1.917   7.085 -0.4308  1.3490  0.9573
 9799SOL     OW31070   2.492   9.071   1.674  0.4605  0.5682 -0.2092
 9799SOL    HW131071   2.441   9.024   1.739  0.4940 -0.6314 -1.0170
 9799SOL    HW231072   2.509   9.157   1.714  1.3447 -0.4682  1.7835
 9800SOL     OW31073   8.759   9.034   1.744 -0.4219  0.2686 -0.1740
 9800SOL    HW131074   8.805   9.052   1.826 -0.7756  1.5916 -0.2301
 9800SOL    HW231075   8.826   8.999   1.686  0.5948  2.2943 -0.3071
 9801SOL     OW31076   7.316   6.663   2.814  0.1291  0.3204 -0.4578
 9801SOL    HW131077   7.321   6.724   2.888  0.5323 -0.6899  0.3707
 9801SOL    HW231078   7.254   6.704   2.754  0.3154  1.5019  0.1229
 9802SOL     OW31079   9.186   7.424   4.218 -0.6708 -0.6225 -1.0799
 9802SOL    HW131080   9.117   7.490   4.226 -1.3358 -1.2776 -1.3778
 9802SOL    HW231081   9.156   7.351   4.272  1.0306  0.0758  0.9880
 9803SOL     OW31082   1.308   6.523   1.734  0.2277 -0.2785  0.3161
 9803SOL    HW131083   1.327   6.615   1.713  0.7227 -0.4198  0.1224
 9803SOL    HW231084   1.280   6.485   1.651 -0.8358 -0.0959  0.5842
 9804SOL     OW31085   0.989   8.007   9.674  0.1439  0.4589 -0.0567
 9804SOL    HW131086   0.974   8.006   9.768  2.0622 -0.7888  0.3030
 9804SOL    HW231087   0.910   8.045   9.637 -1.6363 -1.1039  1.8907
 9805SOL     OW31088   8.868   1.327   4.694 -0.7617 -0.0063 -0.0166
 9805SOL    HW131089   8.775   1.348   4.682 -0.8298  0.0337  0.5333
 9805SOL    HW231090   8.900   1.306   4.607 -1.2136  0.2967 -0.2568
 9806SOL     OW31091   9.367   6.245   6.666  0.4891  1.0781  0.0313
 9806SOL    HW131092   9.377   6.151   6.679  0.6314  0.8390 -1.6682
 9806SOL    HW231093   9.456   6.278   6.656  0.4809  1.5079  1.2238
 9807SOL     OW31094   1.442   4.175   1.141 -0.1158 -0.0021 -0.1348
 9807SOL    HW131095   1.391   4.159   1.220  0.7297 -0.6715  0.2932
 9807SOL    HW231096   1.405   4.116   1.075 -1.7379  1.5440 -0.6826
 9808SOL     OW31097   7.454   2.686   8.446  0.0073 -0.1889 -0.1506
 9808SOL    HW131098   7.460   2.738   8.526 -1.6455 -0.7543  0.3687
 9808SOL    HW231099   7.545   2.669   8.422  0.6043  2.4452 -0.0395
 9809SOL     OW31100   1.237   6.213   9.028  0.6124  0.3975  0.3172
 9809SOL    HW131101   1.252   6.119   9.027 -1.7153 -0.0219 -0.5760
 9809SOL    HW231102   1.160   6.225   9.084  0.3303  1.6734 -0.2980
 9810SOL     OW31103   1.460   0.908   5.497  0.0001  0.7288  0.2337
 9810SOL    HW131104   1.377   0.953   5.480  0.5002  0.8665 -2.2455
 9810SOL    HW231105   1.526   0.977   5.492  0.3998  0.3970  0.8063
 9811SOL     OW31106   1.383   6.549   5.654 -0.4882 -0.2639  0.6431
 9811SOL    HW131107   1.373   6.627   5.707 -1.7360  0.2640 -0.3153
 9811SOL    HW231108   1.477   6.529   5.658 -0.2142  1.0261  1.2385
 9812SOL     OW31109   5.624   4.861   2.224  0.5632  0.2191  0.0427
 9812SOL    HW131110   5.680   4.920   2.274  0.8217  0.1705 -0.1818
 9812SOL    HW231111   5.686   4.806   2.176  0.3432  1.2693 -1.5212
 9813SOL     OW31112   9.415   8.771   0.857  0.2861  0.4328 -0.3576
 9813SOL    HW131113   9.452   8.791   0.944 -1.8617  2.8311  0.1200
 9813SOL    HW231114   9.391   8.678   0.863  0.6002  0.4143  1.4534
 9814SOL     OW31115   4.585   7.140   0.234 -0.0621  0.4294  0.1667
 9814SOL    HW131116   4.653   7.077   0.212  0.4751  0.9712  0.2551
 9814SOL    HW231117   4.577   7.137   0.329 -0.0730  0.4585  0.1670
 9815SOL     OW31118   8.806   6.451   6.436 -0.1756 -0.4841 -0.3422
 9815SOL    HW131119   8.712   6.436   6.437 -0.3675  0.4966 -1.4911
 9815SOL    HW231120   8.831   6.450   6.529 -0.9563 -2.6639 -0.1001
 9816SOL     OW31121   6.040   8.734   7.667 -0.2913 -0.0865  0.1434
 9816SOL    HW131122   6.100   8.747   7.593  1.0131 -0.9761  1.0106
 9816SOL    HW231123   5.954   8.720   7.626  0.0970  1.0236 -1.1360
 9817SOL     OW31124   4.493   4.806   2.558  0.5616  0.0816  0.0197
 9817SOL    HW131125   4.456   4.895   2.556  0.0747 -0.1292 -0.4486
 9817SOL    HW231126   4.465   4.766   2.476 -0.0941 -0.8568  0.6907
 9818SOL     OW31127   8.624   3.496   5.100 -0.5129 -0.2390 -0.5872
 9818SOL    HW131128   8.639   3.467   5.010  0.2536 -0.9429 -0.2548
 9818SOL    HW231129   8.628   3.591   5.096 -0.1835 -0.2718 -1.2541
 9819SOL     OW31130   7.640   7.328   1.671  0.2191 -0.4796  0.5577
 9819SOL    HW131131   7.733   7.345   1.658  0.0294  0.5605  0.5335
 9819SOL    HW231132   7.604   7.319   1.583  0.0063  0.7368  0.5112
 9820SOL     OW31133   1.621   2.858   2.192 -0.0396 -0.3246  0.4126
 9820SOL    HW131134   1.570   2.937   2.211 -0.2437  0.0897 -1.6001
 9820SOL    HW231135   1.556   2.788   2.188 -0.0928 -0.2782  0.4592
 9821SOL     OW31136   2.168   0.949   6.090 -0.7183 -0.2571 -0.2576
 9821SOL    HW131137   2.262   0.932   6.077 -1.0073 -3.2628  0.7624
 9821SOL    HW231138   2.151   0.918   6.179 -2.9625 -1.3363 -0.9914
 9822SOL     OW31139   1.997   6.915   1.220 -0.2051 -0.3702 -0.2138
 9822SOL    HW131140   1.928   6.893   1.283 -0.9991 -0.1047 -0.9623
 9822SOL    HW231141   2.019   6.831   1.180 -0.2686 -0.4231 -0.1394
 9823SOL     OW31142   3.298   8.129   3.425 -0.2789  0.2067  0.0399
 9823SOL    HW131143   3.202   8.131   3.428 -0.2593  0.4976  0.5297
 9823SOL    HW231144   3.324   8.220   3.413 -0.0453  0.2201  0.6016
 9824SOL     OW31145   8.625   0.952   3.842  0.0629  0.3481 -0.4435
 9824SOL    HW131146   8.559   0.982   3.904  0.0591 -1.4028  0.4651
 9824SOL    HW231147   8.708   0.959   3.890  0.0270 -1.2711 -0.0927
 9825SOL     OW31148   1.609   1.532   5.496 -0.9542 -0.1457  0.2252
 9825SOL    HW131149   1.601   1.485   5.413 -1.9434  1.9745 -0.9415
 9825SOL    HW231150   1.695   1.573   5.492 -1.5412  1.0545 -0.3785
 9826SOL     OW31151   9.380   4.344   1.274 -0.1533  0.0547 -0.6553
 9826SOL    HW131152   9.287   4.366   1.261 -0.5128  0.3034  1.8659
 9826SOL    HW231153   9.422   4.429   1.290  0.0035 -0.2658  0.7495
 9827SOL     OW31154   8.036   3.587   0.321  0.1102 -0.2258  0.5337
 9827SOL    HW131155   8.000   3.672   0.293 -2.6346 -0.5485  2.6899
 9827SOL    HW231156   8.026   3.587   0.416  2.8054 -1.8605  0.9335
 9828SOL     OW31157   7.282   3.585   0.524 -0.4360  0.0155 -0.2610
 9828SOL    HW131158   7.285   3.582   0.429 -0.3326  0.8950 -0.2954
 9828SOL    HW231159   7.372   3.601   0.551 -0.3608 -0.8185  0.0218
 9829SOL     OW31160   5.710   2.428   6.595  0.1153 -0.3070  0.4276
 9829SOL    HW131161   5.615   2.420   6.606 -0.0982  2.7618  1.8243
 9829SOL    HW231162   5.724   2.430   6.500 -1.0979 -1.3874  0.2002
 9830SOL     OW31163   4.918   2.367   3.636  0.1196 -0.2592  0.3512
 9830SOL    HW131164   4.850   2.377   3.569  1.3216 -0.3007 -0.9391
 9830SOL    HW231165   4.882   2.409   3.714 -1.8253 -1.2672  0.0489
 9831SOL     OW31166   2.195   6.874   3.056 -0.5078 -0.4997  0.2717
 9831SOL    HW131167   2.144   6.839   3.129  1.4090 -2.3578  0.7985
 9831SOL    HW231168   2.177   6.815   2.983 -0.9000  0.2175 -0.2278
 9832SOL     OW31169   4.336   3.143   8.940  0.1475  0.2541 -0.0597
 9832SOL    HW131170   4.417   3.109   8.979  0.2417  1.5770  0.9527
 9832SOL    HW231171   4.276   3.153   9.013 -1.7211 -2.5751 -1.0208
 9833SOL     OW31172   4.804   5.722   2.634  0.2635 -0.0517 -0.3245
 9833SOL    HW131173   4.834   5.794   2.578  0.6885 -0.5051 -0.6850
 9833SOL    HW231174   4.709   5.732   2.637  0.3693  1.0011  0.2842
 9834SOL     OW31175   8.730   2.859   2.491 -0.1077 -0.0341  0.0675
 9834SOL    HW131176   8.694   2.896   2.571 -0.6707  0.8108 -0.5585
 9834SOL    HW231177   8.809   2.911   2.475  0.6562 -0.9742  0.6930
 9835SOL     OW31178   2.140   5.875   0.295  0.6343 -0.6740 -0.2189
 9835SOL    HW131179   2.082   5.887   0.370  0.1779  1.5851 -0.8596
 9835SOL    HW231180   2.115   5.790   0.259 -1.6666 -0.1763  0.0575
 9836SOL     OW31181   2.564   3.834   4.005 -0.2495 -0.1181  0.4848
 9836SOL    HW131182   2.525   3.839   4.093 -1.9633 -0.2697 -0.2393
 9836SOL    HW231183   2.615   3.753   4.006  0.2601  0.1902  1.5213
 9837SOL     OW31184   8.792   5.079   3.429  0.7251  0.0285  0.0660
 9837SOL    HW131185   8.772   5.164   3.392  1.2139  0.1345  0.0355
 9837SOL    HW231186   8.814   5.024   3.354 -0.0129 -0.2474  0.0460
 9838SOL     OW31187   0.264   0.227   5.963  0.1730  0.3576 -0.4018
 9838SOL    HW131188   0.296   0.271   5.884 -0.8039  0.4251 -0.7736
 9838SOL    HW231189   0.340   0.178   5.995  0.9704  1.4114 -0.6111
 9839SOL     OW31190   0.363   5.278   7.582 -0.0434  0.4338 -0.0861
 9839SOL    HW131191   0.392   5.255   7.671  2.2422  1.3678 -0.5214
 9839SOL    HW231192   0.442   5.269   7.528 -0.6476  2.6278 -1.4774
 9840SOL     OW31193   9.227   7.602   2.627  0.3305  0.1730  0.2962
 9840SOL    HW131194   9.192   7.596   2.716  0.4446 -0.1441  0.3223
 9840SOL    HW231195   9.150   7.614   2.572  0.3329  1.4015  0.5237
 9841SOL     OW31196   6.714   4.157   2.494  0.0948  0.0250  0.2103
 9841SOL    HW131197   6.691   4.237   2.541 -0.3813  0.2341 -0.3579
 9841SOL    HW231198   6.770   4.109   2.554 -0.1027  0.5112  0.7945
 9842SOL     OW31199   3.305   8.174   9.304  0.0937 -0.1857  0.1789
 9842SOL    HW131200   3.396   8.204   9.305 -0.2719  1.0041  2.0332
 9842SOL    HW231201   3.305   8.099   9.364  0.1028 -1.1851 -1.0085
 9843SOL     OW31202   3.072   1.262   3.427  0.9994 -0.5423  0.3334
 9843SOL    HW131203   3.167   1.250   3.432  1.2309  0.9441  0.0425
 9843SOL    HW231204   3.061   1.343   3.376 -0.5197 -2.7948 -3.2986
 9844SOL     OW31205   8.574   6.598   7.206 -0.4387  0.1658  0.2433
 9844SOL    HW131206   8.553   6.617   7.114 -0.7958 -1.8184 -0.1271
 9844SOL    HW231207   8.667   6.615   7.214 -0.5192  0.9176 -0.3323
 9845SOL     OW31208   7.430   8.713   5.073 -0.0323 -0.0909  0.5308
 9845SOL    HW131209   7.407   8.804   5.055  3.4962  1.3390  2.2375
 9845SOL    HW231210   7.362   8.684   5.134 -2.8910  0.2420 -2.1891
 9846SOL     OW31211   5.573   5.656   2.956 -0.5271 -0.3012  0.1797
 9846SOL    HW131212   5.548   5.586   2.897  0.3925 -1.2397  0.8501
 9846SOL    HW231213   5.651   5.695   2.916 -0.4847 -0.2821  0.2798
 9847SOL     OW31214   3.457   7.057   4.058 -0.0271  0.2989 -0.3204
 9847SOL    HW131215   3.488   6.969   4.077  3.6080  1.6311  0.6060
 9847SOL    HW231216   3.408   7.083   4.136 -1.5809 -0.9884 -0.8112
 9848SOL     OW31217   6.070   2.066   9.285  0.0648  0.3360 -0.8580
 9848SOL    HW131218   6.109   2.125   9.220  0.9132 -0.8977 -1.5227
 9848SOL    HW231219   6.137   2.000   9.300  0.4428  1.2705  2.3281
 9849SOL     OW31220   0.817   9.166   2.683 -0.1223 -0.3950 -0.2789
 9849SOL    HW131221   0.783   9.092   2.634  0.5439 -0.3702 -0.7840
 9849SOL    HW231222   0.899   9.189   2.640 -0.2797  0.5925 -0.0937
 9850SOL     OW31223   6.811   0.378   4.146  0.3471  0.4465  0.6237
 9850SOL    HW131224   6.856   0.371   4.230  0.3846 -0.6767  0.5145
 9850SOL    HW231225   6.719   0.391   4.168  0.2895 -0.3217  0.8327
 9851SOL     OW31226   4.232   4.733   9.043 -0.4437 -0.1279  1.0214
 9851SOL    HW131227   4.242   4.802   8.978  2.2544 -0.4929  0.9460
 9851SOL    HW231228   4.188   4.776   9.117  0.3236  1.4415  0.6044
 9852SOL     OW31229   1.976   5.760   1.488  0.2291  0.4664  0.5191
 9852SOL    HW131230   1.996   5.728   1.576  0.7710  1.7514  0.8914
 9852SOL    HW231231   1.880   5.764   1.486  0.0339 -2.4349 -0.0589
 9853SOL     OW31232   9.045   5.387   4.069  0.0525 -0.2241  0.3705
 9853SOL    HW131233   9.055   5.380   3.974 -1.5353 -0.5449  0.2072
 9853SOL    HW231234   9.133   5.407   4.101  0.1109  2.9064 -1.4098
 9854SOL     OW31235   6.382   5.137   9.488  0.3683 -0.8299 -0.6805
 9854SOL    HW131236   6.456   5.098   9.535  0.4349  0.5720  0.4581
 9854SOL    HW231237   6.349   5.067   9.433  0.1044 -2.7105  1.6798
 9855SOL     OW31238   0.517   2.955   4.153 -0.4573 -0.2162  0.1671
 9855SOL    HW131239   0.523   2.900   4.075 -1.1716  0.2497 -0.2233
 9855SOL    HW231240   0.462   2.904   4.214 -0.9385 -0.0376 -0.1120
 9856SOL     OW31241   6.637   8.995   6.930 -0.6787 -0.0629 -0.5126
 9856SOL    HW131242   6.724   9.002   6.890 -1.3077 -0.1133 -1.9535
 9856SOL    HW231243   6.622   8.902   6.941 -0.7545 -0.0812 -0.7612
 9857SOL     OW31244   3.535   8.001   2.863  0.3719  0.4318  0.3277
 9857SOL    HW131245   3.568   7.927   2.813 -1.1247  0.4677 -0.8083
 9857SOL    HW231246   3.481   8.050   2.800 -3.0474 -0.4596  2.2792
 9858SOL     OW31247   5.392   1.415   5.106 -0.0659 -0.3991 -0.1234
 9858SOL    HW131248   5.433   1.383   5.025  1.6149  0.1832  0.4599
 9858SOL    HW231249   5.415   1.508   5.109  0.9361 -0.6666  1.6141
 9859SOL     OW31250   5.922   0.774   3.694 -0.3869 -0.3549  0.1368
 9859SOL    HW131251   5.845   0.787   3.639  2.0724  1.8023 -3.2321
 9859SOL    HW231252   5.949   0.863   3.719  1.9933 -0.8256 -0.4639
 9860SOL     OW31253   6.538   0.240   3.175 -0.3992 -0.1910 -0.2988
 9860SOL    HW131254   6.500   0.203   3.096  0.4737  0.2053 -0.9127
 9860SOL    HW231255   6.481   0.207   3.246 -1.4443 -0.1932 -1.1073
 9861SOL     OW31256   2.580   6.824   4.920 -0.8526  0.2326 -0.7887
 9861SOL    HW131257   2.670   6.809   4.891 -1.0212 -0.0133 -1.1877
 9861SOL    HW231258   2.586   6.830   5.016 -0.5009 -0.4190 -0.7668
 9862SOL     OW31259   1.928   8.554   6.758 -0.6881  0.4911 -0.4934
 9862SOL    HW131260   1.925   8.570   6.664  1.8013 -0.1781 -0.7691
 9862SOL    HW231261   1.872   8.477   6.771 -0.4006  0.0837 -1.5642
 9863SOL     OW31262   8.540   2.698   5.102 -0.2701 -0.3134  0.3189
 9863SOL    HW131263   8.602   2.731   5.037 -0.1859 -3.2302 -1.2419
 9863SOL    HW231264   8.513   2.613   5.068 -3.5427 -0.1045  2.0087
 9864SOL     OW31265   7.988   4.354   3.301 -0.1455  0.2834  0.4729
 9864SOL    HW131266   8.030   4.297   3.236  0.1498  0.4572  0.5119
 9864SOL    HW231267   7.948   4.294   3.363  0.4078  0.1168  0.6709
 9865SOL     OW31268   3.424   0.488   0.483 -0.2947  0.1681 -0.0581
 9865SOL    HW131269   3.509   0.470   0.443 -0.4468  1.0831 -0.8135
 9865SOL    HW231270   3.389   0.402   0.504  1.0091 -0.2068  0.6749
 9866SOL     OW31271   4.566   2.392   6.277 -0.1465 -0.5309  0.5616
 9866SOL    HW131272   4.583   2.325   6.211 -1.0063 -1.1824  0.9718
 9866SOL    HW231273   4.605   2.358   6.357  0.1153 -0.1636  0.5924
 9867SOL     OW31274   1.286   5.125   5.007  0.1341 -0.3464 -0.5411
 9867SOL    HW131275   1.321   5.205   4.968  0.1296  0.0983  0.3218
 9867SOL    HW231276   1.213   5.156   5.061  1.6904 -0.5475  1.8608
 9868SOL     OW31277   7.621   4.567   0.404  0.8027  0.0404 -0.0363
 9868SOL    HW131278   7.556   4.507   0.441 -0.7599  1.7143  0.0587
 9868SOL    HW231279   7.699   4.513   0.391 -1.2805 -2.7182 -2.3896
 9869SOL     OW31280   7.651   6.554   6.949  0.1022  0.3447 -0.1441
 9869SOL    HW131281   7.586   6.603   6.999 -0.6814 -1.3748  0.5797
 9869SOL    HW231282   7.735   6.580   6.987 -0.3508  0.4710  0.8005
 9870SOL     OW31283   2.888   5.081   4.092  0.8859  0.1669 -0.1556
 9870SOL    HW131284   2.955   5.143   4.061  1.3196 -0.4151 -0.4102
 9870SOL    HW231285   2.806   5.129   4.084  1.3430  1.1394  0.8348
 9871SOL     OW31286   2.952   2.667   8.263  0.1285  0.9385  0.2612
 9871SOL    HW131287   2.864   2.703   8.277  0.7291  2.6034  0.0487
 9871SOL    HW231288   2.972   2.689   8.172  0.1789 -0.8341 -0.1910
 9872SOL     OW31289   2.760   3.633   6.637  0.1241 -0.2900  0.4319
 9872SOL    HW131290   2.845   3.663   6.669  0.8929 -3.0215  1.1378
 9872SOL    HW231291   2.779   3.556   6.585 -1.8229 -0.0858 -0.6792
 9873SOL     OW31292   2.302   4.223   0.691  0.1086 -0.1221  0.0927
 9873SOL    HW131293   2.373   4.168   0.657 -0.8398 -1.6462  0.4540
 9873SOL    HW231294   2.278   4.280   0.618  0.2086 -1.1621 -0.7802
 9874SOL     OW31295   5.294   0.673   6.860 -0.2228  0.0809 -0.4835
 9874SOL    HW131296   5.369   0.620   6.835  0.3115  1.0255 -0.9566
 9874SOL    HW231297   5.271   0.721   6.780  1.6437  3.3355  0.7495
 9875SOL     OW31298   0.313   5.413   3.720  0.0597 -0.4023  0.1651
 9875SOL    HW131299   0.378   5.479   3.695 -0.9173  0.4540 -0.1904
 9875SOL    HW231300   0.245   5.420   3.653  0.4413 -2.5390 -0.5001
 9876SOL     OW31301   6.388   2.882   7.328 -0.3567 -0.4365 -0.0739
 9876SOL    HW131302   6.366   2.873   7.236  0.2015 -0.6816 -0.1840
 9876SOL    HW231303   6.332   2.953   7.359 -0.3457 -0.1629 -0.6672
 9877SOL     OW31304   7.111   4.183   7.888 -0.2000  0.1177 -0.1999
 9877SOL    HW131305   7.118   4.103   7.837 -1.9251 -1.1607  1.4202
 9877SOL    HW231306   7.022   4.215   7.871 -0.1554  0.6860  0.5674
 9878SOL     OW31307   1.689   2.903   6.366 -0.3958  0.2540 -0.6210
 9878SOL    HW131308   1.599   2.874   6.357 -0.4070  0.4995 -1.4176
 9878SOL    HW231309   1.685   2.998   6.362 -0.1219  0.2725 -0.5005
 9879SOL     OW31310   3.892   7.628   7.590 -0.3183 -0.0836  0.5374
 9879SOL    HW131311   3.964   7.568   7.568  0.1665  0.9378 -0.8199
 9879SOL    HW231312   3.927   7.681   7.662  1.0985  1.6521 -1.2952
 9880SOL     OW31313   1.838   8.616   4.501 -0.5748  0.3764  0.0959
 9880SOL    HW131314   1.762   8.657   4.460 -1.0685 -1.5875 -1.1376
 9880SOL    HW231315   1.840   8.651   4.590 -3.0932  0.3168  0.2489
 9881SOL     OW31316   8.387   8.160   4.179  0.0646 -0.0107 -0.6244
 9881SOL    HW131317   8.387   8.248   4.217  0.6957 -0.4627  0.4691
 9881SOL    HW231318   8.459   8.115   4.223 -0.2168 -1.0671 -1.2116
 9882SOL     OW31319   0.967   1.630   6.380 -0.5007 -0.4379  0.2835
 9882SOL    HW131320   0.957   1.708   6.324  2.3173 -0.1503  0.0542
 9882SOL    HW231321   0.883   1.584   6.372 -1.2637  1.1558 -1.7704
 9883SOL     OW31322   5.379   7.918   6.417 -0.0378  0.0977 -0.2644
 9883SOL    HW131323   5.394   7.830   6.381 -0.3028  0.0427 -0.2449
 9883SOL    HW231324   5.385   7.906   6.512  2.4457  0.5656 -0.2853
 9884SOL     OW31325   7.083   5.091   0.679 -0.1562  0.0069  0.2827
 9884SOL    HW131326   7.138   5.101   0.602 -2.9063  2.7917 -1.5755
 9884SOL    HW231327   7.025   5.018   0.657 -0.1968  0.0722  0.1679
 9885SOL     OW31328   1.564   8.693   6.581  0.3083  0.6368  0.0539
 9885SOL    HW131329   1.513   8.746   6.520 -0.1724  0.1208 -0.0060
 9885SOL    HW231330   1.627   8.646   6.527  0.7454  1.1614  0.1093
 9886SOL     OW31331   5.514   4.107   7.501 -0.1104 -0.3879  0.2501
 9886SOL    HW131332   5.532   4.020   7.536 -0.2932  0.0515  1.4969
 9886SOL    HW231333   5.421   4.121   7.517  0.0961  0.3716  0.8478
 9887SOL     OW31334   2.465   7.488   6.429  0.4848 -0.3173  0.6615
 9887SOL    HW131335   2.416   7.463   6.508 -1.0923 -0.5205 -0.3426
 9887SOL    HW231336   2.461   7.410   6.374  1.4337 -0.1151  0.2955
 9888SOL     OW31337   9.623   4.875   6.779 -0.4335  0.5596  0.0708
 9888SOL    HW131338   9.573   4.873   6.860 -3.3332 -0.0088 -1.5692
 9888SOL    HW231339   9.685   4.803   6.786 -0.2156  0.8986  1.9837
 9889SOL     OW31340   1.153   7.119   1.438 -0.3397  0.5723 -0.5607
 9889SOL    HW131341   1.081   7.097   1.497  0.6777 -0.1637  0.4688
 9889SOL    HW231342   1.157   7.046   1.376  1.1207 -0.7646  0.9971
 9890SOL     OW31343   7.763   8.964   9.098 -0.1313  0.2483  0.5062
 9890SOL    HW131344   7.725   9.051   9.083 -0.3900  0.2037  0.8811
 9890SOL    HW231345   7.696   8.917   9.147  0.5631  0.3016  1.5366
 9891SOL     OW31346   3.678   7.038   5.011 -0.3102 -0.0583  0.2546
 9891SOL    HW131347   3.695   6.944   5.019 -1.0831 -0.3050 -0.8049
 9891SOL    HW231348   3.597   7.043   4.960  0.0502  1.2027 -0.2115
 9892SOL     OW31349   2.839   6.447   2.798  0.0661  0.2957 -0.1853
 9892SOL    HW131350   2.831   6.516   2.864 -1.3222 -0.0787  0.0852
 9892SOL    HW231351   2.932   6.425   2.797  0.7535  2.9514 -1.1352
 9893SOL     OW31352   8.824   9.550   6.715 -0.1073 -0.0507  0.0215
 9893SOL    HW131353   8.819   9.454   6.721  3.2695 -0.5528 -2.2728
 9893SOL    HW231354   8.760   9.573   6.648 -0.0677 -0.8736 -0.3092
 9894SOL     OW31355   4.712   8.735   5.278 -0.3171  0.5341 -0.1869
 9894SOL    HW131356   4.702   8.675   5.352 -1.5256 -0.1285 -0.8589
 9894SOL    HW231357   4.678   8.818   5.311 -1.2767  0.1306 -0.1129
 9895SOL     OW31358   5.222   2.416   4.275 -0.2145  0.1021  0.3698
 9895SOL    HW131359   5.272   2.402   4.195  2.0712  0.0135  1.7393
 9895SOL    HW231360   5.160   2.344   4.278  1.8858 -1.7981  0.2683
 9896SOL     OW31361   5.079   3.569   3.033  0.3132 -0.0831 -0.4667
 9896SOL    HW131362   5.173   3.562   3.046  0.4772  1.4014 -0.6865
 9896SOL    HW231363   5.042   3.564   3.121  0.7018  0.6209 -0.2606
 9897SOL     OW31364   3.875   4.476   3.793 -0.5075  0.1811  0.4561
 9897SOL    HW131365   3.935   4.551   3.791  0.5078 -0.6101  0.6267
 9897SOL    HW231366   3.844   4.472   3.883  0.1292 -0.1275  0.6676
 9898SOL     OW31367   0.827   8.118   6.236  0.0758  0.2637  0.1312
 9898SOL    HW131368   0.846   8.206   6.268  1.0425  0.0334  0.2285
 9898SOL    HW231369   0.878   8.111   6.155  1.4586 -0.8116  1.0388
 9899SOL     OW31370   3.569   8.640   9.427  0.3800 -0.6460 -0.1987
 9899SOL    HW131371   3.499   8.673   9.371  0.2989  0.2708  0.4235
 9899SOL    HW231372   3.610   8.571   9.375 -0.1734 -0.3319 -1.0793
 9900SOL     OW31373   3.136   2.508   2.144  0.5516  0.0952  0.1920
 9900SOL    HW131374   3.100   2.434   2.193 -1.7172 -1.2933 -3.1829
 9900SOL    HW231375   3.075   2.580   2.162 -0.6688 -0.6003 -0.9881
 9901SOL     OW31376   3.626   9.416   2.136 -0.3287 -0.6410  0.3948
 9901SOL    HW131377   3.720   9.411   2.115 -0.7165  1.4673 -2.3945
 9901SOL    HW231378   3.621   9.477   2.210  0.4785 -0.8773  0.6597
 9902SOL     OW31379   0.994   6.344   3.764  0.3340 -0.2626 -0.5290
 9902SOL    HW131380   0.984   6.359   3.858  0.3728 -1.0235 -0.4041
 9902SOL    HW231381   0.982   6.431   3.725 -2.3309 -0.3097 -0.0293
 9903SOL     OW31382   9.154   9.459   2.087 -0.0095  0.1554  0.0029
 9903SOL    HW131383   9.145   9.421   1.999  0.1363  1.3088 -0.5293
 9903SOL    HW231384   9.083   9.523   2.092  1.2833  1.6412 -0.1092
 9904SOL     OW31385   7.420   8.866   3.203  0.0378  0.1332 -0.3823
 9904SOL    HW131386   7.466   8.869   3.120 -0.2080  0.5749 -0.5063
 9904SOL    HW231387   7.382   8.954   3.213  1.8453  0.8092  1.2152
 9905SOL     OW31388   0.612   9.386   3.469 -0.3787 -0.7425 -0.5919
 9905SOL    HW131389   0.565   9.357   3.547 -0.1535 -0.1821 -0.2405
 9905SOL    HW231390   0.574   9.472   3.449  0.2826 -0.4147 -0.4752
 9906SOL     OW31391   6.752   6.402   0.800  0.3137 -0.4941  0.4083
 9906SOL    HW131392   6.842   6.420   0.773 -0.0323  0.0005 -0.4685
 9906SOL    HW231393   6.742   6.451   0.882  0.1871  1.3180 -0.6282
 9907SOL     OW31394   5.230   8.150   4.938 -0.7126  0.3824  0.9839
 9907SOL    HW131395   5.263   8.076   4.990  0.6622  0.2217 -0.0554
 9907SOL    HW231396   5.148   8.119   4.901  0.1215 -0.8871  0.0929
 9908SOL     OW31397   8.534   3.879   7.879 -0.1492 -0.0036 -0.1980
 9908SOL    HW131398   8.510   3.961   7.924  0.9856  0.6274 -0.7159
 9908SOL    HW231399   8.538   3.814   7.949  0.0679  0.6280  0.3884
 9909SOL     OW31400   0.217   4.844   6.648  0.1966  0.1016 -0.2859
 9909SOL    HW131401   0.164   4.923   6.647 -2.3112 -1.4577 -2.2468
 9909SOL    HW231402   0.190   4.796   6.569  2.0708 -2.4077  0.4810
 9910SOL     OW31403   3.550   8.925   1.577  0.2740  0.3446 -0.0390
 9910SOL    HW131404   3.530   8.941   1.485 -0.5887  0.6657  0.1999
 9910SOL    HW231405   3.605   8.999   1.603  1.5293 -0.3476 -0.5915
 9911SOL     OW31406   7.458   1.937   6.772 -0.5371  0.1408  0.4868
 9911SOL    HW131407   7.363   1.949   6.781 -0.1221  3.1025  2.3083
 9911SOL    HW231408   7.479   1.977   6.687 -0.8543 -0.1787  0.2543
 9912SOL     OW31409   8.790   0.164   5.271  0.2080  0.4806  0.0978
 9912SOL    HW131410   8.820   0.161   5.361  1.0361  0.0685 -0.1827
 9912SOL    HW231411   8.774   0.073   5.247 -0.9728  0.6587  0.1291
 9913SOL     OW31412   8.311   8.645   7.001  0.1791  0.5508  0.2401
 9913SOL    HW131413   8.352   8.682   7.078  1.8503  1.2030 -0.9031
 9913SOL    HW231414   8.295   8.720   6.944  1.9858 -0.2181 -1.3778
 9914SOL     OW31415   6.887   7.883   3.581 -0.0742  0.2934  0.3018
 9914SOL    HW131416   6.924   7.865   3.494 -2.2681 -0.6395 -0.5137
 9914SOL    HW231417   6.887   7.978   3.588 -2.4223  0.5953 -2.0176
 9915SOL     OW31418   4.634   6.593   2.189  0.2314 -0.5708 -0.2126
 9915SOL    HW131419   4.601   6.646   2.116  0.6947  1.3891  0.9274
 9915SOL    HW231420   4.729   6.589   2.176  0.4544  0.7292  0.8250
 9916SOL     OW31421   5.948   7.712   1.557 -0.1735  0.0967  0.6121
 9916SOL    HW131422   5.937   7.756   1.641 -0.7519  0.1205  0.5294
 9916SOL    HW231423   5.998   7.775   1.504 -0.0637  0.2051  0.8435
 9917SOL     OW31424   1.561   9.065   3.288 -0.4693 -0.0547  0.3371
 9917SOL    HW131425   1.590   9.156   3.281 -0.9569  0.2217  1.6778
 9917SOL    HW231426   1.477   9.063   3.241 -0.2116  0.0585 -0.1345
 9918SOL     OW31427   0.956   6.583   9.365  0.1983  0.2350 -0.0149
 9918SOL    HW131428   1.036   6.579   9.313 -0.1478  0.6238 -0.5869
 9918SOL    HW231429   0.886   6.560   9.304  0.0223 -1.7508  0.8750
 9919SOL     OW31430   6.353   6.498   7.815 -0.1181  0.1205  0.0686
 9919SOL    HW131431   6.342   6.518   7.722 -0.5067  0.5791  0.2139
 9919SOL    HW231432   6.446   6.476   7.824  1.0105  4.1384  0.3050
 9920SOL     OW31433   7.518   9.586   8.594 -0.0876  0.0932 -0.2255
 9920SOL    HW131434   7.491   9.549   8.679  1.3062 -0.4157  0.0282
 9920SOL    HW231435   7.436   9.609   8.551 -1.0345 -2.5288 -0.0354
 9921SOL     OW31436   0.863   7.910   4.791 -0.0786  0.0789  0.5718
 9921SOL    HW131437   0.899   7.874   4.710  1.0906 -0.3362  1.2464
 9921SOL    HW231438   0.940   7.939   4.840 -0.8723  1.8417  0.8371
 9922SOL     OW31439   6.313   5.541   7.356  0.0372  0.0747  0.0078
 9922SOL    HW131440   6.302   5.607   7.424 -0.9771 -0.3591  0.2786
 9922SOL    HW231441   6.227   5.532   7.316  0.5365  0.0884 -1.1392
 9923SOL     OW31442   0.302   7.666   6.354 -0.5755  0.2934  0.1279
 9923SOL    HW131443   0.313   7.730   6.283 -0.8052  0.5076  0.2817
 9923SOL    HW231444   0.335   7.711   6.432  0.4905 -0.2629  0.0074
 9924SOL     OW31445   1.107   7.086   7.495 -0.1732  0.5591 -0.3097
 9924SOL    HW131446   1.039   7.129   7.443  0.5433 -0.8905 -2.6105
 9924SOL    HW231447   1.190   7.119   7.460  0.3393 -0.5760 -0.2452
 9925SOL     OW31448   6.350   4.116   4.018  0.0696 -0.1811  0.4128
 9925SOL    HW131449   6.313   4.202   4.002  0.4011 -0.1724 -0.3199
 9925SOL    HW231450   6.286   4.054   3.983  0.3308 -0.1971 -0.0335
 9926SOL     OW31451   6.871   8.271   5.625 -0.3058 -0.7429  0.4248
 9926SOL    HW131452   6.878   8.218   5.546 -0.5331 -0.5845  0.3009
 9926SOL    HW231453   6.941   8.237   5.682  1.5326  0.7742 -0.7775
 9927SOL     OW31454   3.515   0.615   3.318 -0.9230 -0.3725 -0.1950
 9927SOL    HW131455   3.539   0.704   3.345 -2.8506  0.2988 -0.5169
 9927SOL    HW231456   3.507   0.567   3.400 -2.6925  0.5570  0.2269
 9928SOL     OW31457   5.486   4.692   5.627 -0.0449 -0.2062  0.1517
 9928SOL    HW131458   5.425   4.761   5.602  0.9216  0.3887 -0.6405
 9928SOL    HW231459   5.557   4.738   5.672  0.9467 -0.5679 -0.9855
 9929SOL     OW31460   9.335   0.911   5.191 -0.1202  0.4320 -0.3001
 9929SOL    HW131461   9.315   0.968   5.265 -3.3768  0.2402 -0.8760
 9929SOL    HW231462   9.322   0.966   5.114  0.7321 -0.0464 -0.8038
 9930SOL     OW31463   7.275   8.898   4.221 -0.3046  0.1770  0.2675
 9930SOL    HW131464   7.362   8.935   4.238 -0.8412  1.6090  0.0966
 9930SOL    HW231465   7.215   8.957   4.268 -1.2993  0.2629 -1.0614
 9931SOL     OW31466   1.169   4.126   3.823 -0.7731  0.0589  0.2839
 9931SOL    HW131467   1.160   4.220   3.806 -1.4876  0.1715  1.2348
 9931SOL    HW231468   1.167   4.087   3.736 -1.3093  0.8594 -0.0829
 9932SOL     OW31469   9.672   8.041   2.799  0.2689 -0.2761 -0.3319
 9932SOL    HW131470   9.738   8.073   2.861 -0.2700  1.7661 -0.7448
 9932SOL    HW231471   9.672   8.105   2.728  0.0807 -1.9736 -1.9367
 9933SOL     OW31472   7.753   6.232   0.257  0.0606  0.3185  0.0510
 9933SOL    HW131473   7.696   6.291   0.305 -1.0102 -1.7784  1.5065
 9933SOL    HW231474   7.706   6.149   0.255  1.0763 -0.2986 -2.7358
 9934SOL     OW31475   3.867   3.162   6.107 -0.6256  0.5411  0.4297
 9934SOL    HW131476   3.882   3.108   6.184 -0.0413 -0.7714 -0.5612
 9934SOL    HW231477   3.778   3.196   6.119 -1.2988 -1.2126  0.7814
 9935SOL     OW31478   7.719   5.169   8.772  0.4213 -0.2246  0.0598
 9935SOL    HW131479   7.807   5.132   8.775  0.0960 -1.1054 -0.5867
 9935SOL    HW231480   7.730   5.259   8.743  1.1499 -0.1404  0.5792
 9936SOL     OW31481   6.648   2.411   0.941  0.0026 -0.0227  0.1081
 9936SOL    HW131482   6.602   2.431   0.859  0.6463 -0.9299 -0.4791
 9936SOL    HW231483   6.581   2.422   1.008 -0.2243  1.9989 -0.3761
 9937SOL     OW31484   5.699   8.505   9.013 -0.4623  0.2432 -0.4662
 9937SOL    HW131485   5.792   8.510   8.991 -0.6297 -1.4779 -1.8257
 9937SOL    HW231486   5.694   8.440   9.083 -0.7902 -1.5142 -2.0232
 9938SOL     OW31487   3.239   6.327   3.667  0.1371 -0.4953  0.0781
 9938SOL    HW131488   3.282   6.404   3.630  0.4119 -0.8859 -0.4359
 9938SOL    HW231489   3.166   6.309   3.607 -0.2917 -0.2874  0.5248
 9939SOL     OW31490   5.511   1.244   9.160 -0.4482  0.1712  0.2990
 9939SOL    HW131491   5.497   1.287   9.245  0.8189  0.2370  0.5059
 9939SOL    HW231492   5.549   1.159   9.183 -0.6235 -0.0421 -0.1880
 9940SOL     OW31493   1.069   1.008   0.565 -0.1502 -0.3686  0.2574
 9940SOL    HW131494   1.079   0.945   0.494 -3.4035  0.5720 -1.2798
 9940SOL    HW231495   1.132   1.077   0.545 -1.1718  0.0148 -2.0385
 9941SOL     OW31496   5.067   6.723   5.426  0.2797  0.0207 -0.4879
 9941SOL    HW131497   5.156   6.731   5.394 -0.0153  0.1988 -1.2949
 9941SOL    HW231498   5.043   6.812   5.454  1.0462 -0.4043  1.6863
 9942SOL     OW31499   4.295   4.656   4.726  0.2256 -0.3133  0.1675
 9942SOL    HW131500   4.373   4.608   4.696  0.3982  0.0390  0.0512
 9942SOL    HW231501   4.280   4.722   4.659  0.1480 -0.0262  0.4660
 9943SOL     OW31502   2.793   6.660   5.095 -0.3188 -0.0808  0.1429
 9943SOL    HW131503   2.763   6.585   5.147 -2.1304  0.6396  0.2286
 9943SOL    HW231504   2.858   6.624   5.036  0.5525 -1.2577  1.7492
 9944SOL     OW31505   5.278   5.242   6.437  0.7840 -0.3605 -0.1318
 9944SOL    HW131506   5.272   5.173   6.372 -1.3424  0.6990 -1.1555
 9944SOL    HW231507   5.190   5.247   6.475  0.4075  2.6543 -1.1287
 9945SOL     OW31508   0.602   5.592   2.748 -0.0278 -0.7301 -0.2971
 9945SOL    HW131509   0.641   5.639   2.823 -1.5380  0.3185 -0.1316
 9945SOL    HW231510   0.630   5.502   2.760 -1.6168 -0.9575  2.5637
 9946SOL     OW31511   7.357   0.102   7.491  0.3714 -0.6528  0.4958
 9946SOL    HW131512   7.270   0.138   7.509  0.2440 -0.0858 -1.0828
 9946SOL    HW231513   7.415   0.149   7.551 -0.0651  0.8708 -0.2077
 9947SOL     OW31514   9.018   5.216   6.804 -0.2974  0.4358  0.0102
 9947SOL    HW131515   9.062   5.218   6.719 -0.9815  1.5373 -0.3386
 9947SOL    HW231516   9.024   5.305   6.837 -0.2753  0.0802  1.0074
 9948SOL     OW31517   0.042   3.165   2.561 -0.0333 -0.2794 -0.1702
 9948SOL    HW131518  -0.044   3.135   2.532 -0.2001 -0.8905  0.9377
 9948SOL    HW231519   0.048   3.255   2.526 -1.3932  0.0158  0.2972
 9949SOL     OW31520   4.063   1.329   2.995  0.3132 -0.5236 -0.3066
 9949SOL    HW131521   4.021   1.291   2.918 -0.2863 -0.1624 -0.1604
 9949SOL    HW231522   4.123   1.260   3.025 -0.2140 -1.0721 -0.4823
 9950SOL     OW31523   2.492   2.794   2.591  0.3360 -0.3378  0.0559
 9950SOL    HW131524   2.397   2.801   2.602  0.2989  3.4638 -1.0627
 9950SOL    HW231525   2.504   2.716   2.537 -2.1863 -0.8544  0.1279
 9951SOL     OW31526   8.199   0.187   1.361  0.2961 -0.1523 -0.2695
 9951SOL    HW131527   8.254   0.160   1.287  0.0789 -1.3117 -0.0231
 9951SOL    HW231528   8.179   0.106   1.408 -0.3897  0.4393  0.5030
 9952SOL     OW31529   7.141   0.367   4.523 -0.0857 -0.0787  0.8038
 9952SOL    HW131530   7.147   0.318   4.605 -1.6342 -1.1292  0.3353
 9952SOL    HW231531   7.090   0.445   4.545  1.1594  0.6421  1.2359
 9953SOL     OW31532   1.518   7.446   7.865 -0.2397  0.0436 -0.4214
 9953SOL    HW131533   1.473   7.519   7.822 -1.0315 -1.4380 -2.1979
 9953SOL    HW231534   1.454   7.415   7.930 -0.8244 -0.5001 -1.2431
 9954SOL     OW31535   2.596   2.396   5.984  0.3480  0.2991  0.2420
 9954SOL    HW131536   2.510   2.435   5.968 -0.3845 -1.7433 -1.3289
 9954SOL    HW231537   2.626   2.369   5.897  0.6315 -2.7999  1.1933
 9955SOL     OW31538   7.596   3.969   2.771  0.1253  0.8907 -0.6359
 9955SOL    HW131539   7.518   3.914   2.777  0.9350 -0.5938 -2.4645
 9955SOL    HW231540   7.669   3.907   2.767  1.2921  2.1876 -0.3716
 9956SOL     OW31541   2.792   4.586   5.636 -0.0008  0.1192  0.7051
 9956SOL    HW131542   2.764   4.535   5.712 -1.2553 -0.7790 -0.3119
 9956SOL    HW231543   2.861   4.533   5.597  0.5246  0.4982  1.1025
 9957SOL     OW31544   2.864   3.712   4.178 -0.3315 -0.0130  0.4430
 9957SOL    HW131545   2.835   3.654   4.248  1.4066  0.5051  1.6791
 9957SOL    HW231546   2.828   3.797   4.201  0.1381  0.1307  0.6751
 9958SOL     OW31547   4.650   4.699   5.186 -0.1755 -0.5069 -0.3862
 9958SOL    HW131548   4.731   4.650   5.199  1.4742  1.4133 -2.5023
 9958SOL    HW231549   4.653   4.726   5.094 -0.3484  4.3065  0.7202
 9959SOL     OW31550   2.839   0.064   2.959 -0.1806 -0.0067  0.2826
 9959SOL    HW131551   2.779  -0.004   2.929 -0.3520  0.9368 -1.7019
 9959SOL    HW231552   2.914   0.017   2.994  0.1918 -1.2881 -2.0404
 9960SOL     OW31553   6.786   5.728   9.474 -0.7224  0.4218  0.2675
 9960SOL    HW131554   6.771   5.653   9.531 -2.0096  0.7666  0.4187
 9960SOL    HW231555   6.728   5.796   9.509  1.4198  1.9501  0.9951
 9961SOL     OW31556   6.497   6.993   7.042 -0.2623  0.2408 -0.2010
 9961SOL    HW131557   6.473   6.990   7.135 -3.0643  1.5824 -0.7723
 9961SOL    HW231558   6.593   6.995   7.042 -0.1264 -1.3491  2.5588
 9962SOL     OW31559   2.364   6.826   4.438 -0.2402 -0.1346 -0.5461
 9962SOL    HW131560   2.375   6.749   4.383  0.6322  0.2241 -0.8946
 9962SOL    HW231561   2.412   6.805   4.518 -2.1768 -0.9852  0.4671
 9963SOL     OW31562   1.299   5.519   5.593 -0.2275  0.4247 -0.2964
 9963SOL    HW131563   1.214   5.562   5.595 -0.1415  0.6035 -0.4642
 9963SOL    HW231564   1.342   5.547   5.674 -0.6836 -0.4030  0.2477
 9964SOL     OW31565   4.608   7.419   1.582 -0.0246 -0.1990  0.3211
 9964SOL    HW131566   4.652   7.483   1.526  0.1094 -2.1571 -1.9412
 9964SOL    HW231567   4.679   7.365   1.617 -0.3400 -1.6895 -1.1943
 9965SOL     OW31568   2.070   4.031   4.101  0.2415  0.0455 -0.0062
 9965SOL    HW131569   2.064   4.055   4.193  0.3115  1.9218 -0.4390
 9965SOL    HW231570   2.144   3.971   4.096  1.9573  1.9601  0.8478
 9966SOL     OW31571   2.915   2.197   1.536 -0.6076 -0.3048  0.1785
 9966SOL    HW131572   2.836   2.147   1.556 -1.0005  0.3316  0.2224
 9966SOL    HW231573   2.926   2.256   1.611  0.1216 -0.6520  0.3551
 9967SOL     OW31574   7.002   5.370   5.440  0.2244  0.3008 -0.6636
 9967SOL    HW131575   6.935   5.361   5.372 -1.2157  2.5617  0.3519
 9967SOL    HW231576   6.956   5.354   5.522  1.3175  0.2343 -0.0419
 9968SOL     OW31577   0.769   6.946   1.256 -0.9551 -0.1590  0.2002
 9968SOL    HW131578   0.818   7.028   1.244 -1.5693  0.4022  1.3825
 9968SOL    HW231579   0.677   6.972   1.250 -1.1524 -0.7908  0.4464
 9969SOL     OW31580   5.354   0.017   8.417  0.4275  0.4170  0.4088
 9969SOL    HW131581   5.305  -0.065   8.426  0.8008  0.3752  2.6387
 9969SOL    HW231582   5.380   0.019   8.325  0.6849 -2.1589  0.3466
 9970SOL     OW31583   5.964   0.603   6.261  0.0468  0.0295  0.1031
 9970SOL    HW131584   5.877   0.567   6.274 -0.5599 -0.0839 -3.2891
 9970SOL    HW231585   5.952   0.698   6.271 -0.2752 -0.0381  0.3951
 9971SOL     OW31586   9.136   4.297   7.439 -0.4347  0.2569  0.0349
 9971SOL    HW131587   9.047   4.289   7.404  0.3451 -0.3143 -1.9497
 9971SOL    HW231588   9.128   4.359   7.512 -2.4385  0.2572 -0.1417
 9972SOL     OW31589   9.655   5.403   2.070 -0.0384 -0.0395  0.2231
 9972SOL    HW131590   9.708   5.475   2.037 -0.3810  0.1419  0.0621
 9972SOL    HW231591   9.634   5.427   2.160  0.8826 -0.5255  0.5799
 9973SOL     OW31592   6.630   7.814   6.201  0.4161 -0.6977  0.1489
 9973SOL    HW131593   6.629   7.769   6.286 -0.4656 -0.9834 -0.0055
 9973SOL    HW231594   6.689   7.888   6.214  1.6350 -1.6827  0.5196
 9974SOL     OW31595   8.051   0.848   5.400 -0.3737 -0.7110  0.0516
 9974SOL    HW131596   8.092   0.871   5.316  1.7283  1.3496  1.5240
 9974SOL    HW231597   7.958   0.836   5.378 -0.1424  1.1246 -2.3830
 9975SOL     OW31598   8.090   5.325   4.999  0.0258  0.3578 -0.2736
 9975SOL    HW131599   8.026   5.382   4.957 -0.6196  0.6378  1.0395
 9975SOL    HW231600   8.175   5.361   4.973 -0.3589  2.7169  1.5017
 9976SOL     OW31601   4.620   5.803   5.465 -0.1135 -0.4480  1.2963
 9976SOL    HW131602   4.549   5.858   5.433 -0.0828 -0.4331  1.2533
 9976SOL    HW231603   4.672   5.861   5.522 -0.1500 -0.4658  1.3478
 9977SOL     OW31604   2.471   1.029   5.224 -0.1006 -0.1695 -0.4484
 9977SOL    HW131605   2.437   0.954   5.273  0.8035 -0.0629  0.3694
 9977SOL    HW231606   2.534   0.991   5.162 -2.0065 -0.4329 -2.3526
 9978SOL     OW31607   5.761   4.097   3.874  0.6554 -0.3345  0.4056
 9978SOL    HW131608   5.745   4.066   3.785 -0.8579  0.2268  0.4479
 9978SOL    HW231609   5.851   4.073   3.892  1.5887  1.0836 -1.9191
 9979SOL     OW31610   5.891   0.984   4.705  0.1867 -0.0549 -0.1479
 9979SOL    HW131611   5.844   0.908   4.740  0.8438 -0.2411  0.3666
 9979SOL    HW231612   5.852   0.999   4.619 -0.9958 -0.0206  0.3793
 9980SOL     OW31613   1.026   3.141   1.011  0.2013  0.6913  0.5799
 9980SOL    HW131614   0.975   3.220   0.994 -0.3398 -0.0702 -1.6956
 9980SOL    HW231615   1.111   3.174   1.040  0.9374  2.3231 -2.9046
 9981SOL     OW31616   3.828   5.195   3.913 -0.0803 -0.3830 -0.2756
 9981SOL    HW131617   3.835   5.105   3.881 -0.1771 -0.5024  0.0375
 9981SOL    HW231618   3.734   5.210   3.921 -0.0631 -0.2622 -0.3050
 9982SOL     OW31619   1.698   5.017   7.629 -0.1522  0.0850  0.6521
 9982SOL    HW131620   1.789   4.994   7.612  0.2770  1.9766  0.1671
 9982SOL    HW231621   1.691   5.022   7.724 -0.0304 -1.0473  0.7317
 9983SOL     OW31622   0.808   2.516   3.484 -0.1616 -0.0932 -0.2534
 9983SOL    HW131623   0.781   2.467   3.406  0.9033  1.0700 -1.4092
 9983SOL    HW231624   0.783   2.606   3.465 -0.6714  0.0875  1.1558
 9984SOL     OW31625   7.358   6.838   5.245 -0.4609 -0.3805 -0.1867
 9984SOL    HW131626   7.280   6.876   5.286  0.5772  1.3953  0.2708
 9984SOL    HW231627   7.356   6.871   5.155 -0.8189 -1.2768 -0.5174
 9985SOL     OW31628   5.770   2.350   2.286 -0.2498 -0.1857 -0.4114
 9985SOL    HW131629   5.856   2.310   2.299  0.1155  0.4663 -0.7707
 9985SOL    HW231630   5.788   2.426   2.230 -0.7782  1.0866  1.0998
 9986SOL     OW31631   7.016   9.355   8.286 -0.2235  0.0263  0.2983
 9986SOL    HW131632   7.029   9.261   8.270  0.3240  0.3635 -1.4107
 9986SOL    HW231633   6.934   9.376   8.242 -0.8940  0.1690  1.5698
 9987SOL     OW31634   4.325   0.249   3.997  0.1283 -0.4049 -0.0690
 9987SOL    HW131635   4.255   0.190   4.024 -1.5126  1.2989 -0.4216
 9987SOL    HW231636   4.290   0.294   3.919  1.0918  1.3847  0.4832
 9988SOL     OW31637   3.663   7.802   5.809  0.3748 -0.3182  0.2422
 9988SOL    HW131638   3.713   7.846   5.741 -0.3262 -0.8845 -0.6678
 9988SOL    HW231639   3.679   7.708   5.794  0.0788 -0.4560  0.7531
 9989SOL     OW31640   7.072   7.597   3.773 -0.6176 -0.2050 -0.2084
 9989SOL    HW131641   7.065   7.650   3.853 -0.3678 -0.1841 -0.2017
 9989SOL    HW231642   7.097   7.659   3.705  0.9425 -0.5288  0.0487
 9990SOL     OW31643   2.617   2.356   8.387 -0.4760  0.2230  0.1890
 9990SOL    HW131644   2.699   2.392   8.353 -0.5067  1.0042  0.8968
 9990SOL    HW231645   2.579   2.309   8.313  0.4029  0.2107 -0.2714
 9991SOL     OW31646   7.997   7.415   4.960  0.6389  0.4598 -0.1496
 9991SOL    HW131647   8.050   7.494   4.953  1.7393 -0.0819  1.3360
 9991SOL    HW231648   7.956   7.422   5.046  1.1898 -0.7994  0.2458
 9992SOL     OW31649   4.211   5.475   3.014 -0.1092 -0.1507 -0.6433
 9992SOL    HW131650   4.123   5.504   2.990  0.1112 -0.2093 -1.5552
 9992SOL    HW231651   4.205   5.455   3.107 -0.2316  3.0915  0.1710
 9993SOL     OW31652   2.929   3.551   8.826  0.0011 -0.5124  0.2610
 9993SOL    HW131653   2.839   3.524   8.846  0.3886 -1.6027  0.5613
 9993SOL    HW231654   2.957   3.492   8.756  1.4448 -2.0990  2.0891
 9994SOL     OW31655   4.482   3.856   8.166  0.1452  1.0107 -0.0471
 9994SOL    HW131656   4.401   3.867   8.216  0.5173 -1.4683  1.2349
 9994SOL    HW231657   4.467   3.778   8.113  1.4237  0.9418 -0.3418
 9995SOL     OW31658   5.391   5.075   1.775  0.2179  0.5101  0.0719
 9995SOL    HW131659   5.398   5.170   1.788 -3.8228  1.0449 -0.4790
 9995SOL    HW231660   5.404   5.038   1.863  0.1161  1.7152  0.6160
 9996SOL     OW31661   1.729   8.434   6.999  0.3209  0.1638  0.4790
 9996SOL    HW131662   1.695   8.422   6.911  1.1578 -2.1404  0.4147
 9996SOL    HW231663   1.742   8.529   7.007  0.5747  0.3944 -1.9864
 9997SOL     OW31664   5.513   5.995   2.276 -0.0376 -0.4843  0.5943
 9997SOL    HW131665   5.471   5.909   2.283 -2.2229  0.1095 -2.8368
 9997SOL    HW231666   5.457   6.053   2.328 -0.0908 -0.6963  0.7751
 9998SOL     OW31667   4.224   1.223   3.780 -0.3174  0.0481  0.0758
 9998SOL    HW131668   4.228   1.275   3.699 -0.7597 -0.6902 -0.4222
 9998SOL    HW231669   4.236   1.133   3.751  1.6600 -0.0564  1.0614
 9999SOL     OW31670   0.488   1.308   2.255  0.5634 -0.2114 -0.0833
 9999SOL    HW131671   0.405   1.327   2.300  0.2882 -0.1616 -0.5953
 9999SOL    HW231672   0.555   1.325   2.320  0.1468 -0.6764  0.4803
10000SOL     OW31673   9.229   8.863   0.528 -0.0713 -0.2123  0.2554
10000SOL    HW131674   9.215   8.851   0.434 -0.4625 -0.0794  0.2977
10000SOL    HW231675   9.206   8.955   0.544  0.4811 -0.0892  0.3929
10001SOL     OW31676   8.021   4.258   8.056  0.3906 -0.5458  0.5397
10001SOL    HW131677   8.096   4.293   8.008  1.2676 -0.9146  1.5947
10001SOL    HW231678   7.945   4.294   8.012  1.1509 -1.0727 -1.2851
10002SOL     OW31679   1.543   2.807   7.470 -0.0377  0.2190 -0.3097
10002SOL    HW131680   1.508   2.740   7.410 -0.8604  0.2099  0.1605
10002SOL    HW231681   1.638   2.800   7.461 -0.0782 -1.5851  0.3446
10003SOL     OW31682   5.277   2.835   6.354 -0.2167 -0.5578 -0.4689
10003SOL    HW131683   5.319   2.778   6.290  1.3265  1.2123 -1.1393
10003SOL    HW231684   5.200   2.870   6.307 -0.4961 -1.1519 -0.4635
10004SOL     OW31685   4.342   0.921   6.292  0.0093 -0.7907  0.3687
10004SOL    HW131686   4.392   0.841   6.275 -0.5200 -1.1235  0.3653
10004SOL    HW231687   4.335   0.964   6.207  0.6714 -0.5175  0.4496
10005SOL     OW31688   5.315   2.107   0.492  0.0193 -0.1160 -0.1534
10005SOL    HW131689   5.339   2.045   0.423  2.3160 -0.0031  0.4613
10005SOL    HW231690   5.232   2.075   0.525  0.5571 -2.2013 -0.6537
10006SOL     OW31691   0.394   3.570   5.577 -0.1711 -0.6252  0.0213
10006SOL    HW131692   0.480   3.565   5.534 -0.3633  1.9485 -0.7927
10006SOL    HW231693   0.409   3.626   5.653 -0.4624 -2.9035  1.8977
10007SOL     OW31694   4.365   1.595   4.888  0.6360  0.2892  0.0889
10007SOL    HW131695   4.373   1.539   4.811  0.6325  2.5791 -1.6721
10007SOL    HW231696   4.301   1.550   4.944  1.0931 -1.7259 -0.9263
10008SOL     OW31697   0.199   9.603   8.665 -0.2807  0.0892  0.0736
10008SOL    HW131698   0.199   9.690   8.703 -0.3626 -0.4018  1.2441
10008SOL    HW231699   0.292   9.585   8.647 -0.2097  0.2230  0.3011
10009SOL     OW31700   1.490   9.423   6.718 -0.9453 -0.1832  0.7107
10009SOL    HW131701   1.547   9.423   6.795 -1.9033  3.8358  1.6177
10009SOL    HW231702   1.547   9.452   6.647 -1.0473  0.4418  0.8787
10010SOL     OW31703   0.150   9.597   1.238 -0.4689  0.2940  0.5587
10010SOL    HW131704   0.161   9.692   1.244  1.2865  0.1380  0.1489
10010SOL    HW231705   0.116   9.572   1.324 -0.3144  1.2038  0.8959
10011SOL     OW31706   6.875   2.464   4.926  1.3756 -0.6618 -0.1869
10011SOL    HW131707   6.900   2.478   4.835  1.3905 -2.3482 -0.4674
10011SOL    HW231708   6.780   2.478   4.928  0.9469 -2.9736 -1.0256
10012SOL     OW31709   9.126   7.347   8.787  0.7560 -0.4627  0.1041
10012SOL    HW131710   9.102   7.333   8.879 -0.7202 -1.2229 -0.3606
10012SOL    HW231711   9.191   7.418   8.790 -0.5560  0.7639  1.5974
10013SOL     OW31712   8.118   1.883   5.779 -0.5954 -0.5200  0.5115
10013SOL    HW131713   8.133   1.807   5.723  2.1583  1.5605 -1.9097
10013SOL    HW231714   8.051   1.933   5.734 -0.2544 -0.0995  0.4644
10014SOL     OW31715   4.772   8.361   5.317  0.1379  0.2066  0.2000
10014SOL    HW131716   4.813   8.391   5.398  0.3046  0.7343 -0.0735
10014SOL    HW231717   4.690   8.320   5.345  0.3331  0.1226  0.6566
10015SOL     OW31718   9.229   8.524   0.887 -0.1820  0.2177 -0.1185
10015SOL    HW131719   9.194   8.555   0.804  2.3164  0.7862 -1.0163
10015SOL    HW231720   9.185   8.440   0.901 -0.7637  0.1820 -1.9161
10016SOL     OW31721   4.816   2.497   3.867  0.2089 -0.1444  0.1302
10016SOL    HW131722   4.760   2.567   3.901  1.1239  0.5319  0.2746
10016SOL    HW231723   4.822   2.434   3.938 -0.3670 -0.2321  0.1100
10017SOL     OW31724   4.635   6.908   3.575 -0.1686 -0.6978  0.5910
10017SOL    HW131725   4.675   6.995   3.570 -1.3800 -0.1137  0.7068
10017SOL    HW231726   4.655   6.877   3.663 -2.2245  0.7413  1.6305
10018SOL     OW31727   1.138   4.315   7.588 -0.1525 -0.0795 -0.4600
10018SOL    HW131728   1.048   4.327   7.619 -0.0139  0.6986 -0.3378
10018SOL    HW231729   1.147   4.379   7.518  0.4211  0.0775 -0.2395
10019SOL     OW31730   1.752   0.828   6.066  0.4136 -0.0961 -0.0302
10019SOL    HW131731   1.740   0.783   6.150  0.7659  0.0602  0.1038
10019SOL    HW231732   1.696   0.905   6.072  1.0999  0.3793  0.4090
10020SOL     OW31733   4.870   6.176   2.178  0.4247  0.2768 -0.1756
10020SOL    HW131734   4.838   6.089   2.153  0.6465  0.3342 -0.6746
10020SOL    HW231735   4.811   6.237   2.135 -0.2180  0.3781  0.8289
10021SOL     OW31736   7.852   4.563   9.357 -0.7106 -0.7876  0.1643
10021SOL    HW131737   7.927   4.571   9.415 -1.3808  2.2593  0.7737
10021SOL    HW231738   7.889   4.568   9.269 -0.1700  1.8375  0.4563
10022SOL     OW31739   5.565   1.670   0.639 -0.3907  0.7196  0.2784
10022SOL    HW131740   5.561   1.680   0.734 -0.8988 -0.7971  0.4478
10022SOL    HW231741   5.485   1.710   0.607 -0.1076  1.4455  0.4511
10023SOL     OW31742   5.754   8.257   3.023  0.8575 -0.5461 -0.2330
10023SOL    HW131743   5.824   8.191   3.018 -0.7069 -2.3440  0.1645
10023SOL    HW231744   5.675   8.208   3.001 -0.2622  1.4993 -0.9928
10024SOL     OW31745   6.889   3.258   4.367 -0.0356  0.0032  0.4213
10024SOL    HW131746   6.941   3.310   4.428  0.6945 -0.3445  0.1060
10024SOL    HW231747   6.921   3.168   4.379  1.7174  0.2194 -2.0520
10025SOL     OW31748   1.274   2.305   2.653 -0.3819  0.5699  0.3213
10025SOL    HW131749   1.260   2.219   2.693 -1.7799 -1.0976 -3.3033
10025SOL    HW231750   1.227   2.366   2.710 -1.7039 -1.4714  1.5623
10026SOL     OW31751   7.313   2.605   5.263 -0.6295 -0.2580 -0.3741
10026SOL    HW131752   7.346   2.516   5.277 -0.0092  0.2170  1.4948
10026SOL    HW231753   7.247   2.595   5.196  0.0102 -2.0062 -0.8128
10027SOL     OW31754   9.266   7.753   7.129  0.1992  0.6364  0.2754
10027SOL    HW131755   9.266   7.698   7.208  2.2591  0.6609  0.3418
10027SOL    HW231756   9.354   7.741   7.092 -0.0239  2.2651 -0.8612
10028SOL     OW31757   3.582   4.648   2.471  0.3440 -0.3185 -0.1317
10028SOL    HW131758   3.663   4.680   2.513  1.1741 -1.8009 -0.5320
10028SOL    HW231759   3.554   4.575   2.526  0.3676 -1.0522 -1.0740
10029SOL     OW31760   2.001   9.338   7.673  0.2663  0.3105 -0.2405
10029SOL    HW131761   1.971   9.417   7.718 -2.3437 -0.8938  0.2693
10029SOL    HW231762   2.070   9.303   7.730 -2.1695 -0.5737  2.3852
10030SOL     OW31763   2.229   3.128   9.587  0.2656  0.0983  0.2017
10030SOL    HW131764   2.165   3.131   9.658  0.0806 -1.1946  0.1207
10030SOL    HW231765   2.271   3.214   9.588 -0.3548  0.4026  1.2934
10031SOL     OW31766   9.297   8.262   1.416  0.5537  0.2691 -0.0638
10031SOL    HW131767   9.384   8.281   1.451  1.0513  0.2403 -1.2326
10031SOL    HW231768   9.313   8.202   1.343 -0.1103  2.4772 -2.1695
10032SOL     OW31769   6.586   0.371   6.981 -0.3314 -0.2953  0.0632
10032SOL    HW131770   6.617   0.367   6.890  1.6403 -2.4906  0.7256
10032SOL    HW231771   6.574   0.464   6.998  2.5095  0.4783 -1.4839
10033SOL     OW31772   0.636   3.805   4.850 -0.0267 -0.2189  0.2197
10033SOL    HW131773   0.598   3.786   4.936  0.1601 -0.2103  0.3027
10033SOL    HW231774   0.578   3.871   4.812  0.0456 -0.0264  0.4473
10034SOL     OW31775   2.367   7.381   6.720  0.5817 -0.5394  0.2040
10034SOL    HW131776   2.362   7.472   6.751  1.8203  0.2814 -1.8133
10034SOL    HW231777   2.292   7.372   6.661  2.1722  0.2340 -2.0338
10035SOL     OW31778   3.210   6.872   5.333 -0.2418  0.5353 -0.0748
10035SOL    HW131779   3.304   6.889   5.323  0.3129 -3.0225 -4.1628
10035SOL    HW231780   3.170   6.909   5.254 -1.6613 -0.9467 -0.1038
10036SOL     OW31781   2.449   8.216   5.522 -0.2004  0.2761  0.3853
10036SOL    HW131782   2.408   8.301   5.507  0.6307  0.3672 -1.6883
10036SOL    HW231783   2.376   8.154   5.519 -0.6563  0.7894  0.6484
10037SOL     OW31784   1.225   4.476   1.376 -0.0768  0.4626  0.1143
10037SOL    HW131785   1.242   4.569   1.361 -1.1322  0.9565  1.7233
10037SOL    HW231786   1.174   4.448   1.301  2.2226  0.5371 -1.5817
10038SOL     OW31787   7.647   6.116   6.869  0.1508 -0.1256  0.1018
10038SOL    HW131788   7.555   6.132   6.848  0.6914  1.0232 -1.5235
10038SOL    HW231789   7.658   6.153   6.957 -0.9675 -0.4463  0.3981
10039SOL     OW31790   4.620   0.503   9.474 -0.0924  0.5253  0.6217
10039SOL    HW131791   4.551   0.437   9.480  0.7203 -0.3213  0.8633
10039SOL    HW231792   4.584   0.580   9.518 -1.0516  0.2539  0.3385
10040SOL     OW31793   4.837   4.574   1.741 -0.7356  0.4253  0.1016
10040SOL    HW131794   4.779   4.641   1.778 -0.5704  0.2842  0.6316
10040SOL    HW231795   4.922   4.617   1.734 -0.9964  0.7738 -1.1068
10041SOL     OW31796   5.585   6.992   2.846 -0.3565 -0.1355 -0.1224
10041SOL    HW131797   5.666   6.942   2.860 -0.2126 -0.3388 -1.5718
10041SOL    HW231798   5.612   7.083   2.855  0.7496  0.0003 -3.4614
10042SOL     OW31799   2.700   2.192   6.143 -0.5177 -0.6027  0.1082
10042SOL    HW131800   2.778   2.168   6.092 -2.4815 -4.5543 -1.4960
10042SOL    HW231801   2.660   2.263   6.094  1.2879  0.5608  0.2230
10043SOL     OW31802   5.469   6.744   8.251 -0.7510 -0.2938 -0.3811
10043SOL    HW131803   5.495   6.834   8.269  1.7796 -1.0061 -0.1082
10043SOL    HW231804   5.503   6.726   8.164  0.3244 -1.4860  0.2517
10044SOL     OW31805   7.773   1.141   3.956  0.1770 -0.1310 -0.1343
10044SOL    HW131806   7.784   1.051   3.988  2.3072 -0.4754 -1.6779
10044SOL    HW231807   7.692   1.138   3.905 -0.3542 -0.8806  0.7195
10045SOL     OW31808   6.961   3.176   6.750  0.5063 -0.3361  0.0429
10045SOL    HW131809   6.961   3.081   6.747 -2.7958 -0.4645 -0.4775
10045SOL    HW231810   6.973   3.198   6.843 -0.2074 -1.3735  0.3992
10046SOL     OW31811   2.567   5.552   6.021 -0.4208  0.0573  0.0920
10046SOL    HW131812   2.490   5.609   6.025 -2.0562 -2.1005  2.0105
10046SOL    HW231813   2.563   5.514   5.933 -0.1291  1.6967 -0.6790
10047SOL     OW31814   2.910   9.519   8.309 -0.4429 -0.3506 -0.1687
10047SOL    HW131815   2.998   9.488   8.288  0.3980  2.1877 -0.7368
10047SOL    HW231816   2.872   9.449   8.363  2.1690 -1.1901  0.7306
10048SOL     OW31817   8.650   7.004   2.813  0.1349  0.7252 -1.0008
10048SOL    HW131818   8.601   6.959   2.744 -0.1174  0.4744 -0.6590
10048SOL    HW231819   8.740   6.974   2.802 -0.1132 -0.2550 -0.4700
10049SOL     OW31820   6.071   9.373   5.112  0.3696 -0.2189  0.0369
10049SOL    HW131821   6.070   9.422   5.194 -1.1363  0.7960 -0.5583
10049SOL    HW231822   6.152   9.399   5.069  0.4684  0.3298  0.5519
10050SOL     OW31823   0.181   3.755   1.994 -0.2181 -0.4446  0.8349
10050SOL    HW131824   0.089   3.749   2.020 -0.6180 -0.0743 -0.4030
10050SOL    HW231825   0.230   3.743   2.075 -1.3857  0.6917  1.7553
10051SOL     OW31826   5.252   0.390   3.102  0.2022 -0.2443  0.5743
10051SOL    HW131827   5.233   0.378   3.195 -0.0230 -0.3772  0.5111
10051SOL    HW231828   5.169   0.374   3.058 -0.4145  2.5984  0.5396
10052SOL     OW31829   3.665   3.976   7.972 -0.1891  0.1189 -0.0410
10052SOL    HW131830   3.721   4.051   7.953 -1.2194  0.5151 -1.7229
10052SOL    HW231831   3.725   3.902   7.978  0.6489  0.7596 -0.3168
10053SOL     OW31832   7.774   8.502   8.011 -0.2837  0.3367  0.2408
10053SOL    HW131833   7.712   8.435   7.984 -0.4835 -0.0371  1.5244
10053SOL    HW231834   7.772   8.499   8.107  1.6761  0.3443  0.3276
10054SOL     OW31835   7.294   6.558   8.587  0.3663  0.1312 -0.9425
10054SOL    HW131836   7.318   6.468   8.567 -4.9260 -1.6984 -0.4963
10054SOL    HW231837   7.251   6.590   8.507 -1.0200  0.8960  0.0669
10055SOL     OW31838   1.886   7.953   4.148 -0.2572 -0.0823  0.0793
10055SOL    HW131839   1.889   7.977   4.240  0.1343 -0.9771  0.3067
10055SOL    HW231840   1.839   8.025   4.106  1.1230  1.2386  0.6942
10056SOL     OW31841   8.121   9.258   5.249  0.6573 -0.0481 -0.1104
10056SOL    HW131842   8.095   9.224   5.164 -0.6391 -2.0208  0.9895
10056SOL    HW231843   8.048   9.315   5.275  0.8536  0.2108 -0.1199
10057SOL     OW31844   1.982   1.620   7.123 -0.5418  0.1075 -1.3376
10057SOL    HW131845   1.916   1.561   7.086  0.1065 -1.2487 -0.4109
10057SOL    HW231846   2.059   1.606   7.069 -0.5844  0.6306 -1.5369
10058SOL     OW31847   8.340   6.057   6.148  0.3133  0.8788 -0.4914
10058SOL    HW131848   8.398   5.983   6.165 -0.3517  0.6812  1.0636
10058SOL    HW231849   8.253   6.018   6.142  0.1290  1.3731 -1.1121
10059SOL     OW31850   7.328   9.039   6.561 -0.3989  0.1462  0.3244
10059SOL    HW131851   7.276   9.016   6.484 -0.5413 -2.8293  1.1813
10059SOL    HW231852   7.410   9.073   6.525 -0.9873  0.1333 -1.1092
10060SOL     OW31853   6.752   0.113   2.080 -0.0344 -0.2427 -0.2725
10060SOL    HW131854   6.833   0.105   2.130  0.4591  1.7311 -0.6698
10060SOL    HW231855   6.780   0.126   1.989 -0.8553 -0.9025 -0.6468
10061SOL     OW31856   4.352   3.492   7.800 -0.4009 -0.0493 -0.1890
10061SOL    HW131857   4.394   3.545   7.733 -0.7307  1.5806  0.8332
10061SOL    HW231858   4.271   3.462   7.759  0.5921 -1.2391 -1.3611
10062SOL     OW31859   5.331   1.512   4.767 -0.3747  0.3281  0.0415
10062SOL    HW131860   5.421   1.498   4.797 -0.6829 -1.6388  0.1911
10062SOL    HW231861   5.292   1.569   4.833  0.2399 -0.3308  0.9981
10063SOL     OW31862   5.822   6.631   4.009  0.0704  0.3818  0.3922
10063SOL    HW131863   5.819   6.721   3.976 -0.2426  0.1058 -0.3684
10063SOL    HW231864   5.863   6.581   3.938 -0.3353 -0.1812  0.5421
10064SOL     OW31865   3.081   7.908   7.825  0.0942 -0.1256  1.1842
10064SOL    HW131866   3.167   7.933   7.790  0.1982  0.4047  1.7955
10064SOL    HW231867   3.054   7.833   7.772  0.2753  0.6097  0.0186
10065SOL     OW31868   6.536   8.443   1.180 -0.2476  0.1149  0.1250
10065SOL    HW131869   6.444   8.441   1.209  0.0511 -1.8841  1.1358
10065SOL    HW231870   6.578   8.506   1.239 -0.6859 -0.0653  0.6421
10066SOL     OW31871   9.466   9.652   3.950 -1.1783 -0.3189  0.0040
10066SOL    HW131872   9.514   9.599   4.014 -0.9995  0.9268  0.9470
10066SOL    HW231873   9.503   9.627   3.865  1.1058  0.5011  0.6841
10067SOL     OW31874   7.773   4.413   8.001 -0.3828 -0.2154  0.0671
10067SOL    HW131875   7.763   4.402   8.095 -0.0701 -0.4413  0.0770
10067SOL    HW231876   7.690   4.385   7.964 -0.3724 -0.4962  0.2511
10068SOL     OW31877   4.393   4.883   1.063 -0.9331 -0.3111 -0.0046
10068SOL    HW131878   4.401   4.970   1.104 -0.0322  0.1618 -1.1282
10068SOL    HW231879   4.327   4.838   1.116  0.0063  0.3466  1.8155
10069SOL     OW31880   1.995   4.585   3.701  0.0978  0.1072 -0.1594
10069SOL    HW131881   1.951   4.560   3.620 -3.2079  1.8357  0.9221
10069SOL    HW231882   2.006   4.680   3.694  2.0966 -0.0243  0.4491
10070SOL     OW31883   9.530   5.819   9.376 -0.3590 -0.7160 -0.1198
10070SOL    HW131884   9.464   5.884   9.400  1.1630  1.1673 -0.8263
10070SOL    HW231885   9.483   5.758   9.319 -1.9269 -0.5278  0.8813
10071SOL     OW31886   3.086   0.124   4.723  0.6300 -0.2157 -0.3882
10071SOL    HW131887   3.166   0.114   4.671  1.2379  2.4646 -0.1129
10071SOL    HW231888   3.015   0.101   4.663  1.5588 -3.8929 -0.2671
10072SOL     OW31889   8.094   3.580   6.491  0.1369  0.3981 -0.1397
10072SOL    HW131890   8.159   3.644   6.518 -1.7285  1.4068  2.3381
10072SOL    HW231891   8.034   3.630   6.435 -1.0679  0.7787  1.4275
10073SOL     OW31892   7.133   7.145   0.043  0.6292  0.0609 -0.4606
10073SOL    HW131893   7.111   7.169  -0.047 -0.6137 -0.8241 -0.4069
10073SOL    HW231894   7.092   7.060   0.056 -0.6490  0.9015  1.4817
10074SOL     OW31895   9.166   4.967   5.877  0.2734  0.1197  0.0989
10074SOL    HW131896   9.183   4.990   5.968 -0.3012 -0.0748  0.2574
10074SOL    HW231897   9.099   4.899   5.881  0.4586 -0.0983 -0.4570
10075SOL     OW31898   3.333   9.676   7.478 -0.2634 -0.6263  0.1367
10075SOL    HW131899   3.409   9.666   7.535 -0.1745  1.5994  0.5121
10075SOL    HW231900   3.294   9.589   7.474  2.2623 -1.8334 -0.0457
10076SOL     OW31901   8.259   0.450   2.563 -0.3556  0.8022  0.0156
10076SOL    HW131902   8.254   0.356   2.545  1.1095  0.4806  1.1290
10076SOL    HW231903   8.169   0.481   2.553 -0.8547 -0.7043 -0.4064
10077SOL     OW31904   3.977   2.648   7.377  0.3575  0.1872  0.1751
10077SOL    HW131905   3.989   2.586   7.450  1.6494  1.7282  1.3433
10077SOL    HW231906   4.058   2.642   7.327 -0.0541 -0.0048 -0.4809
10078SOL     OW31907   0.952   4.061   4.101 -0.1949  0.3183 -0.0604
10078SOL    HW131908   0.927   4.097   4.016  0.8467  1.4746  0.1097
10078SOL    HW231909   0.997   3.979   4.080  1.1924  1.2199 -0.7227
10079SOL     OW31910   5.565   0.612   2.297 -0.3350 -0.0652  0.1839
10079SOL    HW131911   5.582   0.536   2.242 -1.4039  0.0391 -0.3181
10079SOL    HW231912   5.506   0.667   2.244 -0.9508  0.2907  1.2169
10080SOL     OW31913   0.672   1.780   5.723 -0.2241  0.1459  0.1222
10080SOL    HW131914   0.609   1.797   5.653 -0.6068 -1.9847 -0.1046
10080SOL    HW231915   0.633   1.820   5.801 -0.4581  1.3116 -0.5611
10081SOL     OW31916   6.235   1.141   0.730 -0.3753 -0.2652 -0.1743
10081SOL    HW131917   6.264   1.072   0.789 -0.2835 -0.3031 -0.2628
10081SOL    HW231918   6.310   1.200   0.722 -0.3999 -0.2399 -0.2232
10082SOL     OW31919   0.892   4.422   9.051  0.1843 -0.4794  0.2104
10082SOL    HW131920   0.799   4.423   9.075  0.2891 -0.2803  0.6091
10082SOL    HW231921   0.892   4.437   8.956 -0.0211  4.7517  0.7148
10083SOL     OW31922   1.666   7.405   8.453  0.0199  0.3351 -0.8294
10083SOL    HW131923   1.708   7.370   8.375  1.1248  0.8873 -0.4926
10083SOL    HW231924   1.700   7.353   8.525 -0.8921 -0.0814 -0.6871
10084SOL     OW31925   6.887   2.078   1.313  0.3336 -0.4364 -0.2431
10084SOL    HW131926   6.861   2.069   1.405  2.5603 -0.0578  0.4893
10084SOL    HW231927   6.838   2.155   1.282 -1.3852 -1.2925  0.2071
10085SOL     OW31928   4.776   1.335   2.170  0.4393  1.1424  0.2771
10085SOL    HW131929   4.862   1.319   2.132  1.1703  2.2621  1.3920
10085SOL    HW231930   4.768   1.267   2.237  0.6330  1.2763  0.4388
10086SOL     OW31931   6.884   0.362   9.587  0.7934 -0.3535 -0.2477
10086SOL    HW131932   6.820   0.396   9.648  0.9996  0.8643 -0.6873
10086SOL    HW231933   6.887   0.426   9.516  1.8886 -0.8046 -0.6357
10087SOL     OW31934   7.282   6.207   3.779  0.1051 -0.2221  0.0239
10087SOL    HW131935   7.259   6.238   3.692  0.8692  0.5789  0.0986
10087SOL    HW231936   7.338   6.130   3.763  2.1819  1.2611 -0.2772
10088SOL     OW31937   7.472   8.650   7.384 -0.6658 -0.5581  0.5735
10088SOL    HW131938   7.412   8.575   7.390 -0.9394 -0.5597 -1.4210
10088SOL    HW231939   7.415   8.725   7.366 -0.2525 -0.1625  0.8954
10089SOL     OW31940   1.495   9.669   0.037 -0.8718 -0.3674 -0.5315
10089SOL    HW131941   1.441   9.746   0.021 -1.3462 -1.0521 -2.5391
10089SOL    HW231942   1.557   9.667  -0.035  0.5368 -0.7359  0.6350
10090SOL     OW31943   5.731   2.345   3.313 -0.3455  0.0099 -0.5573
10090SOL    HW131944   5.785   2.398   3.255  0.8106 -0.5839 -0.0411
10090SOL    HW231945   5.774   2.260   3.315 -1.0508 -0.3398  0.2251
10091SOL     OW31946   6.393   8.005   2.515 -0.1741  0.2754  0.1892
10091SOL    HW131947   6.397   7.912   2.491 -1.2557 -0.1953  1.6696
10091SOL    HW231948   6.484   8.029   2.532  0.0240 -0.8319  0.8401
10092SOL     OW31949   5.105   8.743   4.765  0.5487  0.4960  0.5284
10092SOL    HW131950   5.079   8.742   4.672 -1.9413 -2.2111  1.1001
10092SOL    HW231951   5.031   8.784   4.809  0.8297  0.0042  1.4772
10093SOL     OW31952   6.913   1.694   3.757 -0.5384  0.0322 -0.0006
10093SOL    HW131953   6.889   1.602   3.748 -0.7118  0.0632  0.1278
10093SOL    HW231954   6.833   1.737   3.787  0.0423 -0.1178  1.9213
10094SOL     OW31955   6.129   0.967   3.130  0.2167  0.1723 -0.3169
10094SOL    HW131956   6.211   0.938   3.172  0.5049  1.2212 -0.1297
10094SOL    HW231957   6.093   1.031   3.191 -0.6371 -0.1158 -0.5109
10095SOL     OW31958   8.711   3.777   8.485  0.2216 -0.6433  0.2328
10095SOL    HW131959   8.705   3.841   8.556 -1.1448 -1.0038  0.4864
10095SOL    HW231960   8.689   3.827   8.406 -1.2301 -0.8349  0.4788
10096SOL     OW31961   1.093   1.452   2.361  0.2432 -0.0813 -0.4450
10096SOL    HW131962   1.184   1.473   2.342 -0.1049  0.1236 -2.0004
10096SOL    HW231963   1.051   1.447   2.275 -0.7743 -2.2476  0.1126
10097SOL     OW31964   7.832   7.491   4.106 -0.6944  0.2992  0.4839
10097SOL    HW131965   7.792   7.409   4.080  0.5961 -0.9757  2.2459
10097SOL    HW231966   7.919   7.490   4.065 -1.3810  1.7825 -1.1359
10098SOL     OW31967   3.753   4.648   1.550  0.3050  0.3009 -0.2546
10098SOL    HW131968   3.761   4.658   1.645 -1.0045  3.1175 -0.3496
10098SOL    HW231969   3.788   4.561   1.532 -0.5021 -0.7904  2.9293
10099SOL     OW31970   9.654   2.623   7.030 -0.0800 -0.0595  0.1865
10099SOL    HW131971   9.735   2.668   7.055  0.5119 -0.7117 -0.4792
10099SOL    HW231972   9.586   2.689   7.037  0.1747  0.0361  2.6314
10100SOL     OW31973   6.759   6.705   0.451  0.1175 -0.5012 -0.0665
10100SOL    HW131974   6.766   6.797   0.475 -0.4282 -0.6509  0.7217
10100SOL    HW231975   6.687   6.672   0.505  0.6691 -1.5205  0.0655
10101SOL     OW31976   5.892   7.126   3.318  0.2048 -0.5816  0.0478
10101SOL    HW131977   5.915   7.219   3.312  0.4256 -0.6149  0.3410
10101SOL    HW231978   5.797   7.124   3.316  0.2162 -0.4249 -1.0628
10102SOL     OW31979   5.281   6.795   6.466  0.2847  0.4783 -0.2975
10102SOL    HW131980   5.316   6.853   6.534 -2.7307  1.8017  0.2658
10102SOL    HW231981   5.305   6.837   6.384  0.0564  1.3089  0.0525
10103SOL     OW31982   8.698   4.403   9.550 -0.4616 -0.9351  0.2123
10103SOL    HW131983   8.736   4.317   9.568  1.9082 -0.1481 -0.6080
10103SOL    HW231984   8.690   4.445   9.635 -0.3621 -1.4734  0.4902
10104SOL     OW31985   9.472   0.822   2.493  0.3607  0.8279  0.1654
10104SOL    HW131986   9.460   0.743   2.545  0.3289  0.2381 -0.7341
10104SOL    HW231987   9.546   0.867   2.536  0.5331  0.2036  0.5340
10105SOL     OW31988   6.162   2.313   4.828 -0.3305  0.0276  0.8877
10105SOL    HW131989   6.251   2.302   4.796 -0.7270 -1.9927  0.3063
10105SOL    HW231990   6.139   2.403   4.808  0.3045 -0.4147 -2.3923
10106SOL     OW31991   4.449   3.848   1.129 -0.1407 -0.1299  0.0516
10106SOL    HW131992   4.372   3.810   1.086  0.7278 -0.4278 -1.2834
10106SOL    HW231993   4.445   3.941   1.107 -0.5779  0.0130  0.7119
10107SOL     OW31994   1.650   0.650   9.427 -0.5222 -0.2808 -0.7711
10107SOL    HW131995   1.635   0.738   9.390  0.7802  0.0578 -0.5545
10107SOL    HW231996   1.743   0.634   9.412 -0.7472 -1.6391 -0.7988
10108SOL     OW31997   1.594   5.531   4.578  0.4603 -0.2854  0.0656
10108SOL    HW131998   1.683   5.521   4.543  0.5922 -0.5889  0.4789
10108SOL    HW231999   1.586   5.624   4.599  0.2485 -0.0235 -1.1117
10109SOL     OW32000   7.886   8.587   4.101 -0.0222  0.2912  0.1536
10109SOL    HW132001   7.860   8.596   4.193  0.5986  1.2743  0.2464
10109SOL    HW232002   7.966   8.639   4.093 -0.5917  1.0179 -1.1591
10110SOL     OW32003   2.707   3.832   6.984 -0.2403 -0.1600 -0.1449
10110SOL    HW132004   2.710   3.902   6.918 -2.7886 -1.4782 -1.8475
10110SOL    HW232005   2.635   3.858   7.042  0.6711 -0.0017  0.9316
10111SOL     OW32006   0.515   0.435   7.403 -0.0349  0.6052  0.5671
10111SOL    HW132007   0.460   0.422   7.326  1.0010 -0.8133  0.0102
10111SOL    HW232008   0.455   0.421   7.477 -0.1839 -2.5908 -0.0143
10112SOL     OW32009   1.867   1.306   4.118  0.1531 -0.2341  0.2334
10112SOL    HW132010   1.794   1.367   4.128  0.8174  0.6490 -0.1107
10112SOL    HW232011   1.944   1.356   4.146  0.8290 -0.6360 -0.8348
10113SOL     OW32012   3.367   1.016   0.076 -0.0015  0.2888 -0.2915
10113SOL    HW132013   3.278   1.021   0.110  0.1567 -1.9436  0.6316
10113SOL    HW232014   3.395   1.107   0.067 -1.8619  1.0121  0.7914
10114SOL     OW32015   6.857   3.388   6.182  0.8461 -0.1469 -0.1448
10114SOL    HW132016   6.952   3.394   6.180  0.8038  0.7854  0.0344
10114SOL    HW232017   6.831   3.379   6.090  1.1765 -2.2780 -0.0909
10115SOL     OW32018   8.562   1.896   9.667 -0.9337 -0.3681  0.6595
10115SOL    HW132019   8.535   1.977   9.624  0.2700 -0.1520  0.2612
10115SOL    HW232020   8.564   1.919   9.760  0.3177  0.3791  0.4789
10116SOL     OW32021   9.535   0.613   3.098  0.2579  0.4783 -0.0123
10116SOL    HW132022   9.542   0.619   3.003  0.0347  1.2757  0.0061
10116SOL    HW232023   9.449   0.575   3.114  1.1379 -1.6752 -0.1391
10117SOL     OW32024   6.647   1.756   6.621  0.1412  0.2087 -0.8074
10117SOL    HW132025   6.644   1.753   6.525  1.8951 -2.5240 -0.8893
10117SOL    HW232026   6.735   1.723   6.643 -0.5263 -0.0742  1.7554
10118SOL     OW32027   8.914   6.955   2.730 -0.0340  0.7367 -0.3059
10118SOL    HW132028   8.873   6.922   2.651 -0.3491 -0.7624  0.4455
10118SOL    HW232029   8.980   6.889   2.752  0.2388  1.2702  0.5274
10119SOL     OW32030   1.469   4.702   6.434  0.5556  0.2077 -0.4619
10119SOL    HW132031   1.532   4.773   6.443  0.7865 -0.1897  1.3230
10119SOL    HW232032   1.401   4.722   6.498 -0.1829 -0.3741 -1.0382
10120SOL     OW32033   3.782   4.798   5.718 -0.3164  0.5757  0.5545
10120SOL    HW132034   3.839   4.837   5.652 -0.8365  0.0983 -0.1970
10120SOL    HW232035   3.764   4.869   5.779 -1.1200  1.5004 -0.6959
10121SOL     OW32036   2.094   4.720   3.358 -0.6915  0.3802  0.3407
10121SOL    HW132037   2.099   4.652   3.291 -0.2158  2.3749 -1.7409
10121SOL    HW232038   2.010   4.763   3.343 -0.2228  1.3743  0.4864
10122SOL     OW32039   8.214   3.169   1.528  0.3238  0.2535  0.7078
10122SOL    HW132040   8.274   3.198   1.597  1.7204  0.0362 -0.3642
10122SOL    HW232041   8.233   3.228   1.454  1.4770 -1.7419 -0.6899
10123SOL     OW32042   6.998   3.734   8.712  0.2120  0.3786 -0.1627
10123SOL    HW132043   7.079   3.750   8.760 -0.8416  0.7507  1.5784
10123SOL    HW232044   7.025   3.679   8.638  1.7765 -1.0662  1.3757
10124SOL     OW32045   2.662   0.445   6.274  0.0945 -0.0176  0.4320
10124SOL    HW132046   2.612   0.367   6.249  0.7280 -0.3625  0.2209
10124SOL    HW232047   2.645   0.508   6.204  0.3883 -0.3247  0.0831
10125SOL     OW32048   3.190   3.443   9.352  0.0262  0.4695  0.0138
10125SOL    HW132049   3.272   3.482   9.381  0.3359  0.3073 -0.6161
10125SOL    HW232050   3.193   3.353   9.385 -0.6496  0.9287  1.3924
10126SOL     OW32051   0.732   9.629   3.769 -0.5645  0.4538  0.2221
10126SOL    HW132052   0.804   9.647   3.830 -0.2676 -0.2774  0.0959
10126SOL    HW232053   0.762   9.554   3.718 -1.3032  0.3189 -0.0255
10127SOL     OW32054   6.764   0.671   6.146  0.5279 -0.3333 -0.1721
10127SOL    HW132055   6.677   0.705   6.165  0.5276 -0.7931  0.7219
10127SOL    HW232056   6.817   0.749   6.130 -0.2640 -0.0928 -1.8125
10128SOL     OW32057   5.070   6.851   0.610  0.4149 -0.1257 -0.4006
10128SOL    HW132058   4.979   6.881   0.607 -0.4320 -2.1019  1.9315
10128SOL    HW232059   5.113   6.908   0.673  0.3466 -0.2523 -0.2403
10129SOL     OW32060   1.332   6.800   8.675  0.5714 -0.0102  0.3468
10129SOL    HW132061   1.272   6.765   8.608  1.7517 -1.2409 -0.1140
10129SOL    HW232062   1.414   6.814   8.628  0.5884  2.0066  0.8886
10130SOL     OW32063   8.695   3.898   9.413 -0.1522 -0.7891 -0.0497
10130SOL    HW132064   8.775   3.846   9.420  2.0321  2.3734  0.5284
10130SOL    HW232065   8.645   3.856   9.344  2.3417 -2.5103 -0.9401
10131SOL     OW32066   6.243   4.533   7.024 -0.2551  0.2543 -0.3026
10131SOL    HW132067   6.244   4.577   6.939  0.4699 -0.0438 -0.4544
10131SOL    HW232068   6.300   4.457   7.012  2.7790  2.0977  1.4316
10132SOL     OW32069   8.212   1.401   4.702  0.4194 -0.1956 -0.3394
10132SOL    HW132070   8.216   1.489   4.666  1.6667 -0.2961 -0.5144
10132SOL    HW232071   8.119   1.385   4.717  0.2012  1.2713  0.0185
10133SOL     OW32072   6.956   3.255   7.033  0.4175 -0.1933  0.2170
10133SOL    HW132073   6.912   3.340   7.038  0.7995  0.0358 -0.2197
10133SOL    HW232074   7.046   3.274   7.059  0.1625 -0.7542  1.6275
10134SOL     OW32075   6.930   6.670   4.411 -0.2663 -0.0666  0.0876
10134SOL    HW132076   6.861   6.625   4.362 -0.9940 -1.2239  2.0381
10134SOL    HW232077   6.897   6.672   4.501  1.4528  1.0147  0.7359
10135SOL     OW32078   0.386   3.955   5.783 -0.4156  0.2104 -0.0891
10135SOL    HW132079   0.402   3.869   5.746 -0.8452  0.6624 -1.3700
10135SOL    HW232080   0.396   3.943   5.878  1.2107 -0.8603 -0.3572
10136SOL     OW32081   5.293   7.048   2.083  0.1267  0.0501 -0.6372
10136SOL    HW132082   5.246   7.079   2.006  1.1853  1.2045 -0.8401
10136SOL    HW232083   5.242   6.972   2.113  0.2068 -1.0069 -2.9826
10137SOL     OW32084   8.427   6.342   2.357 -0.2957  0.0708  0.1100
10137SOL    HW132085   8.499   6.304   2.407  0.5742  1.9963  0.4151
10137SOL    HW232086   8.446   6.319   2.266  0.2933 -0.0930  0.2711
10138SOL     OW32087   7.038   6.191   3.092  0.0707  0.4446 -0.4912
10138SOL    HW132088   7.086   6.243   3.028  0.6441  0.0873 -0.3538
10138SOL    HW232089   7.092   6.113   3.106 -0.3347  0.2429 -0.0137
10139SOL     OW32090   7.377   7.475   3.294 -0.3015 -0.4213 -1.1376
10139SOL    HW132091   7.459   7.518   3.318 -0.1250 -0.4094 -1.7341
10139SOL    HW232092   7.404   7.397   3.245 -0.6464 -0.4578 -1.2751
10140SOL     OW32093   2.808   7.570   9.036  0.1111 -0.0663  0.1405
10140SOL    HW132094   2.715   7.592   9.042 -0.3403 -1.5871 -0.7566
10140SOL    HW232095   2.847   7.642   8.987 -0.9541 -0.2607 -1.0487
10141SOL     OW32096   3.572   9.093   4.008  0.2305 -0.0019  0.3516
10141SOL    HW132097   3.527   9.014   4.038 -1.0392  0.8102  0.6547
10141SOL    HW232098   3.534   9.110   3.921  0.8258  0.0257  0.0950
10142SOL     OW32099   3.724   7.528   5.885  0.2115 -0.2369 -0.4454
10142SOL    HW132100   3.683   7.502   5.803  1.5494  0.0246 -1.2360
10142SOL    HW232101   3.809   7.563   5.859  1.5299 -1.9978  1.1921
10143SOL     OW32102   7.776   2.888   2.093 -0.7070  0.0214 -0.2207
10143SOL    HW132103   7.754   2.900   2.001  1.1403  2.6504 -0.4134
10143SOL    HW232104   7.870   2.873   2.095 -0.7436 -0.2253  1.2120
10144SOL     OW32105   7.588   2.378   8.255 -0.3492  0.7899  0.0235
10144SOL    HW132106   7.559   2.454   8.306 -1.7630  0.8794 -0.8496
10144SOL    HW232107   7.516   2.362   8.194  0.6824 -0.1863 -0.9770
10145SOL     OW32108   8.216   8.639   5.791  0.5481 -0.1855 -0.2540
10145SOL    HW132109   8.240   8.726   5.761 -0.1869 -0.2427 -1.0309
10145SOL    HW232110   8.159   8.654   5.867  1.6221 -0.0265  0.5357
10146SOL     OW32111   1.501   5.582   9.170  0.1115 -0.6631  0.4656
10146SOL    HW132112   1.407   5.577   9.186 -0.2675  1.3041 -0.8313
10146SOL    HW232113   1.540   5.579   9.258 -1.2942  0.6266  1.1932
10147SOL     OW32114   3.833   9.306   2.667 -0.1493  0.1063  0.0460
10147SOL    HW132115   3.785   9.328   2.746 -0.0408  1.1121 -0.1547
10147SOL    HW232116   3.900   9.374   2.660  1.2316 -1.1813  0.2531
10148SOL     OW32117   4.681   1.779   5.166  0.1964  0.5085 -1.0508
10148SOL    HW132118   4.677   1.829   5.083 -1.3134  1.5742 -0.3829
10148SOL    HW232119   4.607   1.811   5.216 -0.2520 -1.7652 -0.1596
10149SOL     OW32120   3.850   4.735   6.895  0.4803 -0.3045 -0.2701
10149SOL    HW132121   3.929   4.789   6.890 -0.4597  1.0488 -1.8771
10149SOL    HW232122   3.879   4.652   6.932  2.3142  0.7422  0.7687
10150SOL     OW32123   9.363   3.673   4.211 -0.2251 -0.5534  0.1688
10150SOL    HW132124   9.448   3.668   4.254  0.2049 -0.7611 -0.6752
10150SOL    HW232125   9.383   3.704   4.122 -1.2174  1.0464  0.4729
10151SOL     OW32126   4.169   5.581   0.750  0.2874  0.2558  0.2904
10151SOL    HW132127   4.096   5.639   0.729 -2.5654 -2.9943  0.3957
10151SOL    HW232128   4.218   5.573   0.668 -0.4176  1.2476 -0.2510
10152SOL     OW32129   0.639   3.697   9.584  0.0669 -0.5948  0.2485
10152SOL    HW132130   0.582   3.770   9.558  0.1290  0.2284  2.2465
10152SOL    HW232131   0.728   3.728   9.565  0.0221 -0.6486 -0.0489
10153SOL     OW32132   2.788   0.574   2.202  0.4911  0.4944 -0.2452
10153SOL    HW132133   2.746   0.620   2.275  1.6084  0.3096  0.5309
10153SOL    HW232134   2.780   0.635   2.128 -1.7845  0.1627 -0.3535
10154SOL     OW32135   6.834   4.397   0.712  0.7234  0.1706  0.1735
10154SOL    HW132136   6.813   4.393   0.619  1.3077 -0.4168  0.0580
10154SOL    HW232137   6.929   4.406   0.715  0.7503 -0.2415  0.7174
10155SOL     OW32138   5.460   4.898   3.462  0.4963  0.6137 -0.0509
10155SOL    HW132139   5.490   4.820   3.415  2.4222 -0.1259  2.1867
10155SOL    HW232140   5.459   4.967   3.396 -0.7627 -1.1453 -1.9890
10156SOL     OW32141   0.015   4.083   3.102  0.4781 -0.0115 -0.1894
10156SOL    HW132142  -0.047   4.134   3.049  0.3838 -0.4807 -0.5316
10156SOL    HW232143  -0.037   4.055   3.177 -0.5212 -2.6143 -1.7133
10157SOL     OW32144   3.710   9.297   9.661 -0.3560 -0.1567 -0.2741
10157SOL    HW132145   3.734   9.358   9.731  1.8613 -0.3317 -0.7893
10157SOL    HW232146   3.766   9.322   9.587 -1.4030 -1.0598 -1.4229
10158SOL     OW32147   4.521   3.956   0.700  0.4792  0.0986 -0.2903
10158SOL    HW132148   4.566   3.874   0.676  0.0544 -0.4208  0.6336
10158SOL    HW232149   4.435   3.928   0.731  1.3162  0.5745  2.7786
10159SOL     OW32150   2.325   3.678   7.200  0.0462  0.3312  0.2166
10159SOL    HW132151   2.360   3.766   7.209  1.3997 -0.1894  0.3405
10159SOL    HW232152   2.309   3.650   7.291  1.5765 -0.2699  0.3369
10160SOL     OW32153   8.422   4.391   2.623  0.0888  0.3702 -0.0334
10160SOL    HW132154   8.367   4.431   2.690  0.1312  0.2667  0.0626
10160SOL    HW232155   8.374   4.313   2.596 -0.1171  0.6154 -0.3998
10161SOL     OW32156   0.884   5.962   6.647 -0.3432  0.1005  0.4460
10161SOL    HW132157   0.825   6.024   6.603  1.7143  2.5055  0.8663
10161SOL    HW232158   0.950   5.942   6.581  0.3890  0.3673  1.0841
10162SOL     OW32159   9.524   2.848   6.297  0.0170  0.2542 -0.0893
10162SOL    HW132160   9.456   2.781   6.298 -0.1197  0.3716 -0.8047
10162SOL    HW232161   9.605   2.801   6.276 -0.1555  0.3724 -1.0416
10163SOL     OW32162   1.490   3.661   6.674  0.0569 -0.6444 -0.0632
10163SOL    HW132163   1.552   3.593   6.649  1.3992  0.9018 -1.1207
10163SOL    HW232164   1.462   3.700   6.591 -0.8009  0.0139  0.5105
10164SOL     OW32165   9.354   1.443   2.596  0.2335  0.5398 -0.2753
10164SOL    HW132166   9.308   1.505   2.539 -0.6237 -1.7027 -2.1863
10164SOL    HW232167   9.353   1.485   2.682 -0.1678  3.2039 -1.4672
10165SOL     OW32168   2.764   4.063   8.704  0.1422  0.0916  0.7533
10165SOL    HW132169   2.841   4.114   8.679 -0.3288  1.0208  1.1322
10165SOL    HW232170   2.784   3.973   8.677  1.1282  0.4176  0.3663
10166SOL     OW32171   7.626   9.298   7.560  0.3677 -0.2016 -0.6535
10166SOL    HW132172   7.622   9.321   7.653 -2.5387 -0.2247 -0.6844
10166SOL    HW232173   7.579   9.369   7.516 -0.5142 -1.4697 -1.8108
10167SOL     OW32174   5.313   1.378   5.365 -0.1314 -0.0920 -0.3370
10167SOL    HW132175   5.338   1.463   5.401  0.2608 -0.3040 -0.0974
10167SOL    HW232176   5.336   1.383   5.272  0.4773 -0.1507 -0.1962
10168SOL     OW32177   2.168   7.909   4.626  0.3861 -0.1690  0.2311
10168SOL    HW132178   2.224   7.851   4.574 -1.0033 -0.6972 -0.7222
10168SOL    HW232179   2.103   7.851   4.666  0.1317  0.5093  0.8260
10169SOL     OW32180   1.564   2.893   8.044 -0.7437  0.0006  0.1388
10169SOL    HW132181   1.643   2.918   7.996  0.0120 -0.9838  0.8164
10169SOL    HW232182   1.516   2.836   7.984 -2.2366  2.5055 -1.2295
10170SOL     OW32183   8.278   1.770   2.336  0.0727  0.0350  0.2785
10170SOL    HW132184   8.244   1.754   2.248  1.0998  0.1325 -0.1625
10170SOL    HW232185   8.330   1.851   2.327  0.9433 -0.4549  0.7455
10171SOL     OW32186   7.293   5.387   6.180 -0.2081 -0.6992 -0.3978
10171SOL    HW132187   7.371   5.336   6.203 -0.6488 -1.0741  0.2993
10171SOL    HW232188   7.221   5.325   6.188 -0.8793  0.2144  1.3911
10172SOL     OW32189   7.075   8.949   9.195 -0.3083 -0.2309  0.5193
10172SOL    HW132190   6.981   8.948   9.212 -0.4491  1.1071 -0.0648
10172SOL    HW232191   7.105   8.863   9.225 -1.8112 -0.9263  0.1653
10173SOL     OW32192   3.931   1.659   5.793  0.2167 -0.1714  0.1744
10173SOL    HW132193   4.005   1.719   5.804 -0.9438  1.5747 -1.0582
10173SOL    HW232194   3.970   1.580   5.754  1.5106  0.5121  0.0219
10174SOL     OW32195   6.644   6.745   2.066 -0.7043 -0.0092  0.1180
10174SOL    HW132196   6.635   6.800   1.988 -0.4930 -0.0026  0.0997
10174SOL    HW232197   6.555   6.712   2.082 -0.2909 -2.1546 -1.6631
10175SOL     OW32198   8.011   7.674   4.693 -0.2681 -0.1455  0.0402
10175SOL    HW132199   8.002   7.668   4.598  0.8315  0.1260 -0.0976
10175SOL    HW232200   7.969   7.757   4.716  0.1162  0.1503 -0.3085
10176SOL     OW32201   8.189   4.353   7.525  0.0199  0.2100  0.3879
10176SOL    HW132202   8.186   4.439   7.565  0.4596  0.8083 -0.8317
10176SOL    HW232203   8.192   4.292   7.599  0.3801  1.2561  1.2497
10177SOL     OW32204   6.683   4.386   8.292 -0.2152  0.3275 -0.0145
10177SOL    HW132205   6.712   4.295   8.294 -0.6130  0.1869 -0.5397
10177SOL    HW232206   6.621   4.393   8.365  2.3300  1.0738  2.2733
10178SOL     OW32207   5.530   3.191   7.642  0.6364 -0.0820 -0.5018
10178SOL    HW132208   5.576   3.215   7.562  1.6664  1.1021  0.4105
10178SOL    HW232209   5.599   3.177   7.707 -0.1253 -1.9940 -0.0408
10179SOL     OW32210   3.521   8.764   3.609  0.2270  0.2374  0.5590
10179SOL    HW132211   3.512   8.848   3.563  4.2629 -0.3189 -1.7514
10179SOL    HW232212   3.496   8.699   3.544  3.0986 -0.4643  0.0387
10180SOL     OW32213   7.865   0.033   3.114  0.4504 -0.0429 -0.0438
10180SOL    HW132214   7.957   0.008   3.121  0.5886  0.0013 -1.4470
10180SOL    HW232215   7.850   0.089   3.191  1.1590 -1.2765  1.0301
10181SOL     OW32216   8.796   4.400   1.874  0.1137 -0.1252  0.0875
10181SOL    HW132217   8.754   4.486   1.873  0.4511  0.1039  2.0627
10181SOL    HW232218   8.754   4.353   1.946  0.1071 -1.5483 -0.8046
10182SOL     OW32219   3.372   0.302   5.850 -0.4709  0.3945  0.2845
10182SOL    HW132220   3.417   0.245   5.913  0.3599  1.0841  0.3287
10182SOL    HW232221   3.325   0.242   5.793  1.4735 -0.4305 -0.5055
10183SOL     OW32222   7.421   4.161   3.714 -0.3934 -0.3839  0.2459
10183SOL    HW132223   7.353   4.214   3.673  0.4343  0.2276 -0.3600
10183SOL    HW232224   7.458   4.218   3.782  0.6091 -0.1154 -0.5148
10184SOL     OW32225   3.773   8.428   9.323  0.6967  0.1794 -0.1409
10184SOL    HW132226   3.812   8.479   9.394  0.6230  0.1609 -0.0881
10184SOL    HW232227   3.846   8.410   9.264  0.6622  0.6426 -0.3338
10185SOL     OW32228   3.677   5.094   6.147  0.3054 -0.1739  0.4812
10185SOL    HW132229   3.614   5.163   6.166 -0.2019 -1.1188  2.4108
10185SOL    HW232230   3.760   5.127   6.181  0.2523 -0.1383  0.5754
10186SOL     OW32231   2.019   5.019   2.937 -0.0959  0.0743 -0.1967
10186SOL    HW132232   2.007   4.940   2.990  1.6462  0.9294  1.6327
10186SOL    HW232233   2.042   5.087   3.001  1.1511  1.4185 -1.9651
10187SOL     OW32234   1.470   7.629   7.454  0.5070  0.2204  0.2626
10187SOL    HW132235   1.455   7.609   7.546 -2.5009  3.1044  0.6205
10187SOL    HW232236   1.537   7.697   7.455  1.6470 -0.8699  0.1218
10188SOL     OW32237   3.976   0.814   4.328  0.3438 -0.1833  0.5770
10188SOL    HW132238   4.038   0.887   4.339  1.2402 -0.6052 -1.3218
10188SOL    HW232239   3.949   0.818   4.237  1.8979 -3.3147 -0.1513
10189SOL     OW32240   8.372   3.267   6.629 -0.1010 -0.3565  0.2011
10189SOL    HW132241   8.301   3.248   6.567 -0.4591  0.0142  0.4928
10189SOL    HW232242   8.443   3.302   6.575 -0.0636 -0.9175 -0.1185
10190SOL     OW32243   4.550   1.993   6.882  0.1419 -0.0424  0.2761
10190SOL    HW132244   4.458   1.976   6.901  0.2855 -1.7865 -0.4643
10190SOL    HW232245   4.560   1.975   6.789  1.2482  0.1049  0.3467
10191SOL     OW32246   5.555   3.975   4.062  0.3059 -0.2110  0.2937
10191SOL    HW132247   5.513   3.913   4.002 -0.3811 -0.2707  0.8245
10191SOL    HW232248   5.645   3.983   4.029  0.2020 -0.9460 -0.1941
10192SOL     OW32249   5.721   0.177   7.894  0.1164 -1.2163 -0.5221
10192SOL    HW132250   5.785   0.176   7.965  0.2833 -1.1246 -0.6670
10192SOL    HW232251   5.773   0.198   7.816 -0.4796  1.9620 -0.2256
10193SOL     OW32252   7.988   3.796   1.266  0.4677 -0.7208  0.0402
10193SOL    HW132253   7.929   3.749   1.207  2.1117 -0.3646 -2.0162
10193SOL    HW232254   7.969   3.889   1.250  0.0066 -0.6046  1.1287
10194SOL     OW32255   2.290   1.104   0.330  0.2331  0.2061 -0.5725
10194SOL    HW132256   2.221   1.040   0.315 -0.9577  1.4099 -0.3953
10194SOL    HW232257   2.245   1.189   0.329  2.1297  1.3281 -3.5047
10195SOL     OW32258   8.586   4.996   8.891 -0.6408  0.2328  0.3611
10195SOL    HW132259   8.564   4.967   8.803 -0.8567 -2.1512  1.1358
10195SOL    HW232260   8.574   5.091   8.889  0.5161  0.4050 -2.4674
10196SOL     OW32261   5.751   9.437   9.379  0.5973  0.5395  0.0724
10196SOL    HW132262   5.780   9.496   9.310  0.9501 -1.0461 -1.2071
10196SOL    HW232263   5.659   9.419   9.358  1.2531 -1.5714 -1.2820
10197SOL     OW32264   3.860   5.951   8.185  0.4249  0.1351  0.1541
10197SOL    HW132265   3.800   5.981   8.116 -0.3687 -0.2524  0.6627
10197SOL    HW232266   3.917   6.026   8.201  0.6559  0.2233 -0.9467
10198SOL     OW32267   0.171   9.502   4.688  0.6261 -0.2263  0.1303
10198SOL    HW132268   0.215   9.582   4.717 -0.6735  0.8506 -0.7415
10198SOL    HW232269   0.218   9.475   4.609  0.6807  0.0379  0.0727
10199SOL     OW32270   0.618   8.432   6.036 -0.0391  0.3454 -1.1632
10199SOL    HW132271   0.604   8.418   6.130 -0.8548  0.2168 -1.3017
10199SOL    HW232272   0.628   8.345   5.999  1.0150  0.4200 -1.1002
10200SOL     OW32273   0.604   4.933   3.757  0.1715  0.6722  0.1971
10200SOL    HW132274   0.688   4.888   3.767  1.2934  2.5210 -0.3453
10200SOL    HW232275   0.539   4.863   3.751  1.8125 -0.8546 -0.5937
10201SOL     OW32276   6.313   3.751   6.109 -0.1860 -0.6140 -0.7100
10201SOL    HW132277   6.229   3.731   6.150  0.3980 -0.2466  0.7405
10201SOL    HW232278   6.378   3.710   6.166  0.9527  3.3637  1.2604
10202SOL     OW32279   3.923   5.058   9.369 -0.6381 -0.3018 -0.6173
10202SOL    HW132280   3.856   5.085   9.432 -1.5915 -0.6828 -1.4384
10202SOL    HW232281   3.931   5.131   9.309  0.0307 -0.0720 -0.2544
10203SOL     OW32282   4.091   9.638   4.339  0.1623  0.3957  0.3895
10203SOL    HW132283   4.000   9.629   4.311  0.2891  0.6889 -0.1287
10203SOL    HW232284   4.088   9.703   4.409  0.4331  3.4461 -2.2467
10204SOL     OW32285   3.236   8.296   8.526 -0.1109  0.0329 -0.4238
10204SOL    HW132286   3.248   8.223   8.466  1.3557 -0.9795  1.0175
10204SOL    HW232287   3.147   8.327   8.509 -0.7228 -1.9830 -1.1810
10205SOL     OW32288   4.435   1.132   0.550  0.0201  0.1834  0.0555
10205SOL    HW132289   4.419   1.041   0.525 -0.3356  0.3343 -0.2707
10205SOL    HW232290   4.393   1.142   0.636  0.3513 -0.0495  0.2482
10206SOL     OW32291   9.469   5.777   1.517 -0.0043 -0.3057  0.4819
10206SOL    HW132292   9.443   5.800   1.428  1.9079 -2.1405 -0.6388
10206SOL    HW232293   9.392   5.735   1.555 -1.0831  1.1498 -0.0103
10207SOL     OW32294   2.206   5.214   2.488  0.1477 -0.4630 -0.0633
10207SOL    HW132295   2.114   5.188   2.476 -0.3107  1.0716 -0.1529
10207SOL    HW232296   2.203   5.280   2.557  1.0432  0.3675 -0.7901
10208SOL     OW32297   3.347   5.404   2.282 -0.4790  0.0807 -0.2917
10208SOL    HW132298   3.408   5.332   2.268  0.6864  1.2535 -1.7429
10208SOL    HW232299   3.375   5.444   2.364  0.3730  0.2474 -0.6489
10209SOL     OW32300   8.663   7.450   4.276  0.6305 -0.0622  0.3184
10209SOL    HW132301   8.618   7.386   4.221  1.7576  0.1090 -0.8528
10209SOL    HW232302   8.643   7.535   4.236 -0.1675  0.2571  1.3663
10210SOL     OW32303   8.429   3.705   5.267 -0.2771  0.4761  0.4566
10210SOL    HW132304   8.475   3.716   5.350 -0.4273 -2.6449  1.0721
10210SOL    HW232305   8.354   3.764   5.273  0.7615  1.7196  1.6948
10211SOL     OW32306   8.766   3.402   2.140 -0.0822 -0.5174  0.1846
10211SOL    HW132307   8.703   3.441   2.201 -1.2922 -0.1483 -1.2253
10211SOL    HW232308   8.823   3.348   2.194  0.0476  1.2155  1.8636
10212SOL     OW32309   1.040   6.634   2.727 -0.2658 -0.6219 -0.3335
10212SOL    HW132310   1.017   6.550   2.768  0.7189 -1.3165 -1.1435
10212SOL    HW232311   0.998   6.630   2.641 -1.7767  0.5477  0.3045
10213SOL     OW32312   8.859   0.385   4.618 -0.1963  0.3383  0.0817
10213SOL    HW132313   8.913   0.308   4.634  0.5466  1.0217  0.9913
10213SOL    HW232314   8.769   0.354   4.630  0.1161 -0.2610  1.0160
10214SOL     OW32315   4.352   8.772   6.482 -0.3411  0.5966  0.2856
10214SOL    HW132316   4.430   8.781   6.537  1.3916 -0.9705 -1.7917
10214SOL    HW232317   4.286   8.734   6.541  1.9522 -2.6850  0.9821
10215SOL     OW32318   9.214   3.693   1.253 -0.1398  0.0107  0.0809
10215SOL    HW132319   9.164   3.612   1.256 -0.1789  0.0323  0.0255
10215SOL    HW232320   9.274   3.687   1.327 -1.0008  0.4959  0.8364
10216SOL     OW32321   6.198   1.853   6.125  0.5720 -0.1752 -0.3131
10216SOL    HW132322   6.266   1.792   6.155  0.1718 -0.1187  0.7401
10216SOL    HW232323   6.243   1.938   6.121  0.5810 -0.1489  0.3178
10217SOL     OW32324   1.287   2.300   0.507 -0.3908 -0.3786 -0.2719
10217SOL    HW132325   1.197   2.333   0.505 -0.3605 -0.2858 -1.8342
10217SOL    HW232326   1.305   2.274   0.416  0.5978 -1.9633  0.3330
10218SOL     OW32327   2.865   7.372   8.861  0.1607 -0.8330  0.0109
10218SOL    HW132328   2.850   7.306   8.929 -0.6327  0.0468  0.7126
10218SOL    HW232329   2.847   7.455   8.904  2.4934 -0.0260 -0.4544
10219SOL     OW32330   5.500   9.378   8.915  0.4846 -0.0538  0.2620
10219SOL    HW132331   5.559   9.449   8.939  0.0767 -0.0027  1.1244
10219SOL    HW232332   5.496   9.322   8.992 -0.2603 -0.2911  0.0581
10220SOL     OW32333   6.456   1.563   5.610  0.2892 -0.5700  0.1345
10220SOL    HW132334   6.417   1.582   5.525  0.9740 -4.5724 -1.3288
10220SOL    HW232335   6.419   1.478   5.635  1.1761 -0.1802  3.1920
10221SOL     OW32336   8.047   4.476   4.102  0.3113  0.1856 -0.0762
10221SOL    HW132337   8.103   4.474   4.181  1.2348  2.0338 -0.6289
10221SOL    HW232338   7.999   4.394   4.106  0.5103  0.0940  2.2903
10222SOL     OW32339   7.583   4.996   3.107  0.3754  0.0237  0.2789
10222SOL    HW132340   7.602   4.987   3.200 -1.6833 -1.1136  0.6379
10222SOL    HW232341   7.636   5.071   3.079  2.8164 -1.0010  1.8079
10223SOL     OW32342   6.432   2.239   4.838  0.0012  0.2741 -0.2833
10223SOL    HW132343   6.412   2.290   4.917 -0.0271  0.6163 -0.5133
10223SOL    HW232344   6.498   2.291   4.792  0.4811 -0.2255 -0.1737
10224SOL     OW32345   2.969   8.412   6.942  0.2047  0.0396  0.0387
10224SOL    HW132346   3.036   8.385   6.879  1.3682 -1.0506  1.6618
10224SOL    HW232347   2.900   8.347   6.932 -0.0145  0.3719 -0.6858
10225SOL     OW32348   6.824   7.086   3.336 -0.1590  0.3131  0.2221
10225SOL    HW132349   6.778   7.008   3.305 -1.5249  1.0752  0.2402
10225SOL    HW232350   6.908   7.054   3.367 -1.4034 -1.4816  2.0252
10226SOL     OW32351   5.045   6.229   5.923  0.0537  0.0900  0.2504
10226SOL    HW132352   5.093   6.148   5.905  2.1936  1.2403  0.5363
10226SOL    HW232353   5.041   6.273   5.838 -1.1007 -0.2678  0.0980
10227SOL     OW32354   0.271   3.226   7.753 -0.0143  0.6441  0.1684
10227SOL    HW132355   0.298   3.317   7.736 -0.2633  0.6408 -0.2560
10227SOL    HW232356   0.207   3.207   7.685 -0.0473  0.1832  0.3253
10228SOL     OW32357   4.042   8.739   8.065 -0.2061 -0.2594 -0.0249
10228SOL    HW132358   4.116   8.684   8.037 -0.4677  0.4475 -2.2986
10228SOL    HW232359   3.970   8.677   8.079  0.0878 -0.7102 -0.4589
10229SOL     OW32360   7.947   1.560   2.768  0.0132  0.1592  0.2056
10229SOL    HW132361   7.912   1.638   2.812  1.6672  0.6893  0.6825
10229SOL    HW232362   8.017   1.594   2.711  0.9052 -0.9742  0.5777
10230SOL     OW32363   7.165   4.605   1.170  0.3422 -0.3117  0.3403
10230SOL    HW132364   7.220   4.644   1.238  0.4735 -0.2601  0.2037
10230SOL    HW232365   7.220   4.601   1.093 -1.1930  4.3038 -1.3137
10231SOL     OW32366   5.110   3.253   7.473 -0.2394 -0.3965  0.1769
10231SOL    HW132367   5.074   3.165   7.469  0.4450 -0.7233  0.9652
10231SOL    HW232368   5.182   3.247   7.536 -0.3784  0.7909  0.4773
10232SOL     OW32369   9.225   8.772   0.279  0.4100 -0.2553 -0.0707
10232SOL    HW132370   9.181   8.804   0.200  0.5283  0.7862  0.2754
10232SOL    HW232371   9.317   8.765   0.253  0.2967 -0.9159 -0.3228
10233SOL     OW32372   3.727   9.321   5.852  0.2792  0.2931 -0.7415
10233SOL    HW132373   3.685   9.374   5.920  1.8873  1.0563 -0.2866
10233SOL    HW232374   3.686   9.235   5.860  2.3209 -0.5431  3.2214
10234SOL     OW32375   8.102   2.138   4.017  0.4604 -0.0202  0.1133
10234SOL    HW132376   8.140   2.182   4.093  1.9744 -1.6813  0.3783
10234SOL    HW232377   8.132   2.048   4.024  2.2308  0.1294 -3.4111
10235SOL     OW32378   8.906   3.659   5.339  0.0923  0.5625 -0.0952
10235SOL    HW132379   8.853   3.737   5.322 -1.2892 -0.3668 -0.2412
10235SOL    HW232380   8.954   3.645   5.257 -2.4184 -0.7686 -1.4689
10236SOL     OW32381   9.437   9.425   0.768 -0.0817 -0.0673 -0.7798
10236SOL    HW132382   9.506   9.476   0.812 -1.7918  2.1378 -0.4939
10236SOL    HW232383   9.416   9.477   0.690 -0.8570 -1.1537 -1.3088
10237SOL     OW32384   3.708   0.225   5.022  0.2901  0.2334  0.1242
10237SOL    HW132385   3.746   0.153   4.970 -1.5700 -0.1975 -0.7051
10237SOL    HW232386   3.664   0.281   4.957 -1.8732 -0.1621  1.1689
10238SOL     OW32387   7.593   6.063   6.390  0.4156 -0.2814 -0.3443
10238SOL    HW132388   7.634   6.039   6.473 -0.6432  1.6407  0.8113
10238SOL    HW232389   7.532   5.992   6.371 -1.4426  0.5404  2.0915
10239SOL     OW32390   7.504   3.452   6.178  0.2436  0.5125  0.2412
10239SOL    HW132391   7.479   3.466   6.086 -1.0998  0.8977  0.6430
10239SOL    HW232392   7.457   3.519   6.226  1.2956  0.5998  1.1821
10240SOL     OW32393   0.537   1.478   1.223  0.1255 -0.1544  0.0027
10240SOL    HW132394   0.499   1.529   1.294 -0.6865 -0.4055 -0.2422
10240SOL    HW232395   0.611   1.531   1.192  1.0444 -0.4580  1.5973
10241SOL     OW32396   8.414   9.384   4.401 -0.2020 -0.0624 -0.5426
10241SOL    HW132397   8.496   9.432   4.400 -0.1306 -0.1850 -0.7522
10241SOL    HW232398   8.432   9.305   4.349 -0.3130 -0.3161 -0.2009
10242SOL     OW32399   8.899   7.814   4.103 -0.5865 -0.4284  0.5561
10242SOL    HW132400   8.858   7.805   4.189 -0.7456  1.3475  0.7042
10242SOL    HW232401   8.987   7.845   4.122  0.0474 -1.8667  0.1275
10243SOL     OW32402   2.041   7.789   0.728  0.0489 -0.4678 -0.1400
10243SOL    HW132403   2.110   7.776   0.662  0.0033 -0.6147 -0.1573
10243SOL    HW232404   2.045   7.883   0.747  0.9548 -0.6403  0.6299
10244SOL     OW32405   2.339   1.349   8.909  0.3941  0.2467  0.3955
10244SOL    HW132406   2.343   1.295   8.988 -0.7281 -1.0876 -0.4163
10244SOL    HW232407   2.279   1.303   8.851  3.2249 -0.3343 -2.3906
10245SOL     OW32408   5.671   0.148   8.515  0.0662  0.4415  0.2681
10245SOL    HW132409   5.708   0.236   8.519 -0.9121  0.8149  2.0046
10245SOL    HW232410   5.708   0.102   8.590 -0.6102 -0.1383  0.2598
10246SOL     OW32411   4.311   8.245   7.948  0.1043  0.1244  0.0126
10246SOL    HW132412   4.405   8.262   7.941  0.0315  0.0353 -1.4533
10246SOL    HW232413   4.278   8.252   7.858 -0.9713 -1.7543  0.2100
10247SOL     OW32414   0.578   5.847   5.958  0.1806 -0.0498  0.0670
10247SOL    HW132415   0.493   5.834   5.914 -0.3995 -0.9841  1.4105
10247SOL    HW232416   0.596   5.764   6.000  0.9817  0.6458  1.1423
10248SOL     OW32417   4.760   1.574   6.878  0.0127  0.3608 -0.1275
10248SOL    HW132418   4.812   1.505   6.918 -1.3421 -0.6765 -0.0643
10248SOL    HW232419   4.720   1.532   6.801 -1.1263  0.9412  0.1257
10249SOL     OW32420   6.207   8.369   1.936 -0.1727 -0.5848 -0.2713
10249SOL    HW132421   6.174   8.405   1.854 -0.6327 -0.1729  0.0894
10249SOL    HW232422   6.290   8.414   1.951  0.0807 -0.9081 -0.6803
10250SOL     OW32423   5.384   0.501   5.021  0.5332 -0.3847  0.6402
10250SOL    HW132424   5.472   0.489   5.058  0.6033 -1.1887  0.2414
10250SOL    HW232425   5.375   0.595   5.010  1.2875 -0.2805  0.8367
10251SOL     OW32426   4.069   7.329   6.474  0.0619  0.2493  0.4560
10251SOL    HW132427   4.032   7.371   6.396  0.0898  0.4465  0.5489
10251SOL    HW232428   4.142   7.386   6.500 -1.1224  1.2448  1.7583
10252SOL     OW32429   2.560   6.460   6.624 -0.2708 -0.0245  0.4310
10252SOL    HW132430   2.632   6.490   6.568 -0.3286 -0.1194  0.3062
10252SOL    HW232431   2.580   6.497   6.710  0.2920 -0.6234  0.5610
10253SOL     OW32432   4.525   0.545   8.202  0.0475 -0.5836  0.0256
10253SOL    HW132433   4.519   0.541   8.297 -1.1360 -1.3934 -0.0644
10253SOL    HW232434   4.503   0.636   8.181  1.6598 -0.0364  0.5839
10254SOL     OW32435   6.588   2.570   0.253  0.3015  0.0144  0.5397
10254SOL    HW132436   6.535   2.491   0.261 -1.7243  1.2874  0.4367
10254SOL    HW232437   6.605   2.578   0.159  0.9972 -0.5536  0.6023
10255SOL     OW32438   2.254   8.005   3.964 -0.6271  0.0146 -0.2311
10255SOL    HW132439   2.231   8.055   3.886 -1.3936 -0.0491 -0.0514
10255SOL    HW232440   2.319   7.942   3.934 -0.7201  0.1695 -0.7581
10256SOL     OW32441   6.251   4.606   6.773  0.2763 -0.1373 -0.2182
10256SOL    HW132442   6.279   4.690   6.736  0.4186  0.5640  1.3612
10256SOL    HW232443   6.177   4.579   6.720  0.0084  1.1812 -0.5432
10257SOL     OW32444   9.244   4.951   3.843  0.2901  0.4616  0.4240
10257SOL    HW132445   9.210   4.927   3.757 -0.9877  0.1470  0.9878
10257SOL    HW232446   9.289   4.873   3.874 -0.7227 -0.0189  0.7338
10258SOL     OW32447   8.720   5.851   9.458 -0.3324  0.6820  0.3412
10258SOL    HW132448   8.632   5.838   9.495 -0.9035  1.2194 -0.7977
10258SOL    HW232449   8.777   5.856   9.535 -1.5042  1.8623  1.1822
10259SOL     OW32450   3.494   4.692   7.757  0.2601  0.2619  0.2504
10259SOL    HW132451   3.450   4.618   7.716 -2.9310  1.3328  1.4311
10259SOL    HW232452   3.522   4.747   7.684  1.0152 -1.1747 -0.5847
10260SOL     OW32453   4.608   7.567   2.340  0.2990 -0.2563  0.5630
10260SOL    HW132454   4.681   7.590   2.398 -0.4967 -0.0062  1.5047
10260SOL    HW232455   4.552   7.510   2.394  0.2265 -1.1624 -0.4257
10261SOL     OW32456   8.897   0.131   7.301  0.6754 -0.2540 -0.5994
10261SOL    HW132457   8.897   0.162   7.392  1.4052  2.5276 -1.4384
10261SOL    HW232458   8.978   0.080   7.294  0.2935 -1.0409  0.4475
10262SOL     OW32459   5.095   6.117   9.318  0.3945 -0.7135  0.0767
10262SOL    HW132460   5.020   6.172   9.342  0.7736  0.0463 -0.4532
10262SOL    HW232461   5.126   6.082   9.401 -0.3288 -0.7477  0.3405
10263SOL     OW32462   1.145   1.494   4.818 -0.4494 -0.1434 -0.3651
10263SOL    HW132463   1.165   1.400   4.825 -1.4209 -0.3494 -0.1698
10263SOL    HW232464   1.230   1.537   4.819 -0.0334 -0.9309  1.0704
10264SOL     OW32465   9.495   7.687   5.393 -0.7301  0.1308  0.5810
10264SOL    HW132466   9.562   7.755   5.386 -0.9166  0.1825 -0.9523
10264SOL    HW232467   9.496   7.663   5.486 -1.6894  3.2571  1.5468
10265SOL     OW32468   7.225   8.254   7.311  0.4104  0.2659  0.4114
10265SOL    HW132469   7.236   8.189   7.380  0.5013  0.3719  0.4974
10265SOL    HW232470   7.192   8.204   7.236 -2.3412  0.5500  1.3115
10266SOL     OW32471   6.278   7.334   8.849 -0.3926  0.6959 -0.1519
10266SOL    HW132472   6.235   7.253   8.822 -2.0037  2.0117 -1.8176
10266SOL    HW232473   6.284   7.386   8.769  1.4524  1.8753  0.6859
10267SOL     OW32474   7.099   5.637   3.819  0.4675  0.1028  0.1290
10267SOL    HW132475   7.122   5.722   3.857 -0.5671  0.1244  0.7655
10267SOL    HW232476   7.147   5.573   3.871 -1.4215  0.0803  2.0190
10268SOL     OW32477   0.750   6.561   5.290 -0.1404  0.2028  0.1312
10268SOL    HW132478   0.739   6.465   5.294 -3.0797  0.4326  0.0182
10268SOL    HW232479   0.844   6.575   5.302  0.3264 -2.6732  0.6159
10269SOL     OW32480   0.744   6.487   3.847 -0.6530  0.0205  0.6534
10269SOL    HW132481   0.763   6.557   3.910  2.9031  0.1561 -0.3934
10269SOL    HW232482   0.795   6.412   3.878 -1.3461 -0.9024 -0.3758
10270SOL     OW32483   1.908   0.169   6.653  0.1417 -0.7946 -0.2534
10270SOL    HW132484   1.943   0.257   6.663 -0.0523 -0.9585  2.8285
10270SOL    HW232485   1.985   0.114   6.637  0.5607 -0.3550  0.2208
10271SOL     OW32486   5.017   5.284   7.634  0.3950 -0.1560  0.1832
10271SOL    HW132487   5.040   5.272   7.542 -1.0192  0.4815 -0.2920
10271SOL    HW232488   4.974   5.370   7.637 -0.1703 -0.4563  1.3043
10272SOL     OW32489   1.345   2.321   3.050 -0.5472 -0.2873  0.5272
10272SOL    HW132490   1.290   2.285   2.980 -0.7356 -0.5210  0.7964
10272SOL    HW232491   1.393   2.392   3.008 -0.6219 -0.4612  0.1452
10273SOL     OW32492   7.587   1.281   0.977  0.6825 -0.5333 -0.0887
10273SOL    HW132493   7.623   1.343   1.040  0.4749 -1.0394  0.5412
10273SOL    HW232494   7.609   1.195   1.013 -1.1506 -0.8653  0.3532
10274SOL     OW32495   6.178   6.938   3.561  0.1479  0.1122  0.3651
10274SOL    HW132496   6.269   6.929   3.532  0.1607  0.3939  0.3111
10274SOL    HW232497   6.159   6.858   3.609  0.6178  0.3264  0.9061
10275SOL     OW32498   7.445   5.845   1.719 -0.6252  0.2260 -0.2658
10275SOL    HW132499   7.450   5.840   1.814 -0.6165 -0.7676 -0.3035
10275SOL    HW232500   7.513   5.784   1.688 -1.1357 -0.0405 -0.8958
10276SOL     OW32501   0.736   0.003   6.176 -0.4821 -0.3859  0.0963
10276SOL    HW132502   0.761   0.010   6.268 -0.5671  0.9037  0.0492
10276SOL    HW232503   0.815   0.029   6.128 -0.8172  0.1885 -0.1521
10277SOL     OW32504   8.352   8.529   0.945  0.1840  0.9571  0.1981
10277SOL    HW132505   8.358   8.520   1.040 -0.0322 -2.7639  0.0283
10277SOL    HW232506   8.295   8.605   0.931 -0.8376  0.8318  3.0754
10278SOL     OW32507   2.548   7.286   2.457  0.4378  0.1163 -0.1218
10278SOL    HW132508   2.457   7.261   2.445  0.1003  0.5525  1.3828
10278SOL    HW232509   2.596   7.237   2.390 -0.8101 -0.6406 -0.4715
10279SOL     OW32510   1.655   7.707   5.960  0.0799 -0.3482 -0.1944
10279SOL    HW132511   1.695   7.660   5.887  3.1113  0.3293  0.8544
10279SOL    HW232512   1.676   7.799   5.944 -1.1908  0.0711  0.4127
10280SOL     OW32513   0.210   4.201   7.181  0.5410  0.0414  0.3336
10280SOL    HW132514   0.169   4.201   7.095  0.7873 -3.4659  0.0754
10280SOL    HW232515   0.304   4.212   7.162  0.4525  0.7520  0.2951
10281SOL     OW32516   5.468   6.154   1.400 -0.2066  0.5432  0.4678
10281SOL    HW132517   5.381   6.122   1.425  0.7418 -2.7135  0.0941
10281SOL    HW232518   5.475   6.133   1.307  1.2354  0.0218  0.6693
10282SOL     OW32519   4.825   4.707   5.863  0.1087  0.0452  0.2760
10282SOL    HW132520   4.809   4.798   5.888 -0.4095  0.0913 -0.2082
10282SOL    HW232521   4.837   4.661   5.946 -0.3679  0.4162  0.5557
10283SOL     OW32522   2.390   7.139   5.132  0.1266  0.2316 -0.1503
10283SOL    HW132523   2.475   7.109   5.163 -0.2528  0.4815  1.1704
10283SOL    HW232524   2.357   7.196   5.201 -2.3901 -2.1199  0.7844
10284SOL     OW32525   8.465   6.960   4.783  0.1427 -0.1597 -0.3035
10284SOL    HW132526   8.393   6.993   4.730 -0.8192 -0.7717  0.5804
10284SOL    HW232527   8.449   6.866   4.790  2.5025 -0.8108 -2.2812
10285SOL     OW32528   2.328   2.862   6.293  0.4541 -0.2367 -0.2026
10285SOL    HW132529   2.264   2.814   6.242  1.6055 -1.4662 -0.5465
10285SOL    HW232530   2.380   2.910   6.228  0.7315 -0.3244 -0.0506
10286SOL     OW32531   5.278   2.771   3.457  0.0763 -0.2384 -0.2843
10286SOL    HW132532   5.277   2.676   3.442  2.0179 -0.2771 -0.3960
10286SOL    HW232533   5.369   2.797   3.440 -0.7056  1.8771 -1.5602
10287SOL     OW32534   0.702   7.628   6.686 -0.0521  0.2602  0.2220
10287SOL    HW132535   0.662   7.606   6.770 -1.3950  1.4136 -0.0823
10287SOL    HW232536   0.685   7.722   6.675  2.8125  0.8698  0.0784
10288SOL     OW32537   7.324   7.980   7.743 -0.0646 -0.7862  0.0158
10288SOL    HW132538   7.285   7.929   7.814 -0.3627 -0.6569 -0.0492
10288SOL    HW232539   7.412   7.945   7.733  1.0168  0.9669  2.2939
10289SOL     OW32540   2.418   3.481   8.097 -0.1195  0.5555 -0.6556
10289SOL    HW132541   2.349   3.510   8.036 -0.9247  0.8767  0.3854
10289SOL    HW232542   2.372   3.468   8.180  0.7162 -1.1469 -0.4231
10290SOL     OW32543   4.219   8.097   1.008  0.5642  0.5228 -0.5070
10290SOL    HW132544   4.188   8.028   0.949  0.7690 -0.1714  0.1901
10290SOL    HW232545   4.149   8.162   1.007  0.3186  0.2581 -1.0834
10291SOL     OW32546   6.402   9.551   3.443 -0.1213 -0.1992 -0.1272
10291SOL    HW132547   6.323   9.497   3.448  0.1421 -0.5600  0.2455
10291SOL    HW232548   6.450   9.530   3.523  0.5838 -0.3460 -0.5858
10292SOL     OW32549   3.667   7.283   3.599 -0.0855 -0.0380 -0.1156
10292SOL    HW132550   3.634   7.339   3.669  0.7888 -0.7028  0.8365
10292SOL    HW232551   3.597   7.220   3.583 -0.0293 -0.2846  0.6066
10293SOL     OW32552   9.329   3.257   0.366  0.3504  0.0499 -0.2000
10293SOL    HW132553   9.401   3.304   0.323 -1.0811  2.8444  0.1804
10293SOL    HW232554   9.259   3.257   0.302 -0.3321  0.2722  0.5238
10294SOL     OW32555   6.834   2.243   6.963 -0.0798  0.4898  0.5395
10294SOL    HW132556   6.902   2.223   7.028 -0.2303  0.9244  0.8318
10294SOL    HW232557   6.800   2.329   6.989  1.4376  1.7648 -1.4193
10295SOL     OW32558   3.818   7.505   4.259  0.0468  0.0614 -0.0961
10295SOL    HW132559   3.890   7.462   4.305 -0.5307 -0.3464  0.4327
10295SOL    HW232560   3.823   7.471   4.170  1.0904  0.7609 -0.3238
10296SOL     OW32561   0.615   9.006   8.320  0.3162  0.0339 -0.1204
10296SOL    HW132562   0.673   8.934   8.345  1.4600  1.5292  1.8022
10296SOL    HW232563   0.528   8.967   8.315  0.6576 -1.2002  2.4945
10297SOL     OW32564   2.353   1.423   7.404 -0.3764  0.0060  0.0919
10297SOL    HW132565   2.377   1.373   7.482 -0.5006  1.3087  0.9957
10297SOL    HW232566   2.385   1.370   7.331 -0.0280 -1.1189  1.0280
10298SOL     OW32567   2.936   5.414   5.990  0.4607 -0.0990 -0.0013
10298SOL    HW132568   3.016   5.467   5.986 -0.9689  2.1353 -0.8052
10298SOL    HW232569   2.896   5.424   5.903 -3.0067  2.8023  1.6458
10299SOL     OW32570   8.644   1.420   3.048 -0.2427  0.1360 -0.7858
10299SOL    HW132571   8.590   1.396   3.124  1.2413  0.2318  0.3642
10299SOL    HW232572   8.617   1.359   2.980 -3.2781  1.5379 -1.0105
10300SOL     OW32573   8.099   1.972   3.498 -0.0241  0.2499  0.6086
10300SOL    HW132574   8.160   1.996   3.568  0.7051  0.5431 -0.1124
10300SOL    HW232575   8.043   1.904   3.536  0.8020 -0.0773  1.2572
10301SOL     OW32576   2.214   4.371   3.332  0.4737  0.4871 -0.1508
10301SOL    HW132577   2.187   4.409   3.249 -0.0039 -0.8253 -0.6229
10301SOL    HW232578   2.300   4.332   3.313  0.3098  0.0820 -0.0745
10302SOL     OW32579   1.963   3.459   6.291 -0.4624  0.0299  0.6955
10302SOL    HW132580   1.965   3.424   6.201 -0.2644  1.3227  0.1762
10302SOL    HW232581   1.991   3.385   6.345 -0.8402 -0.8596 -0.2736
10303SOL     OW32582   2.542   3.575   4.683  0.6827 -0.2942 -0.6145
10303SOL    HW132583   2.509   3.581   4.593 -2.3143  0.0459  0.3975
10303SOL    HW232584   2.587   3.490   4.686  2.2788  0.3927 -2.7960
10304SOL     OW32585   6.077   4.648   1.220  0.0699 -1.0193  0.0540
10304SOL    HW132586   6.028   4.715   1.267  0.2678  0.8516 -2.2265
10304SOL    HW232587   6.039   4.565   1.250 -0.6824  0.0807  2.4239
10305SOL     OW32588   6.776   0.841   2.957 -0.8170  0.1767  1.0616
10305SOL    HW132589   6.686   0.832   2.989 -1.9588 -0.7277 -2.0469
10305SOL    HW232590   6.784   0.932   2.930 -2.0218 -0.3997 -1.5945
10306SOL     OW32591   3.152   5.677   5.578  0.8549 -0.0851  0.1953
10306SOL    HW132592   3.142   5.656   5.485 -1.7177  1.4469  0.0081
10306SOL    HW232593   3.229   5.628   5.606  1.6133 -0.7341 -2.6867
10307SOL     OW32594   3.494   3.188   7.968  0.1826 -0.1236  0.1154
10307SOL    HW132595   3.471   3.138   8.046 -1.1503 -1.8046 -1.2660
10307SOL    HW232596   3.436   3.264   7.969 -1.5705 -1.3901 -0.4087
10308SOL     OW32597   1.712   4.761   7.253  0.0807 -0.1874  0.2284
10308SOL    HW132598   1.665   4.802   7.181 -0.0495  2.1983  1.5932
10308SOL    HW232599   1.737   4.675   7.219  0.5541  1.0481 -2.8902
10309SOL     OW32600   4.735   0.496   1.370 -0.5704 -0.1630  0.0114
10309SOL    HW132601   4.641   0.493   1.389 -0.6373  1.4210  0.1008
10309SOL    HW232602   4.772   0.550   1.440  0.1991  0.2933 -0.7247
10310SOL     OW32603   0.638   0.759   0.670  0.7579  0.4977  0.0987
10310SOL    HW132604   0.635   0.843   0.716  0.4567  1.1911 -1.1358
10310SOL    HW232605   0.675   0.780   0.584  1.7204 -0.8350  0.1572
10311SOL     OW32606   7.621   2.938   1.358 -0.0041 -0.1663  0.2100
10311SOL    HW132607   7.677   2.861   1.370  0.2525  0.2121  1.6431
10311SOL    HW232608   7.679   3.004   1.319 -0.1434 -0.5775 -0.7205
10312SOL     OW32609   9.323   5.208   4.229  0.1105 -0.0342  0.2193
10312SOL    HW132610   9.249   5.156   4.259 -0.7320  0.4885 -0.8950
10312SOL    HW232611   9.380   5.147   4.184  0.1776 -0.3712  0.7565
10313SOL     OW32612   4.428   5.182   2.426 -0.0772 -0.0761 -0.4919
10313SOL    HW132613   4.394   5.149   2.509 -2.2478  0.0588 -1.2719
10313SOL    HW232614   4.355   5.229   2.387  1.5257  1.6603 -1.5590
10314SOL     OW32615   2.826   0.332   2.316  0.8351  0.0804  0.4689
10314SOL    HW132616   2.826   0.269   2.243  4.1350  0.8169 -0.3277
10314SOL    HW232617   2.845   0.416   2.275 -1.4562  1.3282  1.7777
10315SOL     OW32618   7.078   6.854   4.143  0.0564 -0.0182  0.1099
10315SOL    HW132619   7.110   6.765   4.154 -1.6076 -0.3510  3.4293
10315SOL    HW232620   6.994   6.845   4.099  0.5409  0.0995 -0.8747
10316SOL     OW32621   3.180   4.456   1.584  0.0038 -0.0499  0.1479
10316SOL    HW132622   3.249   4.424   1.525  1.2077 -0.2224  1.5756
10316SOL    HW232623   3.226   4.511   1.647 -1.2939  0.4033  0.7405
10317SOL     OW32624   4.350   8.476   3.073  0.1758  0.2241  0.2609
10317SOL    HW132625   4.279   8.442   3.018 -0.8780  1.0199  1.0708
10317SOL    HW232626   4.421   8.413   3.062  0.2776  0.6848 -2.4927
10318SOL     OW32627   0.600   6.280   4.485  0.3642 -0.3845  0.3041
10318SOL    HW132628   0.669   6.263   4.550 -1.3996 -0.0449  2.3605
10318SOL    HW232629   0.577   6.193   4.452  0.8018 -0.6296  0.6268
10319SOL     OW32630   3.290   1.372   8.946 -0.2604 -0.8038 -0.6048
10319SOL    HW132631   3.267   1.295   8.894  1.0055 -1.2173 -0.6048
10319SOL    HW232632   3.239   1.443   8.908  0.2282 -1.2011 -2.0916
10320SOL     OW32633   0.044   2.780   1.598 -0.3489  0.3439 -0.3922
10320SOL    HW132634  -0.028   2.820   1.647  0.6978 -0.5160  2.0563
10320SOL    HW232635   0.023   2.687   1.598  0.4154  0.1662 -0.2376
10321SOL     OW32636   6.539   0.400   7.301  0.2404 -0.4916 -0.1358
10321SOL    HW132637   6.497   0.443   7.227  0.5706  0.5482  0.2542
10321SOL    HW232638   6.545   0.308   7.276 -0.4975 -0.3184 -0.9983
10322SOL     OW32639   9.213   2.498   4.709  0.2141  0.8018 -0.0104
10322SOL    HW132640   9.203   2.566   4.642 -2.4760 -0.4795 -1.0513
10322SOL    HW232641   9.123   2.475   4.733  1.0601  0.5784  3.4947
10323SOL     OW32642   1.914   7.561   3.229  0.0570  0.9135 -0.1858
10323SOL    HW132643   1.980   7.583   3.294  1.5595  1.2601 -1.7494
10323SOL    HW232644   1.948   7.483   3.185 -0.7234  0.9025 -0.8043
10324SOL     OW32645   0.821   7.103   2.421  0.4170  0.0791 -0.1018
10324SOL    HW132646   0.740   7.074   2.462  1.3763 -0.6376  1.3725
10324SOL    HW232647   0.885   7.035   2.444  1.4927  0.7380 -1.0390
10325SOL     OW32648   2.840   3.821   5.662  0.0696 -0.0913  0.2877
10325SOL    HW132649   2.864   3.876   5.736  0.4639 -0.5396  0.5049
10325SOL    HW232650   2.745   3.822   5.661  0.0597 -0.0659  0.8005
10326SOL     OW32651   3.508   2.796   6.980  0.0097 -0.6236  0.1031
10326SOL    HW132652   3.458   2.833   7.053 -0.4060 -0.2494 -0.3642
10326SOL    HW232653   3.451   2.806   6.904  0.5184 -0.8300 -0.3142
10327SOL     OW32654   6.602   6.055   1.415  0.1123  0.1210  0.9976
10327SOL    HW132655   6.676   6.063   1.355  0.3972 -0.6291  1.2321
10327SOL    HW232656   6.528   6.032   1.358  0.1463  0.4822  0.8083
10328SOL     OW32657   4.094   3.293   3.207 -0.1083 -0.5578 -0.1386
10328SOL    HW132658   4.026   3.356   3.234 -0.9527 -1.2283 -0.6800
10328SOL    HW232659   4.058   3.250   3.130  1.4987 -0.0020 -1.2348
10329SOL     OW32660   9.239   3.471   4.109  0.0804  0.3383  0.7184
10329SOL    HW132661   9.293   3.543   4.143  1.4141 -1.5716  3.0413
10329SOL    HW232662   9.293   3.430   4.041  0.4607  0.0097  1.2098
10330SOL     OW32663   5.887   1.705   3.608  0.0192 -0.3153 -0.4532
10330SOL    HW132664   5.851   1.678   3.524 -0.6146  1.0238 -0.6307
10330SOL    HW232665   5.913   1.623   3.651  1.0564 -0.9691 -2.2394
10331SOL     OW32666   7.090   6.539   2.148 -0.2661 -0.1545 -0.3168
10331SOL    HW132667   7.133   6.610   2.101  2.6455 -0.9926  0.8715
10331SOL    HW232668   7.003   6.573   2.169  0.3833  2.3374 -1.3525
10332SOL     OW32669   6.541   3.469   4.677 -0.3505 -0.2928 -0.4602
10332SOL    HW132670   6.553   3.537   4.610  1.8374 -2.4142 -2.4582
10332SOL    HW232671   6.572   3.509   4.758 -0.9462  1.6691 -1.1384
10333SOL     OW32672   6.584   5.881   8.852  0.3938 -0.1745 -0.5741
10333SOL    HW132673   6.587   5.949   8.919 -0.9231 -1.0563  0.4130
10333SOL    HW232674   6.660   5.826   8.870 -0.3993 -0.8829  0.7420
10334SOL     OW32675   3.069   6.321   2.923 -0.0634  0.2138  0.0686
10334SOL    HW132676   3.096   6.320   3.015  0.1197  0.7998  0.0282
10334SOL    HW232677   3.141   6.279   2.876  0.2427  0.6877  0.1013
10335SOL     OW32678   0.133   1.315   5.534 -0.2761 -0.2082  0.0575
10335SOL    HW132679   0.212   1.329   5.483 -0.9874  1.6915 -0.5978
10335SOL    HW232680   0.126   1.392   5.590 -1.8990 -0.0996 -0.2451
10336SOL     OW32681   5.930   3.693   8.161  0.1389 -0.2509 -0.7945
10336SOL    HW132682   5.921   3.621   8.098 -1.4162 -0.2379 -0.6236
10336SOL    HW232683   5.840   3.717   8.183  0.6084 -0.8705  2.1639
10337SOL     OW32684   5.822   9.168   3.782  0.5563  0.5311 -0.1265
10337SOL    HW132685   5.805   9.232   3.851  0.5938 -0.1221  0.4895
10337SOL    HW232686   5.917   9.159   3.780  0.5913  0.9420 -0.6317
10338SOL     OW32687   7.216   7.093   7.147 -0.9100 -0.3814  0.5364
10338SOL    HW132688   7.170   7.147   7.083  0.5510  0.4591  0.1401
10338SOL    HW232689   7.308   7.099   7.122 -0.0039  1.4670  3.6917
10339SOL     OW32690   4.004   4.323   2.034  0.0940  0.7476 -0.1231
10339SOL    HW132691   4.088   4.326   1.988  0.5413 -1.9282  0.3603
10339SOL    HW232692   4.014   4.253   2.098 -1.4915  2.4348  2.1226
10340SOL     OW32693   2.229   7.136   7.666  0.1100 -0.2873  0.1036
10340SOL    HW132694   2.227   7.157   7.759  0.0608  1.0920 -0.1815
10340SOL    HW232695   2.205   7.043   7.661  0.8105 -0.5601  1.5039
10341SOL     OW32696   1.443   3.143   7.143  0.1861  0.0964 -0.5165
10341SOL    HW132697   1.463   3.191   7.062 -0.5690 -0.9746 -1.3789
10341SOL    HW232698   1.508   3.173   7.206  2.3702 -0.8066 -2.2123
10342SOL     OW32699   5.503   1.860   6.415 -0.2941 -0.2784  0.0950
10342SOL    HW132700   5.428   1.802   6.400 -0.7349  0.1794  0.5169
10342SOL    HW232701   5.543   1.828   6.495 -0.8764  0.3440  0.6446
10343SOL     OW32702   7.698   8.024   9.054 -0.3544  0.5175  0.3152
10343SOL    HW132703   7.763   8.093   9.063  0.8301 -0.5063 -0.1707
10343SOL    HW232704   7.737   7.961   8.994 -2.2616  0.4096 -0.9036
10344SOL     OW32705   3.932   1.225   2.050  0.6639  0.6570  0.3372
10344SOL    HW132706   3.932   1.267   1.964 -0.1819  0.1127  0.0563
10344SOL    HW232707   3.991   1.278   2.103  0.3033  1.6748 -0.2550
10345SOL     OW32708   9.029   6.707   2.827  0.0371  0.5047  0.0257
10345SOL    HW132709   8.981   6.632   2.794  2.0889 -1.4908  1.2848
10345SOL    HW232710   9.110   6.708   2.776  1.0702  0.3603  1.5964
10346SOL     OW32711   4.209   0.155   0.754 -0.1774  0.0133  0.7433
10346SOL    HW132712   4.208   0.234   0.699  1.6659 -0.0392  0.5570
10346SOL    HW232713   4.219   0.188   0.843 -1.4750  0.0417  0.8892
10347SOL     OW32714   4.423   6.646   3.364 -0.3458  0.2980 -0.1016
10347SOL    HW132715   4.379   6.570   3.326 -0.9575  0.4028  0.3727
10347SOL    HW232716   4.497   6.662   3.306 -1.1245  0.3145 -1.1391
10348SOL     OW32717   4.710   6.462   6.402  0.3177 -0.1562  0.1795
10348SOL    HW132718   4.620   6.462   6.437  0.2843  0.7477  0.1151
10348SOL    HW232719   4.726   6.553   6.377  1.6597 -0.0767  1.2205
10349SOL     OW32720   5.275   4.745   5.937 -0.4278 -0.2982 -0.2438
10349SOL    HW132721   5.214   4.772   5.869 -0.5402 -3.2283 -1.4708
10349SOL    HW232722   5.358   4.731   5.891 -0.1091 -0.9169  0.4856
10350SOL     OW32723   2.891   0.445   0.347  0.4531  0.4264  0.4903
10350SOL    HW132724   2.864   0.354   0.359  0.0600  0.2530 -1.4444
10350SOL    HW232725   2.982   0.447   0.379  0.5752 -0.7171  0.2533
10351SOL     OW32726   0.378   1.944   4.150  0.1643 -0.0849 -0.3236
10351SOL    HW132727   0.325   1.877   4.107 -0.8604  0.2950  0.3332
10351SOL    HW232728   0.318   1.990   4.208  1.0520  0.8298 -0.0955
10352SOL     OW32729   5.160   1.853   6.616 -0.0479  0.4925  0.4395
10352SOL    HW132730   5.183   1.889   6.531 -1.0810  0.6987  0.2282
10352SOL    HW232731   5.243   1.823   6.653  0.5360  1.2061 -0.2556
10353SOL     OW32732   1.137   1.277   0.900 -0.3363  0.2521 -0.0511
10353SOL    HW132733   1.215   1.287   0.954 -1.5754 -0.6988  2.0519
10353SOL    HW232734   1.115   1.367   0.873 -0.0672  0.8759  1.6813
10354SOL     OW32735   3.462   5.476   6.485  0.1443 -0.5900  0.0071
10354SOL    HW132736   3.533   5.414   6.499  1.5729  1.2729  1.6088
10354SOL    HW232737   3.491   5.530   6.412  0.0849 -0.2392  0.2394
10355SOL     OW32738   2.010   8.976   3.256  0.2994 -0.5156 -0.3875
10355SOL    HW132739   1.998   8.903   3.195 -0.0275  1.5911 -3.0153
10355SOL    HW232740   1.923   8.989   3.294  0.3338 -1.3882  0.0158
10356SOL     OW32741   7.423   6.936   2.697 -0.5053 -0.2356  0.2769
10356SOL    HW132742   7.388   6.996   2.630 -1.6493 -0.4804  0.6259
10356SOL    HW232743   7.494   6.891   2.653  1.0734  2.0476  0.2932
10357SOL     OW32744   0.487   3.640   8.851  0.2201 -0.2686  0.3817
10357SOL    HW132745   0.464   3.730   8.873  0.6381  0.2512 -1.1745
10357SOL    HW232746   0.448   3.588   8.921 -1.7835  0.9402  0.2580
10358SOL     OW32747   2.668   9.474   4.052  0.0595 -0.5757  0.6798
10358SOL    HW132748   2.694   9.559   4.017 -2.3900 -0.7459 -1.9584
10358SOL    HW232749   2.586   9.491   4.100 -0.8002 -1.4614 -0.4025
10359SOL     OW32750   3.653   5.140   3.090 -0.4810  0.2298 -0.2374
10359SOL    HW132751   3.669   5.109   3.179  0.6927 -1.2697 -0.9264
10359SOL    HW232752   3.720   5.097   3.038 -1.6301  0.4710 -1.9824
10360SOL     OW32753   0.244   1.830   6.011  0.8743  0.1087  0.4497
10360SOL    HW132754   0.340   1.827   6.005  0.7907 -1.9775 -2.1662
10360SOL    HW232755   0.220   1.917   5.979  1.8872  0.5335  0.8197
10361SOL     OW32756   4.445   7.012   5.771 -1.0028 -0.2722 -0.3756
10361SOL    HW132757   4.376   7.030   5.835 -2.6540  0.6275 -2.3042
10361SOL    HW232758   4.410   6.942   5.717 -0.0006 -0.4239 -0.8598
10362SOL     OW32759   8.350   6.055   3.099  0.2595 -0.3488 -0.4408
10362SOL    HW132760   8.379   6.087   3.184 -1.8939 -1.1525  0.6770
10362SOL    HW232761   8.430   6.035   3.051  1.5226  0.4363  1.2647
10363SOL     OW32762   3.611   6.719   1.907  0.6102 -0.2356 -0.1510
10363SOL    HW132763   3.573   6.722   1.819  0.5200  0.0595 -0.1048
10363SOL    HW232764   3.705   6.715   1.893  0.6667  1.0763 -0.2598
10364SOL     OW32765   2.597   0.072   1.385  0.0738 -0.1560  0.6261
10364SOL    HW132766   2.583   0.023   1.304 -0.5737 -1.1269  1.2872
10364SOL    HW232767   2.612   0.004   1.451  1.9199  0.6510  1.1008
10365SOL     OW32768   7.099   2.964   5.019 -0.0558 -0.1177  0.4037
10365SOL    HW132769   7.013   2.989   5.055 -0.1387  0.4250 -0.1520
10365SOL    HW232770   7.087   2.966   4.924  0.2361 -1.2777  0.3272
10366SOL     OW32771   1.337   1.031   9.066  0.5455  0.4715 -0.2584
10366SOL    HW132772   1.391   1.013   8.989 -1.0479  1.6557 -1.7640
10366SOL    HW232773   1.345   1.125   9.079  0.3589  0.3617  0.6926
10367SOL     OW32774   0.198   8.816   6.477 -0.2095 -0.0685 -0.1092
10367SOL    HW132775   0.166   8.740   6.429  0.7599 -1.0343  0.7069
10367SOL    HW232776   0.239   8.779   6.555  0.6290  1.2660  0.1119
10368SOL     OW32777   4.924   3.832   5.882  0.3774 -0.2885  0.5032
10368SOL    HW132778   4.839   3.864   5.914  0.1910 -1.2026  0.9364
10368SOL    HW232779   4.918   3.737   5.889  1.5157 -0.3508  0.7117
10369SOL     OW32780   2.168   3.039   7.165  0.0516  0.0333 -0.0769
10369SOL    HW132781   2.257   3.005   7.162 -0.4320 -1.2541 -2.0501
10369SOL    HW232782   2.145   3.038   7.258  1.5715 -1.0316  0.3242
10370SOL     OW32783   4.654   0.003   0.390 -0.0860  0.0535 -0.2480
10370SOL    HW132784   4.645   0.094   0.417  0.2020 -0.0742  0.2962
10370SOL    HW232785   4.731   0.002   0.333  0.6623 -0.0524  0.7394
10371SOL     OW32786   7.525   8.306   6.838  0.1708  0.1572 -0.6010
10371SOL    HW132787   7.456   8.371   6.828 -0.1890 -0.0985  0.1543
10371SOL    HW232788   7.553   8.286   6.748  0.1192  1.1693 -0.8473
10372SOL     OW32789   2.992   1.618   5.055 -0.1042 -0.5076  0.5802
10372SOL    HW132790   3.075   1.658   5.027 -0.1020  1.8075  3.4808
10372SOL    HW232791   3.015   1.526   5.072  0.9842 -0.7758 -1.8744
10373SOL     OW32792   8.517   6.765   8.480  0.4213 -0.6641  0.0460
10373SOL    HW132793   8.574   6.792   8.408 -0.8690  0.6866 -0.5150
10373SOL    HW232794   8.432   6.804   8.459 -0.7872 -2.7966  0.7392
10374SOL     OW32795   9.637   1.168   0.018 -0.0752  0.0550  0.0128
10374SOL    HW132796   9.695   1.113  -0.034  0.0707 -0.7598  0.9814
10374SOL    HW232797   9.691   1.198   0.091 -0.1529  1.5284 -0.5001
10375SOL     OW32798   6.899   8.266   2.077 -0.4336  0.2562 -0.4108
10375SOL    HW132799   6.885   8.271   1.983 -2.1772 -0.4346 -0.2288
10375SOL    HW232800   6.883   8.355   2.109 -0.8600  0.2701 -0.6553
10376SOL     OW32801   5.843   9.638   8.611  0.2543 -0.3972 -0.1909
10376SOL    HW132802   5.796   9.554   8.611  0.0343 -0.2803 -1.1009
10376SOL    HW232803   5.858   9.657   8.519  0.1481  0.6559  0.0039
10377SOL     OW32804   5.134   9.258   3.775  0.7568 -0.3401  0.2880
10377SOL    HW132805   5.223   9.246   3.808  0.1655 -0.8880  1.7741
10377SOL    HW232806   5.096   9.170   3.773  0.6153 -0.2804 -1.5221
10378SOL     OW32807   2.452   9.451   3.519 -0.0653  0.2717  0.3922
10378SOL    HW132808   2.543   9.473   3.499  0.3384 -1.8753 -0.4214
10378SOL    HW232809   2.403   9.478   3.442  0.2895 -0.7615 -0.2186
10379SOL     OW32810   3.867   0.735   1.636 -0.2229 -0.1866  0.1051
10379SOL    HW132811   3.853   0.673   1.708  1.0218 -0.4093  0.1749
10379SOL    HW232812   3.908   0.811   1.677 -0.3263  0.0540 -0.2345
10380SOL     OW32813   8.748   2.202   0.261 -0.0348  0.0070 -0.2669
10380SOL    HW132814   8.763   2.112   0.291 -2.3859 -0.6648 -0.8378
10380SOL    HW232815   8.699   2.191   0.180  2.6491  1.8290 -2.2806
10381SOL     OW32816   5.635   3.826   5.895 -0.5837 -0.4797  0.0881
10381SOL    HW132817   5.617   3.761   5.963 -1.5278 -1.2495 -0.8665
10381SOL    HW232818   5.676   3.776   5.824 -0.6506  0.1029 -0.3688
10382SOL     OW32819   5.164   0.105   0.605  0.0016  0.3526  0.0942
10382SOL    HW132820   5.109   0.038   0.645  0.4242 -0.9295 -1.3802
10382SOL    HW232821   5.134   0.187   0.644 -0.8092 -0.6271  1.6471
10383SOL     OW32822   6.874   7.464   7.087 -0.3324  0.1811  0.1104
10383SOL    HW132823   6.920   7.530   7.034 -0.7851  0.4303  0.0264
10383SOL    HW232824   6.839   7.403   7.022  0.5920 -0.4786  0.2160
10384SOL     OW32825   3.589   9.579   4.193 -0.4798 -0.5998  0.1273
10384SOL    HW132826   3.497   9.593   4.217 -0.4173 -0.8871  0.5419
10384SOL    HW232827   3.599   9.484   4.190 -0.1867 -0.5707  0.1116
10385SOL     OW32828   6.044   6.253   3.419 -0.1399 -0.2933  0.2672
10385SOL    HW132829   6.001   6.178   3.460  0.4735 -0.7945  0.0215
10385SOL    HW232830   5.988   6.274   3.344  0.8047 -1.9610 -1.0042
10386SOL     OW32831   7.665   2.385   8.927  0.3198  0.1244  0.6145
10386SOL    HW132832   7.605   2.365   8.856  0.5292  0.2927  0.3873
10386SOL    HW232833   7.722   2.454   8.892  0.9949 -0.4095  0.6305
10387SOL     OW32834   4.226   7.557   2.040 -0.1129 -0.0317  0.2960
10387SOL    HW132835   4.267   7.638   2.010  1.1137 -0.9361 -0.5598
10387SOL    HW232836   4.244   7.553   2.133 -0.6857  0.9565  0.4586
10388SOL     OW32837   1.779   5.057   0.765  0.4307 -0.2637 -0.0664
10388SOL    HW132838   1.818   5.005   0.836 -1.3000 -0.4700  0.8019
10388SOL    HW232839   1.826   5.030   0.687  0.6467 -2.0022  0.6186
10389SOL     OW32840   0.126   1.923   2.387  0.1645 -0.1138 -0.1727
10389SOL    HW132841   0.213   1.962   2.393  0.5703 -0.6090 -2.1360
10389SOL    HW232842   0.142   1.835   2.352 -1.1174 -0.2612 -0.4391
10390SOL     OW32843   9.494   1.457   3.090  0.2860  0.0855  0.1953
10390SOL    HW132844   9.478   1.366   3.068 -2.1779  0.6379 -0.6715
10390SOL    HW232845   9.517   1.457   3.183 -0.8797 -1.3141  0.5068
10391SOL     OW32846   2.508   9.449   6.062  0.3395  0.3751 -0.1410
10391SOL    HW132847   2.433   9.423   6.010  0.6299  0.2723 -0.5160
10391SOL    HW232848   2.583   9.440   6.003  0.7902 -0.5967  0.5527
10392SOL     OW32849   3.367   0.583   8.682 -0.7059  0.2520  0.4322
10392SOL    HW132850   3.359   0.510   8.743  1.5323  0.2994  0.8479
10392SOL    HW232851   3.277   0.599   8.653 -1.6108 -0.8896  2.3790
10393SOL     OW32852   4.317   2.333   7.534  0.0647 -0.4277 -0.0530
10393SOL    HW132853   4.235   2.369   7.568  0.0799 -0.1839 -0.2751
10393SOL    HW232854   4.295   2.244   7.508  0.0986 -0.6953  0.7877
10394SOL     OW32855   2.228   8.732   8.895  0.2748  0.1076  0.1775
10394SOL    HW132856   2.234   8.807   8.835  0.2339  0.8996  1.1284
10394SOL    HW232857   2.318   8.715   8.922  0.1868  0.4048  0.6624
10395SOL     OW32858   4.989   6.477   2.462  0.1745  0.0444  0.0666
10395SOL    HW132859   5.016   6.440   2.546  1.4749  1.2136  0.1903
10395SOL    HW232860   4.896   6.453   2.454 -0.1246  0.3804  2.0768
10396SOL     OW32861   4.970   8.526   7.069 -0.3479 -0.2350 -0.2604
10396SOL    HW132862   4.882   8.544   7.103 -1.5676 -1.1839 -2.7086
10396SOL    HW232863   4.979   8.431   7.072  0.0115 -0.2503 -1.3666
10397SOL     OW32864   2.390   9.188   3.260 -0.0869  0.1482  0.9970
10397SOL    HW132865   2.484   9.190   3.244 -0.2582  0.7133 -0.0728
10397SOL    HW232866   2.353   9.153   3.179 -0.6955 -1.8143  2.0571
10398SOL     OW32867   6.591   2.152   5.819 -0.4202  0.0842  0.0918
10398SOL    HW132868   6.676   2.168   5.778 -0.8542 -0.1079 -0.9195
10398SOL    HW232869   6.570   2.235   5.862  0.1401  0.2301  0.0950
10399SOL     OW32870   5.061   0.546   1.771 -0.3153  0.1492  0.2315
10399SOL    HW132871   5.134   0.522   1.714 -0.8991 -0.4176 -0.2955
10399SOL    HW232872   5.100   0.555   1.858  0.5901  1.0257 -0.2394
10400SOL     OW32873   0.089   3.552   5.535  0.1562  1.0918 -0.5020
10400SOL    HW132874   0.134   3.622   5.583 -0.1084  0.2019  1.1505
10400SOL    HW232875   0.158   3.509   5.485  0.5444  1.7743 -0.5685
10401SOL     OW32876   7.341   8.735   1.658 -0.2520  0.4043 -0.3488
10401SOL    HW132877   7.388   8.714   1.577 -0.0117 -1.4720  0.2269
10401SOL    HW232878   7.275   8.666   1.666  0.1364  0.1865  1.3575
10402SOL     OW32879   0.731   4.910   7.403  0.3262  0.2504  0.0247
10402SOL    HW132880   0.782   4.972   7.455  1.4594  0.2610 -1.0460
10402SOL    HW232881   0.644   4.911   7.442  1.1262  0.2480  1.9039
10403SOL     OW32882   1.194   1.416   8.374 -0.1988 -0.0209  0.0626
10403SOL    HW132883   1.154   1.475   8.311 -0.4948  1.4155  1.5313
10403SOL    HW232884   1.195   1.465   8.456  1.0451 -1.4673  0.9702
10404SOL     OW32885   5.702   7.359   4.025  0.1436 -0.0986  0.0204
10404SOL    HW132886   5.614   7.378   4.056  0.1368  1.0336 -0.6434
10404SOL    HW232887   5.731   7.286   4.079 -1.8585 -1.7033 -0.9463
10405SOL     OW32888   2.005   7.102   2.704  0.0152  0.4136  0.1293
10405SOL    HW132889   1.988   7.031   2.766  1.1638  0.7786  0.8781
10405SOL    HW232890   2.069   7.065   2.643  0.2346  0.6391  0.2226
10406SOL     OW32891   9.320   4.441   7.317 -0.0193  0.1036  0.2916
10406SOL    HW132892   9.336   4.492   7.396 -0.2081 -0.4570  0.6952
10406SOL    HW232893   9.263   4.369   7.345 -1.1156  0.5825 -0.5870
10407SOL     OW32894   0.028   2.772   5.308  0.0288  0.3113  0.2862
10407SOL    HW132895  -0.066   2.788   5.310 -0.0322  0.2728 -1.4450
10407SOL    HW232896   0.067   2.858   5.294  0.0751 -0.0172 -1.8398
10408SOL     OW32897   3.417   1.968   6.098  0.5894  0.5599  0.0918
10408SOL    HW132898   3.431   1.874   6.107  0.2642  0.4035 -0.9051
10408SOL    HW232899   3.328   1.982   6.131  0.3941  0.4189 -0.3816
10409SOL     OW32900   2.319   5.994   7.707 -0.1994  0.1888 -0.5981
10409SOL    HW132901   2.384   5.943   7.755 -0.3371  1.8489  1.5319
10409SOL    HW232902   2.268   5.929   7.659  0.5963 -1.5268  0.7623
10410SOL     OW32903   0.956   5.154   1.549  0.4725  0.2035  0.3831
10410SOL    HW132904   0.964   5.150   1.454 -1.6845 -1.8921  0.1887
10410SOL    HW232905   0.864   5.174   1.565  0.5669 -0.4352  1.9927
10411SOL     OW32906   1.566   8.469   2.282 -0.6171 -0.6972  0.3478
10411SOL    HW132907   1.490   8.417   2.311 -0.5600 -0.8373  0.2481
10411SOL    HW232908   1.532   8.558   2.274 -1.5300 -1.1673 -2.3886
10412SOL     OW32909   3.663   2.056   6.017 -0.3002  0.4280 -0.2275
10412SOL    HW132910   3.731   2.024   6.076  0.9022  0.5231 -1.5159
10412SOL    HW232911   3.582   2.015   6.049  0.5375 -0.5834  0.6662
10413SOL     OW32912   4.000   2.101   4.558 -0.0133 -0.2591 -0.2597
10413SOL    HW132913   3.980   2.133   4.646 -2.6442 -0.8719 -0.5388
10413SOL    HW232914   4.051   2.021   4.573 -0.1974 -0.2074  0.7070
10414SOL     OW32915   8.777   5.856   9.207  0.2836 -0.3548 -0.2304
10414SOL    HW132916   8.705   5.814   9.159 -2.0156  2.4858  0.5018
10414SOL    HW232917   8.754   5.846   9.299  0.8412  0.5335  0.0174
10415SOL     OW32918   3.909   8.365   3.777  0.4264 -0.4976 -0.1399
10415SOL    HW132919   3.899   8.403   3.689  0.1047 -0.9002 -0.2805
10415SOL    HW232920   3.984   8.411   3.814 -0.0410  0.3804 -0.2471
10416SOL     OW32921   2.094   2.214   5.276  0.0268 -0.9772  0.5256
10416SOL    HW132922   2.146   2.249   5.348  1.0592 -0.0526 -0.6020
10416SOL    HW232923   2.022   2.276   5.267  0.3733 -0.6098  0.2332
10417SOL     OW32924   5.096   9.091   7.484  0.0645  0.3737 -0.3348
10417SOL    HW132925   5.051   9.140   7.553 -1.1218 -0.1638 -0.6996
10417SOL    HW232926   5.161   9.152   7.450 -0.0893  1.0271  0.5008
10418SOL     OW32927   3.784   1.688   3.234 -0.0335 -0.5653  0.1879
10418SOL    HW132928   3.768   1.682   3.329  2.8780 -1.7627  0.6989
10418SOL    HW232929   3.841   1.613   3.215 -0.1853 -0.0798 -2.4508
10419SOL     OW32930   9.490   5.067   0.300 -0.5149  0.0598 -0.7800
10419SOL    HW132931   9.457   4.980   0.277  1.3153 -0.8030 -0.3161
10419SOL    HW232932   9.580   5.067   0.268  0.7697  0.3879  2.4982
10420SOL     OW32933   3.867   5.440   4.787  0.0767  0.5800  0.1417
10420SOL    HW132934   3.908   5.423   4.872 -0.4426  1.7924  0.6473
10420SOL    HW232935   3.788   5.489   4.808 -0.8317 -0.3615 -0.9461
10421SOL     OW32936   5.917   4.161   8.114  0.3519 -0.0669 -0.3148
10421SOL    HW132937   5.847   4.169   8.049 -1.8571 -0.7484  1.8146
10421SOL    HW232938   5.961   4.079   8.091 -0.4747 -0.3677 -0.9006
10422SOL     OW32939   0.132   4.862   9.479  0.5694  0.0791  0.5262
10422SOL    HW132940   0.124   4.951   9.513 -0.1038  0.0370  0.4883
10422SOL    HW232941   0.098   4.806   9.548  0.3792 -0.1008  0.2904
10423SOL     OW32942   3.308   8.228   6.406  0.0833 -0.1363  0.7475
10423SOL    HW132943   3.216   8.240   6.384 -0.0211 -2.4291 -0.4037
10423SOL    HW232944   3.350   8.212   6.321  1.6020  1.1124  1.2287
10424SOL     OW32945   6.305   9.389   4.933  0.1758  0.0734 -1.0078
10424SOL    HW132946   6.284   9.442   4.856  3.3094  1.5337 -0.9729
10424SOL    HW232947   6.297   9.298   4.902 -0.0056  0.6171 -2.6269
10425SOL     OW32948   2.054   9.560   1.148 -0.1371 -0.3060 -0.2276
10425SOL    HW132949   2.006   9.542   1.067 -1.2292 -0.7219  0.4940
10425SOL    HW232950   2.016   9.642   1.180  0.7625  0.2208 -0.4724
10426SOL     OW32951   0.721   6.608   2.954  0.0663 -1.3027  0.2653
10426SOL    HW132952   0.751   6.630   3.042  0.9918 -0.1509 -0.2973
10426SOL    HW232953   0.627   6.596   2.962  0.4493 -3.7587  1.8823
10427SOL     OW32954   8.050   0.248   0.636 -0.6377  0.0871  0.0865
10427SOL    HW132955   8.080   0.338   0.645 -1.4945  0.4475 -0.6025
10427SOL    HW232956   8.114   0.196   0.685  0.6056  0.9273 -0.6130
10428SOL     OW32957   0.395   4.944   3.364 -0.1930  0.5275  0.4016
10428SOL    HW132958   0.342   4.864   3.356 -0.6903  0.9757 -1.3835
10428SOL    HW232959   0.379   4.975   3.453 -0.2239 -1.1850  1.0375
10429SOL     OW32960   2.137   2.763   4.992  0.1167  0.7144 -0.4899
10429SOL    HW132961   2.158   2.692   4.931  1.5813  1.5955 -1.0570
10429SOL    HW232962   2.209   2.763   5.055  0.3994  1.9765 -0.7785
10430SOL     OW32963   5.985   2.774   9.210 -0.3607  0.2435 -0.0020
10430SOL    HW132964   5.994   2.869   9.200 -2.0148  0.4209 -0.1456
10430SOL    HW232965   5.904   2.763   9.261 -0.3720 -1.0967 -0.2787
10431SOL     OW32966   7.071   1.860   8.673  0.5022 -0.0397 -0.4339
10431SOL    HW132967   7.087   1.781   8.622 -0.4614  1.0270 -2.5089
10431SOL    HW232968   7.158   1.896   8.691  0.8511  0.2072 -2.4381
10432SOL     OW32969   1.360   4.388   6.917  0.3020  0.1571 -0.1998
10432SOL    HW132970   1.382   4.465   6.864  0.7650 -0.3125 -0.7001
10432SOL    HW232971   1.409   4.317   6.877 -1.7551 -0.8519 -1.0510
10433SOL     OW32972   1.007   7.262   0.405  0.1182 -0.4817  0.4579
10433SOL    HW132973   1.073   7.301   0.462  1.3668 -1.5812 -0.1970
10433SOL    HW232974   0.951   7.211   0.464 -0.1773  0.4596  1.0147
10434SOL     OW32975   1.055   0.221   1.096  0.0795 -0.3843 -0.3867
10434SOL    HW132976   1.097   0.298   1.056 -0.0875 -0.6740 -1.1371
10434SOL    HW232977   1.091   0.217   1.184  3.0262 -1.6616 -1.5450
10435SOL     OW32978   8.182   6.778   0.067  0.1491  0.1377  0.3496
10435SOL    HW132979   8.257   6.719   0.053  0.2337 -0.0832  1.6345
10435SOL    HW232980   8.220   6.866   0.065  0.0691  0.1603 -1.2872
10436SOL     OW32981   7.841   8.769   8.750 -0.7094 -0.1261 -0.0997
10436SOL    HW132982   7.896   8.795   8.824  0.3313 -1.5753 -0.3383
10436SOL    HW232983   7.763   8.729   8.791 -0.0001 -1.2025  0.2413
10437SOL     OW32984   0.895   1.630   1.521  0.0215 -0.0870 -0.5442
10437SOL    HW132985   0.836   1.675   1.461  0.0684 -0.8547 -1.1966
10437SOL    HW232986   0.851   1.547   1.540  0.2161 -0.0405  0.1339
10438SOL     OW32987   1.133   8.492   1.363  0.0678  0.1927  0.0399
10438SOL    HW132988   1.204   8.557   1.357  1.7820 -1.5173  0.5528
10438SOL    HW232989   1.082   8.505   1.283  0.6811  1.8007 -0.1265
10439SOL     OW32990   8.938   6.658   5.931  0.0205  0.1305 -0.6747
10439SOL    HW132991   8.878   6.587   5.911  0.2725 -0.2359 -0.1585
10439SOL    HW232992   8.997   6.622   5.997 -0.2019  0.9918  0.0178
10440SOL     OW32993   0.988   0.096   6.017  0.1156 -0.4826  0.0110
10440SOL    HW132994   1.064   0.148   5.992  0.4833 -0.9205  0.2008
10440SOL    HW232995   1.005   0.071   6.108 -0.4211 -0.2911  0.1656
10441SOL     OW32996   0.602   7.705   8.619  0.2518 -0.2727  0.0240
10441SOL    HW132997   0.546   7.782   8.609 -0.6477 -1.0560 -1.1765
10441SOL    HW232998   0.557   7.651   8.684  0.1514 -0.4389 -0.1862
10442SOL     OW32999   2.157   6.233   8.253  0.1738 -0.1350 -0.1473
10442SOL    HW133000   2.171   6.213   8.345 -0.0270  0.2954 -0.0231
10442SOL    HW233001   2.196   6.159   8.206  1.1037  0.0806  0.2546
10443SOL     OW33002   4.586   5.388   9.502 -0.2475  0.6752  0.2050
10443SOL    HW133003   4.630   5.364   9.584  0.4804  1.2924  0.0136
10443SOL    HW233004   4.493   5.374   9.519 -0.1519  1.2628  1.3067
10444SOL     OW33005   3.063   7.071   2.693  0.4313  0.3458  0.5939
10444SOL    HW133006   3.122   6.995   2.688  0.1819  0.2313 -2.2669
10444SOL    HW233007   3.108   7.140   2.644 -0.6504  1.0813  0.5925
10445SOL     OW33008   6.497   2.585   3.932  0.1375 -0.1628  0.1081
10445SOL    HW133009   6.576   2.633   3.955 -0.0831  0.8577 -1.1430
10445SOL    HW233010   6.529   2.502   3.897  0.7644  0.8237 -1.7769
10446SOL     OW33011   4.197   8.373   4.430  0.2166 -0.1746  0.0430
10446SOL    HW133012   4.204   8.323   4.349  0.8225 -0.7983  0.4652
10446SOL    HW233013   4.207   8.464   4.404 -2.0538 -0.1267 -0.9009
10447SOL     OW33014   3.812   9.619   0.201  0.1542 -0.5461  0.5503
10447SOL    HW133015   3.788   9.695   0.253 -0.1687  0.5180 -1.0740
10447SOL    HW233016   3.741   9.556   0.217  0.2770 -0.4226  1.6793
10448SOL     OW33017   8.500   5.633   2.427 -0.6234  0.1808  0.4794
10448SOL    HW133018   8.412   5.613   2.459 -1.1318 -0.0392 -1.0043
10448SOL    HW233019   8.486   5.674   2.342  0.7338 -0.6258 -0.1543
10449SOL     OW33020   2.437   8.456   6.593 -0.5280  0.0463 -0.0237
10449SOL    HW133021   2.440   8.482   6.685 -0.2203 -0.9458  0.2567
10449SOL    HW233022   2.505   8.390   6.584  0.0045  0.7144 -1.1680
10450SOL     OW33023   3.393   0.122   5.586 -0.3917  0.1694  0.2339
10450SOL    HW133024   3.444   0.044   5.605 -0.6204  0.2135  1.0971
10450SOL    HW233025   3.304   0.100   5.615 -0.0503  1.4318  2.4388
10451SOL     OW33026   3.652   6.673   8.617 -0.3379  0.1643 -0.1969
10451SOL    HW133027   3.600   6.687   8.696 -1.0002  0.0528 -0.6067
10451SOL    HW233028   3.613   6.731   8.552  0.4811  0.5836 -0.3244
10452SOL     OW33029   1.947   4.710   2.775 -0.3970  0.0660  0.0599
10452SOL    HW133030   1.980   4.622   2.793 -0.1883 -0.0054 -0.6544
10452SOL    HW233031   1.890   4.730   2.850 -0.6853 -0.7928  0.0816
10453SOL     OW33032   8.987   3.784   2.901 -0.3879 -0.5595  0.1941
10453SOL    HW133033   8.910   3.807   2.850 -1.7011 -4.8437 -0.2294
10453SOL    HW233034   9.061   3.808   2.845 -1.5333  0.5568 -0.9162
10454SOL     OW33035   2.402   6.179   5.515  0.5272  0.4645 -0.2405
10454SOL    HW133036   2.403   6.187   5.420 -0.0781 -1.1203 -0.4084
10454SOL    HW233037   2.372   6.089   5.532 -3.1940  1.8006  1.4983
10455SOL     OW33038   1.485   4.121   1.999 -0.0584 -0.2554 -0.1645
10455SOL    HW133039   1.442   4.206   2.003  0.9708  0.3740 -1.6466
10455SOL    HW233040   1.578   4.141   1.985  0.3065 -1.6185  0.1040
10456SOL     OW33041   1.312   9.064   3.168  0.0567 -0.4241  0.9180
10456SOL    HW133042   1.271   9.009   3.234 -1.1828 -0.1410  0.4117
10456SOL    HW233043   1.268   9.149   3.177  0.4816 -0.1293  0.2970
10457SOL     OW33044   5.745   7.098   8.343 -0.1776  0.5575 -0.6984
10457SOL    HW133045   5.753   7.006   8.368  0.3041  0.6451 -0.5122
10457SOL    HW233046   5.828   7.137   8.370  0.3039  0.7052 -2.2782
10458SOL     OW33047   0.464   3.921   0.322  0.0263 -0.3266  0.3066
10458SOL    HW133048   0.410   3.997   0.298 -0.1154 -0.1599  1.1135
10458SOL    HW233049   0.545   3.959   0.355  0.0579 -0.5367  0.4730
10459SOL     OW33050   6.463   2.007   4.069  0.1550  0.5667 -0.1648
10459SOL    HW133051   6.397   1.952   4.112 -1.5472  2.7701  0.2111
10459SOL    HW233052   6.480   1.963   3.986 -0.1710 -1.1851  0.6366
10460SOL     OW33053   5.609   6.919   4.061  0.7627  0.0376  0.3510
10460SOL    HW133054   5.549   6.993   4.063  1.0362  0.3185 -0.8547
10460SOL    HW233055   5.570   6.858   3.998  0.7757 -0.6459  0.9859
10461SOL     OW33056   0.579   9.357   6.534  0.2331  0.1357 -0.1280
10461SOL    HW133057   0.637   9.397   6.469 -0.0506 -0.5107 -0.8049
10461SOL    HW233058   0.633   9.348   6.612  0.2283  2.0419  0.1295
10462SOL     OW33059   5.948   7.596   0.796 -0.0243  0.0687  0.2346
10462SOL    HW133060   6.040   7.570   0.789  0.3551  0.3940  2.7754
10462SOL    HW233061   5.898   7.520   0.766  0.9711  0.6703 -3.3836
10463SOL     OW33062   0.224   5.128   8.529  0.3069 -0.1824 -0.2250
10463SOL    HW133063   0.215   5.223   8.542 -1.0157 -0.3827  0.4489
10463SOL    HW233064   0.290   5.101   8.593 -1.6177 -0.1771  1.8631
10464SOL     OW33065   6.696   5.760   7.477  0.1450 -0.0205  0.6408
10464SOL    HW133066   6.775   5.760   7.423  0.8686  1.7626  1.6093
10464SOL    HW233067   6.709   5.688   7.539  1.9138  1.3429  1.9539
10465SOL     OW33068   5.746   9.027   3.414 -0.0197  0.4697 -0.6761
10465SOL    HW133069   5.740   9.104   3.358  0.0416  2.0794  1.3739
10465SOL    HW233070   5.705   8.957   3.364  0.3279  1.7036 -2.8141
10466SOL     OW33071   9.637   2.442   5.731 -0.2507  0.3210 -0.0169
10466SOL    HW133072   9.581   2.421   5.805 -1.4438  0.8399 -0.7545
10466SOL    HW233073   9.606   2.385   5.660  0.4885  0.2495 -0.2995
10467SOL     OW33074   4.919   0.181   3.650 -0.2152  0.0864 -0.0740
10467SOL    HW133075   4.923   0.101   3.702 -1.1949 -0.7149 -1.1810
10467SOL    HW233076   4.933   0.153   3.560  1.4753  1.4485 -0.2906
10468SOL     OW33077   7.380   0.985   8.110 -0.3187 -0.0492  0.4282
10468SOL    HW133078   7.442   0.912   8.112 -0.9049 -0.5418  1.0966
10468SOL    HW233079   7.409   1.039   8.036  0.5764 -0.5524  0.3992
10469SOL     OW33080   1.956   5.533   3.613 -0.4726 -0.3773  0.5947
10469SOL    HW133081   1.871   5.575   3.598 -1.2075 -0.3470  4.0566
10469SOL    HW233082   1.934   5.447   3.648  0.9448 -0.6436  0.8859
10470SOL     OW33083   1.576   4.423   8.403  0.2042  1.4506  0.0640
10470SOL    HW133084   1.582   4.471   8.485 -0.0012  1.8458 -0.1527
10470SOL    HW233085   1.629   4.344   8.418  1.4273  2.2424  0.0603
10471SOL     OW33086   4.516   6.177   3.277  0.0761 -0.0835 -0.0779
10471SOL    HW133087   4.432   6.209   3.244 -1.2409 -2.4989  0.6908
10471SOL    HW233088   4.575   6.253   3.270 -2.2170  1.8059 -0.3243
10472SOL     OW33089   5.767   2.774   2.581 -0.0946 -0.2842  0.9532
10472SOL    HW133090   5.786   2.703   2.520  2.0637  0.2650  0.8838
10472SOL    HW233091   5.779   2.735   2.668 -2.2331 -0.8196  1.0580
10473SOL     OW33092   1.631   8.589   0.995  0.4615 -0.4633 -0.1773
10473SOL    HW133093   1.580   8.625   0.922  0.7734  0.6024  0.1055
10473SOL    HW233094   1.571   8.592   1.069  1.0958  1.4932  0.3321
10474SOL     OW33095   0.470   5.838   3.803 -0.0853  0.9181  0.4991
10474SOL    HW133096   0.528   5.778   3.755  0.0049  1.4720 -0.0932
10474SOL    HW233097   0.395   5.784   3.826 -0.1058  0.6168 -0.2202
10475SOL     OW33098   2.952   1.210   7.212  0.2810  0.1922 -0.1350
10475SOL    HW133099   2.930   1.182   7.123  1.0211 -2.4001  0.3998
10475SOL    HW233100   2.935   1.304   7.213  0.8486  0.4184 -3.1929
10476SOL     OW33101   6.236   5.755   7.554 -0.4549 -0.4332  0.0840
10476SOL    HW133102   6.280   5.833   7.588 -0.3148 -0.7884  0.7401
10476SOL    HW233103   6.189   5.719   7.629 -0.5658 -0.9495 -0.2265
10477SOL     OW33104   5.953   4.936   2.060 -0.6612  0.0286 -0.6959
10477SOL    HW133105   5.994   4.933   1.974 -0.8356 -0.6168 -0.7637
10477SOL    HW233106   5.876   4.991   2.048  0.1105  1.1487 -0.5962
10478SOL     OW33107   6.922   5.885   7.322  0.6453 -0.0183  0.1015
10478SOL    HW133108   6.990   5.855   7.262  0.3344 -0.6428  0.0601
10478SOL    HW233109   6.841   5.876   7.272  0.3338 -0.9643  0.7657
10479SOL     OW33110   9.491   7.541   1.901 -0.4967 -0.1866  0.1108
10479SOL    HW133111   9.532   7.469   1.949 -0.4387  0.1767  0.6106
10479SOL    HW233112   9.398   7.517   1.898 -1.0721  1.2259  3.1125
10480SOL     OW33113   0.924   2.061   6.774 -0.2210  0.3561  0.0608
10480SOL    HW133114   0.907   1.982   6.723 -0.0476  0.0152  0.5182
10480SOL    HW233115   1.018   2.061   6.790 -0.2847  0.4011  0.4627
10481SOL     OW33116   8.120   7.645   9.540  0.1379  0.3610  0.0583
10481SOL    HW133117   8.052   7.600   9.489 -0.9582  2.1291 -0.1331
10481SOL    HW233118   8.072   7.688   9.611  1.1551  1.0094  0.3787
10482SOL     OW33119   2.754   0.529   6.722 -0.4746  0.5825 -0.3738
10482SOL    HW133120   2.847   0.537   6.698 -0.3307  1.1278  0.3231
10482SOL    HW233121   2.751   0.553   6.815 -1.0639 -1.0962  0.0918
10483SOL     OW33122   5.611   8.208   5.771  0.4811 -0.8351 -0.2848
10483SOL    HW133123   5.593   8.291   5.816  2.0786  0.3479 -1.6552
10483SOL    HW233124   5.529   8.186   5.728  0.1392  0.2767 -0.2483
10484SOL     OW33125   1.538   2.647   8.543 -0.1822 -0.4674 -0.3314
10484SOL    HW133126   1.580   2.567   8.575 -0.0797 -0.4768 -0.4927
10484SOL    HW233127   1.444   2.626   8.543 -0.1937 -0.4234  0.0881
10485SOL     OW33128   5.337   7.893   4.732 -0.1541 -0.2136  0.0710
10485SOL    HW133129   5.352   7.982   4.702 -0.0306  0.1352  1.1244
10485SOL    HW233130   5.263   7.861   4.680 -0.6754  0.7664  0.1896
10486SOL     OW33131   0.565   1.727   5.984  0.2190 -0.0527  0.3648
10486SOL    HW133132   0.572   1.685   6.069  1.7502  2.2413  1.4819
10486SOL    HW233133   0.624   1.802   5.989 -0.0916  0.5226 -2.5248
10487SOL     OW33134   8.128   1.615   0.698 -0.1379 -0.0914 -0.0271
10487SOL    HW133135   8.087   1.687   0.746 -0.8309 -2.3019  3.0164
10487SOL    HW233136   8.059   1.581   0.642 -0.4700  0.2619  0.1622
10488SOL     OW33137   0.232   0.777   1.977  0.6501 -0.6901 -0.2947
10488SOL    HW133138   0.136   0.775   1.975  0.6617 -0.5772 -1.4024
10488SOL    HW233139   0.259   0.687   1.960  0.7541 -0.7674  0.2364
10489SOL     OW33140   0.201   0.039   6.318  0.3414 -0.0568 -0.0074
10489SOL    HW133141   0.278   0.059   6.265  2.0300 -0.8525  1.9751
10489SOL    HW233142   0.235   0.034   6.408 -1.9280 -1.0475  0.8719
10490SOL     OW33143   4.643   4.422   4.812 -0.0919  0.2521 -0.2776
10490SOL    HW133144   4.559   4.406   4.855 -0.1960  0.5169 -0.3822
10490SOL    HW233145   4.699   4.352   4.843 -0.2665  0.2449  0.0262
10491SOL     OW33146   0.354   9.303   7.233  0.4485 -0.3919  0.0111
10491SOL    HW133147   0.446   9.320   7.213 -0.0541  0.7051 -1.5738
10491SOL    HW233148   0.333   9.363   7.305  1.2459 -1.5222  1.2372
10492SOL     OW33149   8.791   6.426   3.057 -0.0698  0.4369  0.1264
10492SOL    HW133150   8.789   6.518   3.033 -1.8723  0.0451 -1.4679
10492SOL    HW233151   8.787   6.380   2.973  0.6616 -1.1075  0.8990
10493SOL     OW33152   7.491   6.820   6.533  0.5782 -0.1627 -0.2656
10493SOL    HW133153   7.520   6.734   6.502  0.8864 -0.4431  0.7464
10493SOL    HW233154   7.435   6.800   6.607 -0.7935  0.4576 -1.1107
10494SOL     OW33155   7.324   3.867   3.002  0.3640  0.0861 -0.1943
10494SOL    HW133156   7.322   3.961   3.018  0.1084 -0.2306  1.9773
10494SOL    HW233157   7.232   3.840   3.007  0.4922 -0.3606 -0.2189
10495SOL     OW33158   3.456   3.964   1.997 -0.3601 -0.7473 -0.2371
10495SOL    HW133159   3.382   3.979   1.938 -0.7355  0.8917  0.5830
10495SOL    HW233160   3.416   3.957   2.084  0.4633  1.6592  0.4403
10496SOL     OW33161   2.724   0.180   8.691 -0.6743 -0.4513  0.2997
10496SOL    HW133162   2.731   0.148   8.602 -0.0018 -1.3054  0.6434
10496SOL    HW233163   2.809   0.218   8.710 -0.4326 -1.2625  0.9273
10497SOL     OW33164   3.675   5.301   6.473  0.3096  0.1316  0.4686
10497SOL    HW133165   3.736   5.339   6.536  1.7926 -0.4635 -0.5448
10497SOL    HW233166   3.720   5.310   6.389 -1.7463  1.2318 -0.6027
10498SOL     OW33167   8.418   2.679   3.265  0.3687 -0.5920  0.3014
10498SOL    HW133168   8.372   2.596   3.276  0.1393 -0.4618  0.3417
10498SOL    HW233169   8.432   2.686   3.171  0.3399 -0.6534  0.2923
10499SOL     OW33170   2.155   9.579   0.238 -0.3727  0.5135 -0.3571
10499SOL    HW133171   2.068   9.602   0.272  0.0872 -0.8608  1.9204
10499SOL    HW233172   2.153   9.483   0.229  1.6057  0.1552  2.0320
10500SOL     OW33173   1.411   9.276   5.744 -0.2508 -0.3338 -0.3618
10500SOL    HW133174   1.343   9.210   5.756  0.1182 -0.7434 -0.5148
10500SOL    HW233175   1.449   9.287   5.831 -1.9619  1.5111  0.2347
10501SOL     OW33176   4.806   4.614   7.792 -0.5457  0.2751  0.0769
10501SOL    HW133177   4.877   4.629   7.730 -1.8482 -0.5044 -1.7074
10501SOL    HW233178   4.756   4.542   7.754 -0.5507 -1.3236  2.8657
10502SOL     OW33179   5.133   8.572   9.387 -0.2708 -0.5214  0.6959
10502SOL    HW133180   5.040   8.553   9.372  0.0490 -1.3505 -0.2981
10502SOL    HW233181   5.136   8.667   9.397 -1.2357 -0.4899  0.8200
10503SOL     OW33182   6.710   2.503   7.203  0.1257  0.1753  0.2361
10503SOL    HW133183   6.660   2.564   7.149  0.6889  0.0562 -0.4468
10503SOL    HW233184   6.647   2.469   7.266 -0.1823  1.5099  0.6747
10504SOL     OW33185   1.178   1.248   9.518  0.0790  0.0903  0.0751
10504SOL    HW133186   1.218   1.187   9.580 -1.9506  0.6259  2.0221
10504SOL    HW233187   1.251   1.297   9.481  1.3524  0.0844  2.4222
10505SOL     OW33188   1.409   1.335   3.973  0.6347  0.2066  0.2059
10505SOL    HW133189   1.348   1.318   3.901  1.5574  1.6584 -0.9893
10505SOL    HW233190   1.472   1.397   3.936  3.8980 -2.4887  0.7709
10506SOL     OW33191   2.483   0.525   1.670  0.1854  0.4528  0.3014
10506SOL    HW133192   2.575   0.500   1.681  0.1646 -0.8955 -1.9989
10506SOL    HW233193   2.435   0.443   1.676 -0.5551  0.7378 -1.2720
10507SOL     OW33194   0.027   2.602   1.370 -0.0274 -0.0917  0.5034
10507SOL    HW133195   0.076   2.677   1.406  2.3854 -0.8059 -1.0471
10507SOL    HW233196   0.041   2.607   1.276 -1.8423 -1.1675  0.1401
10508SOL     OW33197   3.946   2.198   1.339 -0.2062 -0.3711  0.3851
10508SOL    HW133198   3.978   2.283   1.369 -0.8953  0.0165  0.0507
10508SOL    HW233199   3.853   2.211   1.324 -0.1014 -0.8622 -0.8080
10509SOL     OW33200   6.261   4.219   4.942  0.1501 -0.1381 -0.2354
10509SOL    HW133201   6.342   4.269   4.930 -0.5033  1.1846  0.6810
10509SOL    HW233202   6.207   4.273   4.999 -1.5776 -0.7897 -1.1654
10510SOL     OW33203   9.164   5.517   4.988  0.0168 -0.2072 -0.3639
10510SOL    HW133204   9.204   5.432   4.972  0.5596  0.4035 -2.6732
10510SOL    HW233205   9.220   5.579   4.942 -1.1741  1.2350  0.0271
10511SOL     OW33206   0.784   1.818   1.785 -0.1811 -0.2511  0.2319
10511SOL    HW133207   0.750   1.823   1.696 -0.3635 -0.5582  0.2834
10511SOL    HW233208   0.863   1.872   1.784 -0.0110 -0.5094 -0.1920
10512SOL     OW33209   7.644   4.496   3.269 -0.6482 -0.1957 -0.3619
10512SOL    HW133210   7.673   4.576   3.224 -1.4525  0.0892 -0.3801
10512SOL    HW233211   7.698   4.427   3.231  0.1114  0.3436 -0.2902
10513SOL     OW33212   9.518   7.401   9.389  0.2127 -0.4082  0.3271
10513SOL    HW133213   9.605   7.415   9.427 -0.2895  1.8600  0.7818
10513SOL    HW233214   9.532   7.402   9.295  0.6775  0.0723  0.3964
10514SOL     OW33215   1.487   1.236   6.287  0.3110  0.4960  0.1904
10514SOL    HW133216   1.452   1.325   6.285  0.5307  0.5726 -1.0035
10514SOL    HW233217   1.418   1.182   6.248 -0.5648 -0.1828  2.4534
10515SOL     OW33218   0.750   9.474   4.156 -0.2357  0.4236 -0.0404
10515SOL    HW133219   0.709   9.459   4.070 -0.7585  1.8399 -0.0769
10515SOL    HW233220   0.802   9.553   4.143  0.1191  0.3314  0.8077
10516SOL     OW33221   5.214   2.329   3.047  0.0458  0.2580  0.2482
10516SOL    HW133222   5.179   2.332   3.136 -0.7941  0.5494 -0.0830
10516SOL    HW233223   5.306   2.354   3.057  0.2954 -0.9605  1.1835
10517SOL     OW33224   1.426   2.850   6.303 -0.0794  0.1436 -0.6534
10517SOL    HW133225   1.346   2.875   6.348 -0.6838 -0.6081 -1.2749
10517SOL    HW233226   1.398   2.784   6.240  1.1503 -0.7077 -0.3486
10518SOL     OW33227   2.470   9.280   8.595  0.6473  0.3729 -0.2267
10518SOL    HW133228   2.496   9.324   8.676  2.3030 -0.9752  0.0246
10518SOL    HW233229   2.545   9.226   8.571 -1.1613 -2.1707 -0.6137
10519SOL     OW33230   7.608   7.828   4.301 -0.3179 -0.7726 -0.1271
10519SOL    HW133231   7.549   7.885   4.250  0.4049  0.2325  0.1233
10519SOL    HW233232   7.673   7.798   4.237 -0.6048 -1.2029 -0.2237
10520SOL     OW33233   4.695   1.425   3.970  0.2315 -0.4302 -0.7715
10520SOL    HW133234   4.678   1.503   4.022  1.4470 -0.0015 -0.9833
10520SOL    HW233235   4.609   1.382   3.962 -0.3115  0.4755 -0.0249
10521SOL     OW33236   8.279   4.320   1.869 -0.1092  0.9090  0.2027
10521SOL    HW133237   8.357   4.281   1.909  0.5964  1.2325 -0.8073
10521SOL    HW233238   8.287   4.413   1.887 -1.4983  0.7275  2.1114
10522SOL     OW33239   9.318   2.968   7.014 -0.1330 -0.5453 -0.0878
10522SOL    HW133240   9.223   2.978   7.020 -0.2688 -1.5959 -0.3095
10522SOL    HW233241   9.342   3.017   6.935  0.0539  2.9199  1.9346
10523SOL     OW33242   1.267   5.783   6.324 -0.2933  0.0618  1.1274
10523SOL    HW133243   1.356   5.747   6.314 -0.0741  0.9520 -0.5046
10523SOL    HW233244   1.210   5.713   6.292 -0.1933 -0.4554  2.0377
10524SOL     OW33245   2.909   5.065   0.352 -0.1379 -0.3749 -0.1228
10524SOL    HW133246   2.938   4.975   0.338  0.5081  0.1093 -2.2797
10524SOL    HW233247   2.946   5.089   0.437  1.8547 -1.3322 -0.6545
10525SOL     OW33248   8.502   8.879   1.059  0.5853 -0.3624  0.1515
10525SOL    HW133249   8.578   8.937   1.063 -0.4093  0.9104  1.4714
10525SOL    HW233250   8.535   8.794   1.090  1.2680  0.3998  1.5900
10526SOL     OW33251   4.003   5.194   7.721 -0.0944 -0.2845 -0.2514
10526SOL    HW133252   4.069   5.130   7.749 -1.5250 -3.5183 -3.3571
10526SOL    HW233253   4.045   5.242   7.650 -0.1548 -0.3396 -0.3248
10527SOL     OW33254   1.455   1.974   7.911  0.0847 -0.5740 -0.1573
10527SOL    HW133255   1.434   1.949   8.001  1.3215 -0.7792  0.1000
10527SOL    HW233256   1.372   1.966   7.864 -0.7689  0.3336  1.1257
10528SOL     OW33257   8.139   5.485   3.510 -0.2535 -0.2451  0.2635
10528SOL    HW133258   8.225   5.457   3.540  0.6854  1.3577 -0.7776
10528SOL    HW233259   8.101   5.408   3.468  0.7343 -0.9286  0.6051
10529SOL     OW33260   1.627   9.639   9.066 -0.4886 -0.8001  0.1054
10529SOL    HW133261   1.646   9.630   9.160 -0.2059 -1.1844  0.0116
10529SOL    HW233262   1.667   9.723   9.042 -1.0911 -0.4010  0.4586
10530SOL     OW33263   5.463   8.915   7.294  0.3068 -0.6728  0.0635
10530SOL    HW133264   5.481   8.961   7.212  1.2096 -0.0609  0.5937
10530SOL    HW233265   5.540   8.930   7.348 -0.4504 -0.7151  1.1936
10531SOL     OW33266   0.548   1.472   6.476  0.2157  0.3031 -0.2702
10531SOL    HW133267   0.592   1.554   6.499  0.1774  0.3867 -0.4953
10531SOL    HW233268   0.576   1.410   6.543  0.1671  0.5261 -0.0441
10532SOL     OW33269   0.092   2.782   1.925 -0.1124  0.3754  0.2223
10532SOL    HW133270   0.123   2.869   1.901 -5.4774  2.0017 -2.4706
10532SOL    HW233271   0.063   2.744   1.841  0.9610 -3.6249  1.4623
10533SOL     OW33272   6.303   6.222   9.432 -0.2597  0.5271  0.0671
10533SOL    HW133273   6.380   6.213   9.489 -0.2208 -1.4353 -0.2334
10533SOL    HW233274   6.229   6.204   9.489 -0.3522  0.3174 -0.1200
10534SOL     OW33275   5.968   4.732   5.057 -0.1261  0.3533 -0.0984
10534SOL    HW133276   5.949   4.662   5.118 -0.9928  1.3466  0.8128
10534SOL    HW233277   5.931   4.703   4.974  0.1087 -0.5397  0.1079
10535SOL     OW33278   5.779   4.391   0.063 -0.3942  0.0659 -0.2690
10535SOL    HW133279   5.734   4.429  -0.012  1.3848  0.9073 -0.9789
10535SOL    HW233280   5.864   4.436   0.065 -0.5775  0.4399  2.5534
10536SOL     OW33281   4.980   8.310   2.089 -0.5520 -0.2625  0.4195
10536SOL    HW133282   5.010   8.265   2.167  1.6850 -0.6574 -0.5838
10536SOL    HW233283   5.016   8.398   2.097 -0.7703 -0.1428  0.0903
10537SOL     OW33284   3.601   4.138   1.720 -0.0336 -0.0123 -0.0380
10537SOL    HW133285   3.619   4.047   1.742 -1.7945  0.0796  1.9656
10537SOL    HW233286   3.662   4.189   1.774  0.4668  0.0594 -0.6464
10538SOL     OW33287   4.477   6.161   0.809 -0.2995 -0.2656 -0.4049
10538SOL    HW133288   4.386   6.174   0.838  0.0921 -1.4675  1.5697
10538SOL    HW233289   4.521   6.243   0.832 -0.7464  0.1033 -0.8357
10539SOL     OW33290   9.164   0.902   1.653 -0.0478 -0.2232 -0.0131
10539SOL    HW133291   9.160   0.947   1.737  0.8770  1.7192 -0.9362
10539SOL    HW233292   9.073   0.899   1.623 -0.6667 -2.5270  1.7481
10540SOL     OW33293   7.700   5.925   2.430 -0.5207  0.5789 -0.0515
10540SOL    HW133294   7.619   5.956   2.470  0.4958  2.6508  0.5359
10540SOL    HW233295   7.755   6.003   2.422  1.7310 -0.8540  0.3394
10541SOL     OW33296   1.430   6.155   1.123  0.7972 -0.6310  0.0175
10541SOL    HW133297   1.441   6.247   1.101  1.3713 -0.3569  1.4022
10541SOL    HW233298   1.423   6.111   1.038  1.7837  0.5244 -0.6853
10542SOL     OW33299   7.207   3.550   4.875 -0.0625  0.1825 -0.6343
10542SOL    HW133300   7.268   3.607   4.922  1.4088 -0.0993 -2.1389
10542SOL    HW233301   7.219   3.464   4.914  1.8672 -0.2600 -2.1023
10543SOL     OW33302   8.432   2.114   4.781 -0.5236 -0.2420  0.1232
10543SOL    HW133303   8.340   2.103   4.803 -0.4482 -0.0085  0.5831
10543SOL    HW233304   8.477   2.049   4.834 -0.4597 -0.6624 -0.4391
10544SOL     OW33305   7.463   4.539   3.706  0.2558 -0.8645 -0.0789
10544SOL    HW133306   7.555   4.559   3.686  0.2201 -1.1232 -0.5177
10544SOL    HW233307   7.423   4.624   3.724 -0.3824 -0.2035 -3.8923
10545SOL     OW33308   9.100   9.117   2.429 -0.1160 -0.6758  0.1296
10545SOL    HW133309   9.110   9.158   2.515  1.3110  0.7587 -0.6794
10545SOL    HW233310   9.006   9.102   2.421 -0.7603  2.4184  0.5381
10546SOL     OW33311   3.075   5.800   4.326 -0.9413  0.0251 -0.0957
10546SOL    HW133312   3.062   5.821   4.418  2.1664  0.7672  0.2601
10546SOL    HW233313   3.112   5.879   4.288 -2.1446 -0.2768 -2.0262
10547SOL     OW33314   8.081   9.505   2.515  0.5671  0.9453  0.0707
10547SOL    HW133315   8.159   9.545   2.476 -0.0079  2.6152  0.5523
10547SOL    HW233316   8.010   9.532   2.457  0.4206 -1.3733 -0.9215
10548SOL     OW33317   2.926   9.303   3.563  0.2306  0.7075 -0.4587
10548SOL    HW133318   2.975   9.226   3.536  0.7292  0.5146  0.9124
10548SOL    HW233319   2.845   9.300   3.511 -0.3259 -1.4123  0.4149
10549SOL     OW33320   4.130   7.855   0.891 -0.5346  0.0243  0.6741
10549SOL    HW133321   4.102   7.861   0.799 -0.3946 -0.7461  0.5761
10549SOL    HW233322   4.106   7.766   0.917 -1.1988  0.4592  1.5934
10550SOL     OW33323   6.412   1.996   5.688 -0.3888  0.2258 -0.1484
10550SOL    HW133324   6.467   2.052   5.743  0.2732  0.4857 -1.0345
10550SOL    HW233325   6.324   2.005   5.724  0.1490 -0.2535  1.3525
10551SOL     OW33326   7.424   4.432   8.328 -0.4609  0.9171 -0.4534
10551SOL    HW133327   7.406   4.484   8.250 -0.0166  0.0065 -1.1740
10551SOL    HW233328   7.385   4.347   8.310  1.2790  0.0774 -0.5103
10552SOL     OW33329   3.355   4.721   6.727  0.1358  0.4433  0.1594
10552SOL    HW133330   3.450   4.728   6.720  0.1436 -0.8671 -1.7118
10552SOL    HW233331   3.321   4.773   6.654 -0.5166 -0.3904 -0.1504
10553SOL     OW33332   9.468   2.538   3.474  0.9449  0.1557 -0.0657
10553SOL    HW133333   9.560   2.562   3.484  0.4438  1.2907  2.4645
10553SOL    HW233334   9.461   2.451   3.513  0.6566  0.8049  1.3791
10554SOL     OW33335   6.101   4.179   1.684  0.5403  0.2526  0.5550
10554SOL    HW133336   6.061   4.239   1.748 -2.8220 -0.7034 -0.4638
10554SOL    HW233337   6.109   4.096   1.731 -0.9050 -0.1577  0.1215
10555SOL     OW33338   4.976   8.838   1.004  1.1195 -0.3276  0.0912
10555SOL    HW133339   5.023   8.786   1.069 -0.5073  0.4969  2.0550
10555SOL    HW233340   4.971   8.926   1.043 -0.8259 -0.0671 -0.6267
10556SOL     OW33341   0.331   4.398   8.162 -0.3812 -0.5272  0.4658
10556SOL    HW133342   0.327   4.305   8.140  1.8507 -0.4970 -0.3019
10556SOL    HW233343   0.400   4.404   8.228 -1.3613  0.4541  1.4498
10557SOL     OW33344   1.919   0.303   1.461  0.0422 -0.4588  0.3394
10557SOL    HW133345   1.886   0.377   1.409 -0.0270 -0.2256  0.7087
10557SOL    HW233346   1.842   0.272   1.509  0.7338  1.5410  2.9879
10558SOL     OW33347   4.709   2.477   4.378  0.1107 -0.2008 -0.1790
10558SOL    HW133348   4.614   2.478   4.388  0.1550  2.8122  1.0630
10558SOL    HW233349   4.741   2.430   4.455 -0.3483 -1.6486 -0.8495
10559SOL     OW33350   8.127   0.096   0.355 -0.3260 -0.5078 -0.0788
10559SOL    HW133351   8.075   0.136   0.425 -0.8910 -0.2428 -0.6400
10559SOL    HW233352   8.205   0.151   0.348 -1.3469  0.8516 -1.2057
10560SOL     OW33353   7.198   4.373   2.945 -0.0906  0.3902 -0.1225
10560SOL    HW133354   7.239   4.443   2.995 -1.9484  0.6140  1.1807
10560SOL    HW233355   7.188   4.409   2.856 -0.2751  1.4789  0.3243
10561SOL     OW33356   2.777   0.980   4.284  0.4338  0.4916 -0.2714
10561SOL    HW133357   2.746   1.047   4.222 -2.8868  0.4334  1.1497
10561SOL    HW233358   2.819   0.915   4.228 -2.5738  0.3308 -2.6115
10562SOL     OW33359   6.274   4.820   3.370 -0.0765  0.3866  0.1084
10562SOL    HW133360   6.329   4.769   3.310 -1.0292  0.2679 -0.6904
10562SOL    HW233361   6.203   4.761   3.393  0.8834  0.0119  2.3328
10563SOL     OW33362   9.467   8.220   7.686  0.0135  0.2612 -0.2331
10563SOL    HW133363   9.484   8.152   7.752  1.3983  0.6225 -0.1771
10563SOL    HW233364   9.469   8.174   7.603  2.5739  0.4131 -0.3311
10564SOL     OW33365   1.757   5.660   7.214 -0.3119  0.9738 -0.0288
10564SOL    HW133366   1.826   5.603   7.181 -1.1412 -0.8044  1.1610
10564SOL    HW233367   1.693   5.665   7.143 -0.7124 -0.4459  0.2048
10565SOL     OW33368   2.515   7.238   4.914  0.8370  0.2200  0.2579
10565SOL    HW133369   2.461   7.201   4.984 -0.0467  0.6302 -0.1929
10565SOL    HW233370   2.460   7.304   4.872  0.3176 -1.7919 -2.5260
10566SOL     OW33371   6.387   5.291   9.075  0.2839  0.8704  0.1245
10566SOL    HW133372   6.468   5.253   9.039 -0.1234 -0.5146  0.5968
10566SOL    HW233373   6.401   5.386   9.070  1.0767  0.7014 -1.7280
10567SOL     OW33374   3.578   0.842   2.607  0.1034  0.5160 -0.0236
10567SOL    HW133375   3.650   0.847   2.545 -0.9183 -1.9961 -1.5693
10567SOL    HW233376   3.500   0.863   2.555 -0.7490 -1.3640  0.3845
10568SOL     OW33377   4.829   3.717   9.215  0.5794  0.3197  0.2420
10568SOL    HW133378   4.860   3.709   9.125 -1.5826 -0.6786 -0.4696
10568SOL    HW233379   4.815   3.627   9.245 -0.3920  0.6753  0.9381
10569SOL     OW33380   9.549   9.547   1.021  0.2916 -0.1801  0.0402
10569SOL    HW133381   9.635   9.524   1.057  0.9502  2.0359  0.0133
10569SOL    HW233382   9.492   9.554   1.098  0.8678  1.1582  0.3823
10570SOL     OW33383   9.498   7.588   8.357  0.1525  0.0590  0.4316
10570SOL    HW133384   9.583   7.553   8.329 -0.6086 -2.4063  0.9467
10570SOL    HW233385   9.488   7.668   8.306  3.0817  0.8385  0.8949
10571SOL     OW33386   0.495   2.235   1.385  0.1043  0.1404 -0.0626
10571SOL    HW133387   0.540   2.182   1.319  0.6224 -0.7658  1.0073
10571SOL    HW233388   0.561   2.296   1.416  0.0902  0.0028  0.2324
10572SOL     OW33389   6.250   5.319   0.979  0.1282 -0.2922 -0.2595
10572SOL    HW133390   6.242   5.334   1.074 -0.6122 -0.1466 -0.3392
10572SOL    HW233391   6.293   5.234   0.972  0.5442 -0.1257  0.2108
10573SOL     OW33392   6.072   7.358   1.151 -0.2982 -0.2415  0.3311
10573SOL    HW133393   6.071   7.449   1.182  0.7936 -0.0573 -0.1414
10573SOL    HW233394   6.165   7.336   1.145 -0.5584 -1.4618  0.6291
10574SOL     OW33395   8.864   8.866   4.791  0.2912  0.4260  0.1665
10574SOL    HW133396   8.867   8.947   4.740  0.5583  0.6261  0.4943
10574SOL    HW233397   8.934   8.876   4.855 -0.9525  0.8327  1.5260
10575SOL     OW33398   3.311   4.173   1.280 -0.1372 -0.4550  0.2789
10575SOL    HW133399   3.328   4.247   1.338 -3.3900 -0.7361  1.8316
10575SOL    HW233400   3.291   4.212   1.195  0.2701  0.2709  0.5121
10576SOL     OW33401   3.767   7.965   8.245 -0.2262 -0.7071 -0.4323
10576SOL    HW133402   3.783   7.972   8.339 -0.0962 -0.0910 -0.4913
10576SOL    HW233403   3.807   7.882   8.219  0.9192 -0.2645 -0.1713
10577SOL     OW33404   7.713   8.550   2.425 -0.0020 -0.3961  0.3607
10577SOL    HW133405   7.678   8.562   2.337 -2.0049  0.1914  1.1691
10577SOL    HW233406   7.716   8.455   2.437 -1.2723 -0.4687  0.2099
10578SOL     OW33407   4.946   4.244   3.720 -0.0294  0.6118  0.3465
10578SOL    HW133408   4.870   4.233   3.662 -0.3876  1.7206  0.5652
10578SOL    HW233409   4.944   4.168   3.777  0.8979 -1.0469 -1.6743
10579SOL     OW33410   7.592   7.751   5.073 -0.4106 -0.2855 -0.2730
10579SOL    HW133411   7.516   7.808   5.064 -1.3380 -1.4439  0.0238
10579SOL    HW233412   7.616   7.728   4.984 -0.2119  0.3112 -0.3798
10580SOL     OW33413   4.366   3.016   6.578 -0.2162 -0.6755  0.2089
10580SOL    HW133414   4.282   3.058   6.597 -0.3198 -1.1790  0.9072
10580SOL    HW233415   4.432   3.073   6.617 -0.2885 -0.6662  0.3177
10581SOL     OW33416   1.731   3.808   8.690 -0.0972  0.3341 -0.1188
10581SOL    HW133417   1.673   3.851   8.754  0.5581  2.6808 -0.9873
10581SOL    HW233418   1.722   3.715   8.709 -3.6405  0.5850  0.2379
10582SOL     OW33419   7.765   9.657   8.594 -0.4668  0.6608 -0.1625
10582SOL    HW133420   7.748   9.712   8.670 -1.4299 -0.5704  0.5705
10582SOL    HW233421   7.680   9.617   8.574 -0.6728  2.2555 -2.9970
10583SOL     OW33422   2.833   7.686   5.900 -0.6021  0.0133  0.1207
10583SOL    HW133423   2.771   7.726   5.961  0.1048  0.1869  0.7484
10583SOL    HW233424   2.779   7.646   5.832 -1.3739  0.5861  0.3922
10584SOL     OW33425   4.794   1.972   6.346  0.4403 -0.1900 -0.1530
10584SOL    HW133426   4.830   1.976   6.434  0.2898 -1.6137  0.0011
10584SOL    HW233427   4.708   2.013   6.353  0.4188 -0.3140  0.3796
10585SOL     OW33428   8.866   0.235   2.329 -0.0714  0.3352  0.4918
10585SOL    HW133429   8.838   0.281   2.408  1.2349 -0.1592  1.2726
10585SOL    HW233430   8.923   0.165   2.361  0.1435 -0.1434 -0.8686
10586SOL     OW33431   3.233   0.830   0.425  0.6103  0.3640 -0.4278
10586SOL    HW133432   3.299   0.879   0.475 -0.1136  1.4161 -0.4634
10586SOL    HW233433   3.178   0.898   0.386 -0.7648 -0.4957 -0.0296
10587SOL     OW33434   0.308   1.913   3.531  0.1512 -0.6779  0.4915
10587SOL    HW133435   0.218   1.945   3.542  0.4306 -0.1460  1.3413
10587SOL    HW233436   0.352   1.983   3.483  0.1144 -0.9502  0.0532
10588SOL     OW33437   3.835   4.353   6.711  0.0853  0.1066  0.2208
10588SOL    HW133438   3.883   4.434   6.694 -0.1086  0.1350 -0.1884
10588SOL    HW233439   3.789   4.369   6.794 -1.3339  1.0644 -0.7065
10589SOL     OW33440   4.804   6.771   9.586 -0.0572  0.6525 -0.1565
10589SOL    HW133441   4.742   6.795   9.517  0.6221  2.2888 -0.2541
10589SOL    HW233442   4.838   6.686   9.559 -1.2271  0.3610 -0.8160
10590SOL     OW33443   5.096   8.410   3.813 -0.3971  0.2317  0.3699
10590SOL    HW133444   5.010   8.372   3.827 -1.7856  2.3350 -1.6122
10590SOL    HW233445   5.107   8.411   3.718  2.5680 -1.3984  0.5849
10591SOL     OW33446   2.527   7.286   7.226 -0.2589  0.2023  0.3637
10591SOL    HW133447   2.616   7.256   7.209 -0.2894  0.4074 -0.1914
10591SOL    HW233448   2.510   7.350   7.156 -0.9265 -0.0113  0.3246
10592SOL     OW33449   0.714   2.887   6.912 -0.1986  0.0923 -0.1809
10592SOL    HW133450   0.695   2.921   6.824  0.2555 -2.3339 -1.2850
10592SOL    HW233451   0.669   2.948   6.971 -0.3532  1.9164 -2.0463
10593SOL     OW33452   1.071   8.836   3.641 -0.3827  0.0061 -0.1200
10593SOL    HW133453   1.030   8.862   3.724 -0.7898  0.4082 -0.4462
10593SOL    HW233454   1.141   8.776   3.668  0.6381  1.4643  0.6633
10594SOL     OW33455   7.904   1.140   5.347 -0.0323 -0.2351  0.1256
10594SOL    HW133456   7.988   1.146   5.393 -0.2621 -3.2838  1.1498
10594SOL    HW233457   7.864   1.059   5.380 -3.2688  0.9454 -0.5490
10595SOL     OW33458   4.608   8.975   1.212  0.2949 -0.6605  0.2852
10595SOL    HW133459   4.636   9.056   1.169 -1.3660 -0.1788  0.0310
10595SOL    HW233460   4.690   8.928   1.231  1.8002  2.9532  4.3881
10596SOL     OW33461   1.061   5.821   8.738 -0.3298  0.4365 -0.0130
10596SOL    HW133462   1.152   5.813   8.706  0.3695 -1.0982  2.1910
10596SOL    HW233463   1.008   5.795   8.663  1.1667 -1.2012 -0.5814
10597SOL     OW33464   6.956   8.396   7.352  0.6131  0.2012  0.1261
10597SOL    HW133465   7.049   8.375   7.358  0.5994 -0.2531 -1.0316
10597SOL    HW233466   6.953   8.478   7.303  0.3401 -0.6076 -1.2436
10598SOL     OW33467   2.936   8.720   4.434  0.1174 -0.2957  0.1292
10598SOL    HW133468   2.947   8.711   4.340 -1.8059  2.1035 -0.4353
10598SOL    HW233469   2.886   8.801   4.445  1.7015  0.4328  3.3234
10599SOL     OW33470   8.006   0.979   4.851 -0.2337  0.3196  0.2378
10599SOL    HW133471   8.093   0.981   4.892  0.1307 -1.4549 -0.3234
10599SOL    HW233472   8.024   0.995   4.758  0.0156 -3.0709 -0.4532
10600SOL     OW33473   8.453   6.663   6.415  0.2700 -0.0298  0.0806
10600SOL    HW133474   8.498   6.722   6.355  1.7317 -1.5993 -0.4572
10600SOL    HW233475   8.362   6.662   6.383  0.7607  0.0773 -1.4132
10601SOL     OW33476   4.681   4.368   7.670  0.9511 -0.0848  0.0778
10601SOL    HW133477   4.664   4.305   7.740  1.9727  1.5666  1.9240
10601SOL    HW233478   4.606   4.362   7.612 -0.7820 -0.3629  2.2359
10602SOL     OW33479   5.845   5.751   4.303  0.6520 -0.5232  0.3576
10602SOL    HW133480   5.870   5.837   4.268 -0.0913 -0.1534  0.7148
10602SOL    HW233481   5.855   5.759   4.398  1.0659 -1.0010  0.3631
10603SOL     OW33482   4.819   6.454   3.938 -0.0706 -0.0406  0.4725
10603SOL    HW133483   4.896   6.409   3.905 -0.5105 -0.7689  0.4120
10603SOL    HW233484   4.849   6.543   3.956  0.6381 -0.1519 -0.0966
10604SOL     OW33485   2.798   5.790   1.396  0.4625 -0.5493 -0.6348
10604SOL    HW133486   2.788   5.737   1.475  3.0889  0.0388  0.1654
10604SOL    HW233487   2.711   5.789   1.356 -1.0512 -0.6391  2.3725
10605SOL     OW33488   4.652   4.785   9.481 -0.2068  0.3907  0.4250
10605SOL    HW133489   4.680   4.699   9.449  0.3297 -0.1026  2.1179
10605SOL    HW233490   4.721   4.845   9.454 -0.6736  0.3564 -0.9271
10606SOL     OW33491   1.205   6.208   9.600  0.4755 -0.0682  0.0120
10606SOL    HW133492   1.142   6.170   9.662  0.8258 -0.1588  0.3192
10606SOL    HW233493   1.173   6.296   9.584  0.7479  0.1965  0.8639
10607SOL     OW33494   8.271   2.743   0.605 -0.0221  0.6396  0.1423
10607SOL    HW133495   8.248   2.771   0.694 -0.7335  0.8600 -0.0964
10607SOL    HW233496   8.234   2.655   0.597  0.5928  0.3661  0.2719
10608SOL     OW33497   2.658   8.994   9.592  0.1947 -0.1331  0.2032
10608SOL    HW133498   2.639   8.919   9.649  0.2821  0.3794  0.9280
10608SOL    HW233499   2.692   9.061   9.652 -1.1350  0.9659 -0.2060
10609SOL     OW33500   5.578   0.964   8.353 -0.4631  0.1191  0.0715
10609SOL    HW133501   5.496   0.942   8.397 -1.3153  0.3549 -1.3292
10609SOL    HW233502   5.558   1.045   8.305  0.7199  0.4243  0.0676
10610SOL     OW33503   8.435   4.602   8.774  0.0600  0.0574  0.4338
10610SOL    HW133504   8.373   4.579   8.844  0.2609  0.3929  0.7284
10610SOL    HW233505   8.380   4.636   8.704 -0.2489 -1.3442 -0.0366
10611SOL     OW33506   8.859   5.318   3.725 -0.2518  0.0165  0.2467
10611SOL    HW133507   8.822   5.387   3.780  0.8180  0.5304  0.3410
10611SOL    HW233508   8.854   5.239   3.780  1.8843  0.7388  1.6119
10612SOL     OW33509   2.979   2.669   2.840 -0.2498  0.2216  0.5910
10612SOL    HW133510   2.925   2.740   2.877 -0.0297  0.9441 -0.4381
10612SOL    HW233511   3.061   2.673   2.889 -0.5783  0.0747  1.1603
10613SOL     OW33512   9.607   3.973   2.509 -0.4608  0.4791  0.1159
10613SOL    HW133513   9.594   4.058   2.551  0.4672  0.1899  1.0207
10613SOL    HW233514   9.693   3.979   2.468  0.6729 -0.7585  2.1353
10614SOL     OW33515   9.641   6.765   0.955 -0.0565 -0.6895 -0.4111
10614SOL    HW133516   9.657   6.782   0.862  2.2725 -0.9096 -0.0960
10614SOL    HW233517   9.703   6.697   0.979  1.2653  1.1488  1.8819
10615SOL     OW33518   6.912   5.384   5.695  0.0659  0.5179  0.0395
10615SOL    HW133519   6.942   5.328   5.767 -2.3128  0.8124  1.3830
10615SOL    HW233520   6.923   5.473   5.728  1.3691  0.7834 -1.0406
10616SOL     OW33521   9.358   5.429   7.299 -0.2558  0.0751  0.2567
10616SOL    HW133522   9.347   5.524   7.292 -1.8170 -0.0608  0.4702
10616SOL    HW233523   9.439   5.418   7.349  0.7004  1.2606 -0.9633
10617SOL     OW33524   5.717   5.114   8.392  0.5189 -0.3330 -0.1324
10617SOL    HW133525   5.752   5.129   8.480  0.3419 -1.1621  0.0898
10617SOL    HW233526   5.630   5.154   8.393  1.2904  1.4668 -0.5919
10618SOL     OW33527   6.095   0.443   8.917  0.2204 -0.5182 -0.2600
10618SOL    HW133528   6.077   0.432   9.011 -0.7237 -1.5979 -0.5509
10618SOL    HW233529   6.132   0.532   8.911 -2.2383  0.6837  0.8186
10619SOL     OW33530   5.951   5.977   3.430 -0.0383 -0.1350 -0.4858
10619SOL    HW133531   5.954   5.900   3.487 -0.3349  1.3395  1.6779
10619SOL    HW233532   6.037   5.981   3.389  0.7680 -0.4045  1.1169
10620SOL     OW33533   6.314   9.076   6.595  0.7306 -0.2369 -0.0575
10620SOL    HW133534   6.392   9.131   6.586 -1.7181  3.4189 -0.9888
10620SOL    HW233535   6.276   9.102   6.679  0.6439 -2.2803  0.5908
10621SOL     OW33536   2.111   6.000   6.035  0.2193  0.3406  0.1055
10621SOL    HW133537   2.085   5.909   6.049  0.3074  0.4524  1.1075
10621SOL    HW233538   2.152   6.026   6.118 -0.7720  1.6079  0.2353
10622SOL     OW33539   2.714   6.675   9.351 -0.1099  0.1082  0.1990
10622SOL    HW133540   2.709   6.710   9.440  1.7042  0.1000  0.3472
10622SOL    HW233541   2.707   6.752   9.294  0.2514  0.2948  0.4038
10623SOL     OW33542   9.650   7.993   1.954  0.4381 -0.3190  0.2012
10623SOL    HW133543   9.643   7.919   2.014 -0.1513 -0.4957 -0.0801
10623SOL    HW233544   9.603   8.064   1.997 -2.7893 -1.3190 -1.3934
10624SOL     OW33545   5.554   2.775   9.209 -0.0855 -0.3182  0.4915
10624SOL    HW133546   5.544   2.680   9.220  1.5619 -0.6047 -0.0665
10624SOL    HW233547   5.504   2.813   9.280 -1.0168 -1.6030  0.5589
10625SOL     OW33548   2.927   4.517   1.502  0.0794 -0.2080  0.2271
10625SOL    HW133549   2.877   4.456   1.557  0.3709 -2.6369 -2.0400
10625SOL    HW233550   3.014   4.517   1.541  0.2148 -1.6946 -0.0138
10626SOL     OW33551   4.633   5.495   8.435 -0.0663 -0.0196 -0.6127
10626SOL    HW133552   4.606   5.564   8.496 -1.2534 -0.9593 -0.0383
10626SOL    HW233553   4.606   5.527   8.349  0.4145  0.7228 -0.4964
10627SOL     OW33554   9.364   1.246   4.134 -0.0008 -0.2978 -0.1862
10627SOL    HW133555   9.401   1.185   4.071 -1.6942  0.5015 -2.0752
10627SOL    HW233556   9.388   1.210   4.219  1.5406 -1.9606 -1.2428
10628SOL     OW33557   4.756   3.873   1.107 -0.8274 -0.3540 -0.3357
10628SOL    HW133558   4.834   3.903   1.059 -1.6726  0.9314 -0.9522
10628SOL    HW233559   4.683   3.915   1.062 -1.9487 -2.0131 -0.1389
10629SOL     OW33560   7.805   4.643   8.873  0.0168  0.1227 -0.3091
10629SOL    HW133561   7.873   4.701   8.838  0.1020  0.5805  0.5760
10629SOL    HW233562   7.850   4.588   8.936 -0.3455  0.1349 -0.0341
10630SOL     OW33563   6.201   0.387   5.018 -0.1063 -0.1074  0.3239
10630SOL    HW133564   6.250   0.434   4.951  1.0293  1.0829  1.9179
10630SOL    HW233565   6.255   0.310   5.038  0.4379  0.4447  1.0528
10631SOL     OW33566   6.728   1.412   1.597 -0.4382  0.7155 -0.0712
10631SOL    HW133567   6.674   1.440   1.523 -0.7759  0.1185 -0.0605
10631SOL    HW233568   6.676   1.433   1.674  0.7469  3.2069  0.1522
10632SOL     OW33569   6.755   4.888   4.766 -0.1684  0.1280  0.2880
10632SOL    HW133570   6.670   4.899   4.723 -0.3242  1.3209  0.8449
10632SOL    HW233571   6.817   4.932   4.708  0.2306 -1.4443 -0.5294
10633SOL     OW33572   7.206   2.006   9.640  0.2739 -0.3956 -0.2703
10633SOL    HW133573   7.169   1.921   9.616  1.8556 -0.4654 -3.0052
10633SOL    HW233574   7.193   2.013   9.734 -1.5225 -2.8342 -0.2410
10634SOL     OW33575   5.731   2.307   0.647  0.1439  0.2860 -0.0783
10634SOL    HW133576   5.806   2.247   0.653  0.5337  0.8863  1.4464
10634SOL    HW233577   5.664   2.267   0.702  0.0076  0.6855  0.0485
10635SOL     OW33578   5.602   2.726   4.006  0.2129 -0.3604 -0.2850
10635SOL    HW133579   5.597   2.819   3.984  1.6300 -0.2133 -0.0351
10635SOL    HW233580   5.518   2.690   3.975 -1.5726  1.4773  2.0312
10636SOL     OW33581   8.006   0.987   0.868  0.1760 -0.7791 -0.5749
10636SOL    HW133582   8.069   0.967   0.799  2.8892 -2.3108  2.0717
10636SOL    HW233583   7.945   0.913   0.867 -0.2277 -0.4558 -1.6740
10637SOL     OW33584   6.980   8.837   4.836  0.4226  0.5585 -0.0467
10637SOL    HW133585   6.973   8.846   4.931  1.0219 -0.8269  0.1565
10637SOL    HW233586   7.069   8.806   4.822  0.2877  0.6053 -1.0584
10638SOL     OW33587   4.969   6.692   0.950  0.1026 -1.2545 -0.2178
10638SOL    HW133588   4.984   6.643   0.869 -1.1171  0.5383 -1.6024
10638SOL    HW233589   4.895   6.750   0.930 -1.1954 -1.7610  2.6678
10639SOL     OW33590   6.563   1.022   8.868  0.2035  0.7635  0.2850
10639SOL    HW133591   6.527   0.982   8.947 -0.7642  2.9545  1.0458
10639SOL    HW233592   6.634   1.078   8.900 -0.2427  1.7267 -0.3596
10640SOL     OW33593   5.766   5.069   2.383  0.1537 -0.2516  0.3390
10640SOL    HW133594   5.812   5.019   2.450  1.5147  0.2364 -0.1872
10640SOL    HW233595   5.788   5.160   2.401  0.6563 -0.1195 -0.8156
10641SOL     OW33596   5.029   7.603   1.374 -0.4060  0.4965  0.2396
10641SOL    HW133597   4.985   7.525   1.340 -0.3605  1.2791 -1.6993
10641SOL    HW233598   5.014   7.670   1.308  1.6619  1.4632  0.6850
10642SOL     OW33599   3.649   0.991   8.163 -0.5515  0.2776  0.6427
10642SOL    HW133600   3.737   0.958   8.145 -1.1185 -1.3931  0.7211
10642SOL    HW233601   3.661   1.055   8.234  0.6495  0.4859  0.2721
10643SOL     OW33602   3.606   0.752   8.049  0.0392 -0.8657  0.3172
10643SOL    HW133603   3.656   0.759   7.968 -1.5764 -1.3355 -0.7804
10643SOL    HW233604   3.609   0.839   8.087  1.4415 -0.8228  0.1544
10644SOL     OW33605   8.140   0.454   8.654  0.0846 -0.1368  0.4808
10644SOL    HW133606   8.105   0.371   8.620  0.4740 -0.1352  0.0684
10644SOL    HW233607   8.084   0.521   8.615 -0.0669 -0.1920  0.6038
10645SOL     OW33608   2.376   7.297   7.443  0.4799 -0.0894 -0.4901
10645SOL    HW133609   2.421   7.264   7.521 -1.3070 -0.0979  0.5827
10645SOL    HW233610   2.443   7.294   7.374  1.6473 -1.6108  0.6441
10646SOL     OW33611   1.828   0.916   8.420 -0.0551 -0.4826  0.0156
10646SOL    HW133612   1.871   0.950   8.341  0.7768 -2.2862 -0.3426
10646SOL    HW233613   1.880   0.951   8.493  0.9458 -1.1891 -0.3510
10647SOL     OW33614   6.659   5.011   5.610  0.0609  0.0504  0.8710
10647SOL    HW133615   6.643   4.947   5.680 -0.1850 -0.8930 -0.0311
10647SOL    HW233616   6.691   4.959   5.537 -0.6160  0.8940 -0.0481
10648SOL     OW33617   8.472   4.826   2.876  0.0714 -0.1595  0.0673
10648SOL    HW133618   8.560   4.849   2.847  0.2941 -0.2135  0.6847
10648SOL    HW233619   8.419   4.827   2.796  0.4302  0.8014 -0.1726
10649SOL     OW33620   3.023   6.285   6.738  0.3152  0.5304  0.1848
10649SOL    HW133621   2.942   6.274   6.788 -1.6603  3.6353 -1.9687
10649SOL    HW233622   3.064   6.364   6.774  1.1844  0.3107 -0.2777
10650SOL     OW33623   9.128   9.134   4.457  0.3014  0.0588  0.3029
10650SOL    HW133624   9.088   9.167   4.377 -1.0726  0.3456  1.0733
10650SOL    HW233625   9.133   9.039   4.445  0.6080  0.1528 -0.3316
10651SOL     OW33626   0.188   0.629   5.247 -0.4578 -0.1308  0.2574
10651SOL    HW133627   0.232   0.684   5.182  0.0138 -2.5317 -1.5919
10651SOL    HW233628   0.095   0.651   5.236 -0.3000  0.1955 -0.5701
10652SOL     OW33629   8.896   3.945   8.919  0.4684 -0.4875  0.2896
10652SOL    HW133630   8.814   3.904   8.889  0.3682  0.1179 -0.2740
10652SOL    HW233631   8.953   3.944   8.842  0.3319  0.7668  0.1548
10653SOL     OW33632   0.646   4.758   2.423 -0.5801  0.1781 -0.3302
10653SOL    HW133633   0.643   4.683   2.483  1.5878 -0.8493 -1.4186
10653SOL    HW233634   0.662   4.720   2.337 -0.1594  1.8564 -1.0295
10654SOL     OW33635   5.841   4.552   9.177  0.7469  0.2746  0.0376
10654SOL    HW133636   5.787   4.515   9.247  0.5258  0.9298  0.2134
10654SOL    HW233637   5.908   4.485   9.162 -1.4767 -1.7120 -1.8841
10655SOL     OW33638   9.183   2.637   9.620 -0.3502 -0.3785 -1.0048
10655SOL    HW133639   9.205   2.544   9.628 -1.1605 -0.5585 -0.6643
10655SOL    HW233640   9.266   2.683   9.632 -0.0330 -1.0419 -0.5795
10656SOL     OW33641   6.171   4.519   0.392 -0.2508  0.4506  0.3184
10656SOL    HW133642   6.196   4.504   0.301  0.2486  1.5899  0.2527
10656SOL    HW233643   6.084   4.481   0.400 -0.3923  0.5396 -0.6947
10657SOL     OW33644   6.989   2.701   3.489 -0.1478 -0.0589 -0.1162
10657SOL    HW133645   6.958   2.772   3.433 -1.2678  1.0727  1.8077
10657SOL    HW233646   6.939   2.711   3.570  2.5933 -0.4807  1.7789
10658SOL     OW33647   0.515   7.821   1.141 -0.2686  0.1264  0.1823
10658SOL    HW133648   0.436   7.766   1.139  0.7169 -1.3534 -1.5713
10658SOL    HW233649   0.558   7.799   1.224  0.1534 -1.9368 -0.5230
10659SOL     OW33650   7.760   4.390   0.971  0.0757 -0.2317 -0.7713
10659SOL    HW133651   7.755   4.411   1.064 -2.4717  0.1063 -0.9135
10659SOL    HW233652   7.827   4.321   0.966  0.2761 -0.2583  1.2973
10660SOL     OW33653   8.719   8.287   5.200 -0.1740 -0.0723  0.5730
10660SOL    HW133654   8.810   8.301   5.226 -0.3021  0.5009  0.7207
10660SOL    HW233655   8.723   8.220   5.131  0.1291 -2.3197  2.6139
10661SOL     OW33656   9.148   7.757   5.851  0.6881 -0.2073  0.1186
10661SOL    HW133657   9.140   7.726   5.942 -0.0065  1.4465  0.6669
10661SOL    HW233658   9.057   7.770   5.822  0.9002 -0.8203 -0.8632
10662SOL     OW33659   5.445   1.661   2.655 -0.5277 -0.0226 -0.3241
10662SOL    HW133660   5.411   1.739   2.698 -1.2714  0.4490 -1.7187
10662SOL    HW233661   5.514   1.693   2.598  1.6559 -0.8445  1.6803
10663SOL     OW33662   8.169   8.605   8.743  0.6668 -0.2208 -0.1394
10663SOL    HW133663   8.191   8.513   8.757 -1.3583 -1.1500 -2.2466
10663SOL    HW233664   8.134   8.607   8.654  0.7722  2.6396 -0.1953
10664SOL     OW33665   9.303   3.802   5.196 -0.4256  0.4516  0.2586
10664SOL    HW133666   9.292   3.872   5.132  0.2051  0.5273  0.2293
10664SOL    HW233667   9.223   3.750   5.187 -0.3751  0.4906 -0.5578
10665SOL     OW33668   0.160   7.613   3.476  0.0097  0.3062  0.0636
10665SOL    HW133669   0.253   7.618   3.494  0.1603  0.6036 -0.7577
10665SOL    HW233670   0.153   7.563   3.395 -0.7235 -1.9365  1.4153
10666SOL     OW33671   6.682   2.650   0.505  0.0849  0.2973 -0.5826
10666SOL    HW133672   6.686   2.555   0.499  0.8264  0.3921 -1.8752
10666SOL    HW233673   6.701   2.669   0.597 -0.2178 -0.7916 -0.2782
10667SOL     OW33674   6.290   4.250   1.105  0.3058  0.4102  0.1253
10667SOL    HW133675   6.319   4.251   1.196  1.3270 -1.6623 -0.1122
10667SOL    HW233676   6.332   4.326   1.066  0.8685  0.6166  1.0937
10668SOL     OW33677   4.056   6.154   8.037 -0.2554  0.0928 -0.0946
10668SOL    HW133678   3.998   6.225   8.066  0.0255  0.0578  0.5609
10668SOL    HW233679   4.125   6.150   8.103  0.4883  0.1096 -0.8500
10669SOL     OW33680   3.419   0.171   0.228  0.1795  0.1032  0.2062
10669SOL    HW133681   3.398   0.114   0.155  0.0188  0.4549 -0.0219
10669SOL    HW233682   3.481   0.235   0.192 -0.3959  0.6685  0.2121
10670SOL     OW33683   7.346   0.069   4.903 -0.1071 -0.3013 -0.5050
10670SOL    HW133684   7.385   0.080   4.990 -0.5197  1.9827 -0.5449
10670SOL    HW233685   7.270   0.013   4.918  0.2059 -0.4915  0.4733
10671SOL     OW33686   4.508   7.257   3.662 -0.1006  0.0156 -0.2379
10671SOL    HW133687   4.495   7.190   3.729  2.6430 -0.7220 -0.2946
10671SOL    HW233688   4.455   7.227   3.588  0.9221 -2.1043 -0.2092
10672SOL     OW33689   9.397   5.254   9.676 -0.5095  0.0756  0.2291
10672SOL    HW133690   9.361   5.343   9.682 -1.6404 -0.4027  0.8038
10672SOL    HW233691   9.477   5.257   9.729 -1.4460  0.3290  1.6837
10673SOL     OW33692   3.464   1.510   5.936 -0.2332  0.1303  0.3862
10673SOL    HW133693   3.515   1.476   5.862 -1.7833  0.9313 -1.1243
10673SOL    HW233694   3.452   1.435   5.994  1.0314 -0.5142 -0.1489
10674SOL     OW33695   0.423   5.771   5.375 -0.2383 -0.9885  0.2943
10674SOL    HW133696   0.512   5.806   5.370 -0.2852 -1.0727 -2.4262
10674SOL    HW233697   0.433   5.689   5.424  1.4202 -1.6026 -0.9618
10675SOL     OW33698   4.923   5.168   2.026  0.5419  0.4954  0.2226
10675SOL    HW133699   4.860   5.161   1.954 -0.2795  2.6186  0.6875
10675SOL    HW233700   5.001   5.122   1.993  0.1485  1.3042 -1.9917
10676SOL     OW33701   0.330   0.396   7.193  0.2883 -0.0002 -0.2848
10676SOL    HW133702   0.384   0.446   7.132 -2.1302  2.7452 -0.3892
10676SOL    HW233703   0.288   0.329   7.139  0.7182  0.2722 -0.9587
10677SOL     OW33704   0.778   7.626   9.565  0.4092  0.0186  0.1194
10677SOL    HW133705   0.751   7.544   9.605 -0.7096  0.3898  0.1736
10677SOL    HW233706   0.775   7.609   9.470  1.3513 -0.3466  0.1497
10678SOL     OW33707   7.619   4.144   0.470 -0.4370  0.2871  0.3559
10678SOL    HW133708   7.570   4.226   0.461 -0.9882 -0.1052 -0.2659
10678SOL    HW233709   7.669   4.155   0.551 -0.0470  1.4769 -0.0265
10679SOL     OW33710   1.587   8.787   6.148  0.0827 -0.0876 -0.0287
10679SOL    HW133711   1.585   8.711   6.090  0.0810 -0.2260  0.1499
10679SOL    HW233712   1.675   8.786   6.186 -0.4635 -1.0030  1.2835
10680SOL     OW33713   0.176   0.115   7.283 -0.2246  0.8239 -0.6011
10680SOL    HW133714   0.217   0.159   7.209 -1.0444  1.0601 -0.9291
10680SOL    HW233715   0.134   0.038   7.245  0.6114  0.1150 -0.1360
10681SOL     OW33716   4.959   1.942   0.362 -0.0792  0.1313 -0.0553
10681SOL    HW133717   4.864   1.952   0.363  0.0645  1.9104 -0.1748
10681SOL    HW233718   4.988   1.974   0.447  0.5333  1.6614 -0.7946
10682SOL     OW33719   9.255   1.443   1.297 -0.0544  0.5283  0.2576
10682SOL    HW133720   9.236   1.523   1.247  0.0860  2.2516  2.7951
10682SOL    HW233721   9.349   1.428   1.282 -0.1908  0.5015 -0.6525
10683SOL     OW33722   6.377   0.003   9.185  0.6823 -0.0092 -0.6381
10683SOL    HW133723   6.427  -0.039   9.254  0.5121 -0.3384 -0.7143
10683SOL    HW233724   6.290   0.016   9.223  0.2589 -1.1902 -1.1496
10684SOL     OW33725   2.404   7.159   6.885  0.6118  0.1023  0.0262
10684SOL    HW133726   2.385   7.226   6.820  0.4798 -2.4373 -2.8106
10684SOL    HW233727   2.499   7.164   6.897  0.9954 -0.7557 -2.1662
10685SOL     OW33728   4.105   7.516   7.013  0.6994  0.0686  0.4471
10685SOL    HW133729   4.065   7.449   6.957 -0.7623  1.1134  0.2057
10685SOL    HW233730   4.180   7.546   6.963 -0.6845  1.1067 -1.0955
10686SOL     OW33731   8.836   7.053   4.142  0.7117  0.2116 -0.0938
10686SOL    HW133732   8.761   7.037   4.084  1.9443 -0.6668 -1.5301
10686SOL    HW233733   8.897   7.103   4.088  1.2582  0.7206  0.9783
10687SOL     OW33734   2.498   4.872   2.409 -0.2359 -0.4875 -0.4012
10687SOL    HW133735   2.466   4.902   2.324  1.3788  0.3346 -0.7555
10687SOL    HW233736   2.593   4.885   2.405 -0.2552  0.9822  2.0521
10688SOL     OW33737   0.333   0.691   5.519 -0.5924 -0.1987  1.1717
10688SOL    HW133738   0.335   0.786   5.529 -0.5754 -0.2507  1.6993
10688SOL    HW233739   0.275   0.675   5.444 -1.0514  0.2047  1.4354
10689SOL     OW33740   8.541   1.118   9.398  0.5683 -0.1336 -0.3684
10689SOL    HW133741   8.448   1.107   9.379 -0.1998 -1.5867  3.3623
10689SOL    HW233742   8.568   1.192   9.344 -3.0742  1.1800 -0.6431
10690SOL     OW33743   1.780   3.329   4.277 -0.2792 -0.3309 -0.1558
10690SOL    HW133744   1.736   3.398   4.326 -0.8532 -1.9083  1.6734
10690SOL    HW233745   1.827   3.278   4.344  0.3714 -1.5297 -1.4655
10691SOL     OW33746   1.035   1.931   6.479 -0.0248  0.0453 -0.1658
10691SOL    HW133747   1.068   2.020   6.472  2.8002 -0.9361 -0.9582
10691SOL    HW233748   0.956   1.929   6.425  1.1497  1.5296 -2.0358
10692SOL     OW33749   8.525   5.036   4.184 -0.0860 -0.1999  0.6316
10692SOL    HW133750   8.437   5.005   4.201 -0.1794 -0.5445 -0.4427
10692SOL    HW233751   8.524   5.065   4.093  0.8158  0.1152  0.7071
10693SOL     OW33752   4.251   6.154   2.429 -0.0709 -0.5537  0.4199
10693SOL    HW133753   4.257   6.212   2.505  0.0506  0.5446 -0.4073
10693SOL    HW233754   4.226   6.212   2.357  1.5689 -1.2519 -0.7612
10694SOL     OW33755   6.813   0.179   7.593  0.1027 -0.5183  0.6785
10694SOL    HW133756   6.861   0.221   7.664  1.6937  0.2417 -0.7937
10694SOL    HW233757   6.723   0.173   7.626  0.2252  2.1622  1.7808
10695SOL     OW33758   2.958   7.414   9.206  0.1842 -0.0012  0.2322
10695SOL    HW133759   2.995   7.372   9.128 -0.8531 -0.5050 -0.0105
10695SOL    HW233760   2.904   7.485   9.172  1.0496  0.8419  0.5901
10696SOL     OW33761   9.466   1.785   4.977 -0.5598 -0.6917 -0.1592
10696SOL    HW133762   9.518   1.745   5.047  1.4916  2.6335  0.4573
10696SOL    HW233763   9.378   1.790   5.013  0.3947  0.7568  2.2262
10697SOL     OW33764   6.536   6.143   5.087  0.1220  0.1047 -0.3231
10697SOL    HW133765   6.519   6.184   5.172 -0.9683  0.4670 -0.7052
10697SOL    HW233766   6.613   6.089   5.102 -0.7525 -0.7916  1.2430
10698SOL     OW33767   6.240   6.869   3.972  0.2517 -0.2262  0.3700
10698SOL    HW133768   6.284   6.858   4.057  0.4060  1.3335  0.5278
10698SOL    HW233769   6.250   6.962   3.952 -1.4557 -0.1751 -0.4377
10699SOL     OW33770   7.199   3.228   4.725  0.0564 -0.8056 -0.6552
10699SOL    HW133771   7.234   3.261   4.808  0.6556 -0.8918 -0.8698
10699SOL    HW233772   7.150   3.149   4.749 -0.6925 -0.2256 -0.2458
10700SOL     OW33773   4.769   2.570   0.455 -0.3389  0.2861  0.6562
10700SOL    HW133774   4.706   2.502   0.434 -2.9180  3.0451 -1.5073
10700SOL    HW233775   4.744   2.602   0.541 -2.4536  1.7203 -0.4021
10701SOL     OW33776   4.402   9.292   4.275 -0.3722  0.1059  0.0240
10701SOL    HW133777   4.485   9.314   4.232 -0.2056 -0.3874  0.0943
10701SOL    HW233778   4.428   9.263   4.362 -0.7199  1.3168  0.5573
10702SOL     OW33779   5.604   8.997   5.724  0.1120  0.5996 -0.1096
10702SOL    HW133780   5.578   9.074   5.674 -0.9770  0.2388 -0.1233
10702SOL    HW233781   5.580   8.923   5.668 -0.7188  0.2054  0.7402
10703SOL     OW33782   1.563   6.336   6.548 -0.4253 -0.1054  0.4791
10703SOL    HW133783   1.554   6.281   6.626 -0.7203  1.4272  1.5812
10703SOL    HW233784   1.485   6.317   6.496 -1.5141  0.6326  1.7702
10704SOL     OW33785   9.046   2.936   5.694 -0.6986 -0.1899  0.4445
10704SOL    HW133786   9.119   2.973   5.644 -0.2976 -1.3315  0.1349
10704SOL    HW233787   9.025   3.001   5.760  0.8703  0.0002  0.7797
10705SOL     OW33788   0.395   6.535   2.680  0.3611  0.3547 -0.2608
10705SOL    HW133789   0.482   6.568   2.659  1.0237 -0.8196  0.5439
10705SOL    HW233790   0.409   6.470   2.749 -1.3269  1.3294  1.1033
10706SOL     OW33791   6.361   6.594   2.741 -0.0249  0.1116  0.0962
10706SOL    HW133792   6.312   6.586   2.659  0.1237  0.3311 -0.0173
10706SOL    HW233793   6.439   6.644   2.717  0.6180 -0.8510  0.1274
10707SOL     OW33794   5.536   1.999   9.481  0.3329  0.4064  0.3005
10707SOL    HW133795   5.488   2.075   9.514 -0.9580 -1.2635  2.4787
10707SOL    HW233796   5.490   1.976   9.400 -0.5391  0.7420  0.6853
10708SOL     OW33797   5.778   6.322   6.030  0.3446 -0.4248  0.4701
10708SOL    HW133798   5.752   6.394   5.973  0.7891 -0.9144 -0.3693
10708SOL    HW233799   5.722   6.330   6.107 -1.0215 -0.3963 -0.5066
10709SOL     OW33800   6.434   4.193   3.283  0.2651  0.1088 -0.1381
10709SOL    HW133801   6.525   4.164   3.274  0.1510 -0.1742 -0.4083
10709SOL    HW233802   6.441   4.287   3.301  0.6191  0.0348  0.1276
10710SOL     OW33803   0.234   5.130   4.652  0.2784 -0.3449 -0.4569
10710SOL    HW133804   0.242   5.152   4.559  1.0823  1.7990  0.0681
10710SOL    HW233805   0.144   5.154   4.675 -0.1053 -1.4094 -0.7759
10711SOL     OW33806   7.411   4.189   2.662 -0.6437 -0.1828  0.3448
10711SOL    HW133807   7.473   4.133   2.710  1.3880  1.9312  0.3624
10711SOL    HW233808   7.331   4.136   2.656  0.9354 -2.8246  0.8661
10712SOL     OW33809   5.673   6.664   8.853 -0.2785  0.1074 -0.2173
10712SOL    HW133810   5.688   6.732   8.787 -1.6844 -0.1039 -0.7738
10712SOL    HW233811   5.725   6.693   8.928 -0.0350  1.2552 -0.7987
10713SOL     OW33812   1.827   0.044   1.765  0.5653  0.4372  0.2062
10713SOL    HW133813   1.842  -0.038   1.812  0.3106  0.3533  0.1442
10713SOL    HW233814   1.803   0.107   1.832  0.1201  0.2968  0.1778
10714SOL     OW33815   7.245   4.749   2.761  0.6828  1.0618  0.4455
10714SOL    HW133816   7.334   4.772   2.733  0.7301  0.4060  0.0189
10714SOL    HW233817   7.249   4.753   2.856  1.1782  1.0267  0.4328
10715SOL     OW33818   4.595   3.165   0.376 -0.1575  0.7143 -0.2887
10715SOL    HW133819   4.556   3.241   0.419  2.6473  1.0816  1.8681
10715SOL    HW233820   4.560   3.090   0.424 -0.7689  0.7901 -0.5993
10716SOL     OW33821   5.763   0.461   4.487 -0.0858 -0.2507 -0.2574
10716SOL    HW133822   5.728   0.378   4.519 -0.7691  0.4838  1.0095
10716SOL    HW233823   5.731   0.468   4.397 -0.5364 -1.0808 -0.1687
10717SOL     OW33824   2.959   8.836   9.271  0.3643 -0.3187  0.2835
10717SOL    HW133825   2.907   8.763   9.305 -1.9598  1.3814  0.5734
10717SOL    HW233826   2.988   8.883   9.350  0.6313 -0.1120  0.0643
10718SOL     OW33827   4.759   8.231   1.265 -0.1873 -0.0702  0.0186
10718SOL    HW133828   4.731   8.321   1.283 -0.4335  0.0468 -0.8814
10718SOL    HW233829   4.688   8.195   1.211 -0.0025 -0.7458  0.2263
10719SOL     OW33830   0.096   2.713   2.178  0.3360 -0.1233  0.0704
10719SOL    HW133831   0.101   2.730   2.084  0.8323  0.5271  0.2062
10719SOL    HW233832   0.165   2.768   2.216  1.0245 -1.3721  0.6847
10720SOL     OW33833   3.760   7.813   9.607  0.0972 -1.0639 -0.2200
10720SOL    HW133834   3.746   7.738   9.549 -0.5154 -1.4192  0.3556
10720SOL    HW233835   3.706   7.883   9.570  0.1826 -1.1019 -0.4146
10721SOL     OW33836   1.805   0.241   4.846 -0.7222 -0.3270 -0.1470
10721SOL    HW133837   1.884   0.287   4.818 -1.2738  0.3603 -0.6503
10721SOL    HW233838   1.735   0.281   4.794 -1.4069 -0.8836  0.3204
10722SOL     OW33839   8.144   5.245   1.498  0.2492 -0.0795  0.7087
10722SOL    HW133840   8.108   5.333   1.505 -1.8430 -0.9197  1.1922
10722SOL    HW233841   8.122   5.202   1.581  2.0499 -0.8059  0.8672
10723SOL     OW33842   2.594   6.150   6.557 -0.0361  0.2321  0.0018
10723SOL    HW133843   2.648   6.213   6.605 -0.0455  0.4235 -0.2388
10723SOL    HW233844   2.559   6.200   6.483  2.5508 -0.8252 -2.0832
10724SOL     OW33845   5.372   2.187   2.586 -0.5497 -0.6379 -0.2373
10724SOL    HW133846   5.467   2.185   2.591 -0.4784  1.1013 -0.5983
10724SOL    HW233847   5.352   2.189   2.493 -0.9289 -0.3430 -0.1508
10725SOL     OW33848   6.385   7.180   0.802 -0.0730  0.2380 -1.1251
10725SOL    HW133849   6.392   7.106   0.741 -1.2939  2.0042 -3.5899
10725SOL    HW233850   6.342   7.144   0.879  2.8907 -2.4523 -0.5569
10726SOL     OW33851   7.499   3.965   0.775  0.8071 -0.2465  0.5787
10726SOL    HW133852   7.513   3.954   0.682 -0.0059  0.7600  0.3154
10726SOL    HW233853   7.426   3.907   0.796  0.1898  0.4205  0.3266
10727SOL     OW33854   8.158   4.889   5.805 -0.0936  0.1700  0.1322
10727SOL    HW133855   8.097   4.890   5.879  0.2784  0.4384  0.4369
10727SOL    HW233856   8.145   4.803   5.765 -0.6102  0.1924  0.2444
10728SOL     OW33857   4.220   8.817   8.786  0.1648 -0.0047  0.0042
10728SOL    HW133858   4.311   8.814   8.756 -0.0897  0.6100 -0.8921
10728SOL    HW233859   4.188   8.903   8.756 -0.6156 -0.0870  0.5774
10729SOL     OW33860   6.596   2.222   9.434 -0.0049 -0.0590  0.5073
10729SOL    HW133861   6.571   2.136   9.399 -2.8179  0.8292  0.0254
10729SOL    HW233862   6.564   2.284   9.369 -1.7866  1.4804  2.6819
10730SOL     OW33863   7.550   4.714   5.215  0.2620  0.0834 -0.4681
10730SOL    HW133864   7.641   4.707   5.185  0.3036  0.6682 -0.4782
10730SOL    HW233865   7.556   4.764   5.296 -0.3702  3.0170 -2.1071
10731SOL     OW33866   5.837   0.930   4.018  0.1743 -0.2078 -0.0642
10731SOL    HW133867   5.874   0.945   4.105 -0.7586  0.3214  0.2618
10731SOL    HW233868   5.850   0.837   4.001  0.0825 -0.3761  0.7804
10732SOL     OW33869   1.155   6.112   3.695 -0.0668 -0.3187 -0.1524
10732SOL    HW133870   1.108   6.120   3.779 -0.2423  2.6661 -0.4311
10732SOL    HW233871   1.186   6.201   3.677  0.5751 -1.0328 -2.9206
10733SOL     OW33872   1.838   1.170   0.352 -0.0718  0.4633 -0.2407
10733SOL    HW133873   1.897   1.120   0.408 -0.8707 -0.0633  0.1460
10733SOL    HW233874   1.853   1.136   0.264 -1.2628 -1.1441  0.1338
10734SOL     OW33875   9.123   5.945   0.134 -0.1248 -0.1881  0.1289
10734SOL    HW133876   9.056   6.004   0.169 -0.9189 -1.0400  0.0564
10734SOL    HW233877   9.198   6.003   0.117 -0.2345  0.4942  1.7929
10735SOL     OW33878   9.160   2.967   3.496 -0.5369 -0.4520  0.1792
10735SOL    HW133879   9.187   3.009   3.414 -1.3862 -0.4112 -0.0849
10735SOL    HW233880   9.226   2.898   3.510 -0.2753 -0.3315 -0.4303
10736SOL     OW33881   1.756   5.543   2.227  0.3723 -0.2102  0.3721
10736SOL    HW133882   1.777   5.533   2.134  0.6569  1.5329  0.2317
10736SOL    HW233883   1.822   5.491   2.272 -0.0458 -1.4592 -0.3974
10737SOL     OW33884   8.637   3.963   1.607  0.1476  0.4285 -0.4606
10737SOL    HW133885   8.643   3.874   1.572  1.0695  0.3024 -0.0131
10737SOL    HW233886   8.656   4.020   1.532 -0.9715  0.2848 -0.8748
10738SOL     OW33887   4.889   1.818   6.090 -0.3587 -0.1842  0.5734
10738SOL    HW133888   4.842   1.850   6.167 -0.0706  0.9575  0.3007
10738SOL    HW233889   4.982   1.828   6.113 -0.2705  0.0039  0.1513
10739SOL     OW33890   8.505   7.347   3.093 -0.7455 -0.3331 -0.0757
10739SOL    HW133891   8.479   7.295   3.017 -2.4185  1.2750 -0.6690
10739SOL    HW233892   8.424   7.356   3.145 -0.1922  0.5839  0.6612
10740SOL     OW33893   2.414   0.664   0.442 -0.2022  0.3013  0.0927
10740SOL    HW133894   2.427   0.658   0.537 -0.4015 -1.4710  0.0523
10740SOL    HW233895   2.499   0.693   0.408  0.0818  0.2849  0.7762
10741SOL     OW33896   7.922   6.980   9.244  0.7477  0.6086 -0.1094
10741SOL    HW133897   8.012   6.948   9.238  0.1448 -2.2186  2.9495
10741SOL    HW233898   7.881   6.949   9.163  1.8690 -0.5760 -0.2653
10742SOL     OW33899   4.574   0.626   7.501 -0.7107  0.3595  0.1819
10742SOL    HW133900   4.631   0.618   7.578  0.3987 -0.5867 -0.6984
10742SOL    HW233901   4.581   0.718   7.476 -1.0411  0.6699  1.1497
10743SOL     OW33902   2.918   5.775   6.224 -0.3917 -0.3368  0.2082
10743SOL    HW133903   2.904   5.754   6.316 -1.3572  2.0660  0.6933
10743SOL    HW233904   2.856   5.721   6.176 -0.6384 -0.8219  1.0708
10744SOL     OW33905   2.395   7.568   1.981 -0.6004 -0.0978 -0.2013
10744SOL    HW133906   2.386   7.481   2.020 -0.9913  0.2985  0.6197
10744SOL    HW233907   2.329   7.621   2.026 -0.2462  0.6656 -0.5684
10745SOL     OW33908   1.677   7.224   4.169  0.0827  0.1712 -0.2566
10745SOL    HW133909   1.687   7.158   4.238 -2.3424  0.3664  0.3634
10745SOL    HW233910   1.633   7.297   4.212 -2.1788  0.0092 -2.1174
10746SOL     OW33911   6.760   7.056   2.164  0.2254 -0.8360 -0.6466
10746SOL    HW133912   6.762   6.981   2.105  0.3835 -1.9216  0.7011
10746SOL    HW233913   6.727   7.021   2.247 -1.3644  0.9293 -0.4640
10747SOL     OW33914   5.584   8.126   3.938 -0.0422  0.1440  0.0886
10747SOL    HW133915   5.567   8.181   3.862  1.8873  0.0919 -0.4242
10747SOL    HW233916   5.673   8.092   3.925 -0.0121 -0.6251  1.9030
10748SOL     OW33917   8.409   8.288   7.163 -0.1366  0.0856  0.3633
10748SOL    HW133918   8.463   8.235   7.222 -0.1715 -0.5080 -0.1260
10748SOL    HW233919   8.470   8.351   7.125  0.7261 -1.8438 -1.7128
10749SOL     OW33920   4.980   7.799   3.224 -0.0385 -0.1924 -0.3980
10749SOL    HW133921   5.061   7.850   3.226 -0.0813 -0.1183  2.1347
10749SOL    HW233922   5.009   7.708   3.239 -0.4224 -0.0782  1.2372
10750SOL     OW33923   3.448   7.751   6.486  0.1296  0.2282  0.2850
10750SOL    HW133924   3.392   7.780   6.557  0.1840  0.0259  0.4117
10750SOL    HW233925   3.393   7.691   6.435  0.0178  0.5476  0.0249
10751SOL     OW33926   6.000   0.013   2.447  0.2504 -0.0779 -0.0453
10751SOL    HW133927   5.989  -0.070   2.492  0.9516 -0.9920 -1.5045
10751SOL    HW233928   6.027   0.074   2.516 -2.0198 -0.5598  1.4019
10752SOL     OW33929   1.030   3.083   1.909 -0.0551  0.2843 -0.2506
10752SOL    HW133930   1.103   3.141   1.886 -0.3467  0.9284  0.4055
10752SOL    HW233931   1.031   3.079   2.004 -1.1778  0.7232 -0.2009
10753SOL     OW33932   1.778   1.147   3.037  0.5170  0.3292  0.3319
10753SOL    HW133933   1.825   1.074   2.998  2.5671  1.2289  0.9945
10753SOL    HW233934   1.708   1.106   3.088  2.2128 -1.2618  1.4876
10754SOL     OW33935   8.677   0.209   3.149  0.4338  0.2602  0.2647
10754SOL    HW133936   8.679   0.114   3.143 -1.4153  0.0352  1.9338
10754SOL    HW233937   8.624   0.237   3.074 -1.4522 -0.3229  1.3093
10755SOL     OW33938   1.898   1.146   9.376 -0.7006  0.0294  0.0143
10755SOL    HW133939   1.977   1.119   9.423 -1.7031 -1.0035  1.1466
10755SOL    HW233940   1.931   1.198   9.303  0.9709  0.4712  1.0365
10756SOL     OW33941   9.101   8.454   2.802 -0.1748 -0.2922 -0.4382
10756SOL    HW133942   9.119   8.384   2.866  0.1562  0.1598 -0.0294
10756SOL    HW233943   9.182   8.505   2.799 -0.4803  0.1941 -0.5780
10757SOL     OW33944   4.865   5.807   4.768  0.4712 -0.1927  0.6013
10757SOL    HW133945   4.897   5.718   4.751 -0.7427 -0.6789  0.7374
10757SOL    HW233946   4.862   5.848   4.682 -1.2125 -1.0949  0.1843
10758SOL     OW33947   1.832   6.829   2.942  0.4449  0.7867 -0.1158
10758SOL    HW133948   1.916   6.834   2.896 -0.8631 -0.5295 -2.7871
10758SOL    HW233949   1.768   6.809   2.875 -2.2768  2.8997  1.6391
10759SOL     OW33950   9.676   0.375   1.803  0.3169  0.0583 -0.0559
10759SOL    HW133951   9.615   0.448   1.812 -0.0905 -0.1195 -1.1741
10759SOL    HW233952   9.746   0.408   1.747 -0.0744 -0.5232 -0.9054
10760SOL     OW33953   5.089   2.586   1.334  0.0223  0.1799 -0.1692
10760SOL    HW133954   5.132   2.504   1.359  0.2981  0.2247 -0.4904
10760SOL    HW233955   5.100   2.590   1.239 -1.1065 -0.0379 -0.3169
10761SOL     OW33956   7.364   0.646   4.433  0.4658 -0.2801  0.0419
10761SOL    HW133957   7.344   0.605   4.517  3.3020  0.8498  1.3760
10761SOL    HW233958   7.397   0.733   4.455 -0.0287  0.6080 -2.3567
10762SOL     OW33959   7.324   8.400   4.030 -0.8203  0.2376  0.0522
10762SOL    HW133960   7.355   8.490   4.038 -0.9088  0.3541 -0.8316
10762SOL    HW233961   7.347   8.360   4.113  0.1822  0.7789  0.0565
10763SOL     OW33962   0.759   5.243   6.201  0.4441 -0.0325 -0.1474
10763SOL    HW133963   0.752   5.277   6.112  0.0562  2.1132  0.6567
10763SOL    HW233964   0.688   5.178   6.207 -0.2794  0.6389 -1.0587
10764SOL     OW33965   1.874   5.206   6.328 -0.3173 -0.3712 -0.2027
10764SOL    HW133966   1.869   5.173   6.418  1.1814 -1.2120 -0.3818
10764SOL    HW233967   1.966   5.229   6.317 -0.9825  2.3433 -0.6717
10765SOL     OW33968   1.961   7.414   5.562 -0.4616 -0.0494  0.0323
10765SOL    HW133969   1.885   7.418   5.504 -0.0316  0.8230 -0.5054
10765SOL    HW233970   2.006   7.497   5.547  0.3745 -0.3802  0.6433
10766SOL     OW33971   2.968   6.000   4.949 -0.0222  0.0558  0.3586
10766SOL    HW133972   2.980   6.066   4.882 -1.8269 -1.5599 -1.7374
10766SOL    HW233973   3.055   5.983   4.983  0.8013  1.7226 -0.8179
10767SOL     OW33974   0.622   8.473   4.310  0.3948 -0.8299 -0.4278
10767SOL    HW133975   0.625   8.409   4.239  1.7332 -0.4300 -0.7479
10767SOL    HW233976   0.529   8.479   4.332 -0.6257  1.4315 -4.3636
10768SOL     OW33977   1.298   3.289   0.156  0.4040 -0.9030  0.0792
10768SOL    HW133978   1.378   3.265   0.202  0.7901 -0.0853 -0.1546
10768SOL    HW233979   1.242   3.328   0.223  1.7854  2.2898 -0.4208
10769SOL     OW33980   1.024   1.082   9.676  0.4302 -0.7583  0.2544
10769SOL    HW133981   1.087   1.050   9.741 -0.4704 -0.9058  1.0771
10769SOL    HW233982   0.968   1.007   9.658 -0.9664 -0.0080  1.3030
10770SOL     OW33983   3.952   8.588   9.473  0.1327  0.0430 -0.0592
10770SOL    HW133984   3.980   8.629   9.555  0.1268 -0.7979  0.3813
10770SOL    HW233985   4.020   8.613   9.410  0.4675  0.2037  0.3536
10771SOL     OW33986   4.053   3.806   5.365  0.0623  0.0670  0.7035
10771SOL    HW133987   4.014   3.732   5.318  1.3498 -0.7471  0.8365
10771SOL    HW233988   4.148   3.793   5.354  0.3220  1.9769  0.3210
10772SOL     OW33989   2.773   3.887   7.726 -0.1773  0.1865  0.5258
10772SOL    HW133990   2.717   3.823   7.682 -1.4399  1.0695  0.7902
10772SOL    HW233991   2.815   3.936   7.655 -1.3180  0.8483  0.2890
10773SOL     OW33992   9.107   5.825   6.319  0.0756  0.5373 -0.3025
10773SOL    HW133993   9.179   5.832   6.382  2.9034 -0.6456 -3.1291
10773SOL    HW233994   9.133   5.881   6.247 -1.1787 -0.9371 -1.9911
10774SOL     OW33995   2.280   5.803   6.815 -0.1248 -0.0210  0.2201
10774SOL    HW133996   2.232   5.731   6.775  0.8810  0.3460 -1.7904
10774SOL    HW233997   2.246   5.881   6.773  0.4914  0.4513  0.5794
10775SOL     OW33998   0.068   1.310   1.092  0.2076 -0.4096 -0.5454
10775SOL    HW133999   0.150   1.326   1.137 -0.9191  0.7330  1.2208
10775SOL    HW234000   0.059   1.214   1.091  0.2303 -0.4972  1.8400
10776SOL     OW34001   0.121   3.097   3.988  0.0283 -0.6004 -0.2760
10776SOL    HW134002   0.115   3.051   3.905  1.9922 -2.1960  0.3923
10776SOL    HW234003   0.100   3.031   4.054 -1.4103  0.6138  0.5511
10777SOL     OW34004   3.506   1.733   7.142  0.3055 -0.5058 -0.5292
10777SOL    HW134005   3.481   1.823   7.160  1.5819 -0.2845  0.2143
10777SOL    HW234006   3.459   1.711   7.061  0.2182  0.9153 -0.8953
10778SOL     OW34007   8.275   3.978   9.365  0.1287 -0.0639 -0.2183
10778SOL    HW134008   8.276   3.898   9.417  0.2077  0.1275  0.0756
10778SOL    HW234009   8.310   3.951   9.279 -0.1780 -0.4187 -0.2354
10779SOL     OW34010   5.227   0.880   9.156 -0.1049  0.3437  0.2348
10779SOL    HW134011   5.218   0.830   9.075  1.1023  0.5846 -0.0671
10779SOL    HW234012   5.248   0.969   9.128 -0.2106  0.5567  0.8063
10780SOL     OW34013   9.018   0.760   1.411 -0.4808  0.0240 -0.1412
10780SOL    HW134014   8.970   0.804   1.481  0.2983  0.8251 -0.1031
10780SOL    HW234015   9.042   0.830   1.350  0.2846 -0.4292 -0.3684
10781SOL     OW34016   6.261   3.069   0.283 -0.0460 -0.1105 -0.2701
10781SOL    HW134017   6.330   3.054   0.347 -0.5041  1.9604  0.7743
10781SOL    HW234018   6.281   3.155   0.246 -0.7706 -0.5122 -1.6562
10782SOL     OW34019   1.707   0.256   2.611 -0.6085 -0.8083 -0.4409
10782SOL    HW134020   1.659   0.203   2.674  0.4125 -0.5642  0.5938
10782SOL    HW234021   1.673   0.230   2.526 -0.5347 -2.7175  0.0678
10783SOL     OW34022   0.946   2.881   6.138 -0.2963  0.7936  0.6507
10783SOL    HW134023   0.948   2.824   6.215  2.4145 -1.1175 -0.6929
10783SOL    HW234024   1.008   2.951   6.159  1.7718 -0.6518 -0.3371
10784SOL     OW34025   5.551   6.253   9.341  0.6799 -0.2062 -0.4477
10784SOL    HW134026   5.477   6.221   9.289  1.2784 -3.1796  0.3456
10784SOL    HW234027   5.511   6.289   9.420  0.0006 -3.4849  0.8557
10785SOL     OW34028   8.792   1.755   0.180 -0.0338  0.6942  0.0842
10785SOL    HW134029   8.755   1.670   0.157  0.2463  1.2215 -2.6348
10785SOL    HW234030   8.716   1.807   0.207 -0.6978  0.4921 -1.3056
10786SOL     OW34031   7.685   6.445   1.209 -0.1043 -0.1241 -0.0627
10786SOL    HW134032   7.695   6.455   1.114  1.0831  0.5254  0.1136
10786SOL    HW234033   7.737   6.367   1.231  1.1434  0.7763  0.2809
10787SOL     OW34034   5.415   5.426   9.109  0.3425  0.2939 -0.0407
10787SOL    HW134035   5.496   5.384   9.139  0.4276  1.0068  0.7823
10787SOL    HW234036   5.392   5.380   9.029  1.4869 -0.0282 -0.2018
10788SOL     OW34037   1.088   2.063   2.201  0.3319  0.4965  0.7689
10788SOL    HW134038   1.075   2.112   2.283  0.0785 -0.3460  1.2493
10788SOL    HW234039   1.068   2.126   2.132 -1.3947  0.6789  1.3859
10789SOL     OW34040   0.051   5.436   3.160  0.2794  0.3838 -0.1496
10789SOL    HW134041   0.144   5.456   3.168  0.1322  1.0008  0.0368
10789SOL    HW234042   0.019   5.492   3.090  0.1867 -0.3257 -0.6910
10790SOL     OW34043   1.464   2.593   8.102  0.5001  0.1688  0.1798
10790SOL    HW134044   1.474   2.618   8.194 -0.7793 -0.5771  0.5623
10790SOL    HW234045   1.392   2.648   8.070  0.2620 -0.2775 -0.0669
10791SOL     OW34046   4.139   1.368   6.620  0.3391  0.2246 -0.3472
10791SOL    HW134047   4.100   1.397   6.538 -0.2083  0.2078 -0.1013
10791SOL    HW234048   4.140   1.446   6.675  0.3760  0.1567 -0.2505
10792SOL     OW34049   5.385   5.345   2.862 -0.0419 -0.7861  0.6426
10792SOL    HW134050   5.331   5.415   2.899  0.4457  0.6524 -1.2062
10792SOL    HW234051   5.410   5.378   2.775  0.5789 -3.0851 -0.1103
10793SOL     OW34052   0.827   6.643   0.232  0.1898 -0.1614  0.0810
10793SOL    HW134053   0.785   6.573   0.282 -0.4483  1.1384  1.4474
10793SOL    HW234054   0.912   6.608   0.208 -0.7130 -1.9908 -0.6866
10794SOL     OW34055   3.289   6.663   4.093 -0.3175 -0.3270 -0.0300
10794SOL    HW134056   3.249   6.590   4.046 -1.1298 -0.0007  0.1381
10794SOL    HW234057   3.278   6.641   4.185 -0.9843  0.2234  0.0253
10795SOL     OW34058   5.176   0.186   7.593 -0.7039 -0.3149  0.1676
10795SOL    HW134059   5.206   0.125   7.525 -0.7517  0.4524 -0.5476
10795SOL    HW234060   5.084   0.164   7.604 -1.2347  0.8867 -1.4884
10796SOL     OW34061   7.101   7.488   5.658  0.3607 -0.1748  0.3894
10796SOL    HW134062   7.061   7.460   5.740 -1.2954 -0.4119 -0.4744
10796SOL    HW234063   7.129   7.407   5.616 -0.8973 -0.2564 -0.3231
10797SOL     OW34064   2.506   2.119   5.019  0.1392  0.1212  0.2465
10797SOL    HW134065   2.475   2.057   5.085  2.4096 -0.0160  1.2886
10797SOL    HW234066   2.601   2.120   5.030  0.3844  1.9029 -1.4592
10798SOL     OW34067   2.615   8.819   4.073  0.4486  0.3843 -0.3775
10798SOL    HW134068   2.559   8.756   4.027 -1.2641  1.3892  0.2052
10798SOL    HW234069   2.698   8.817   4.026 -0.3991 -0.4537 -1.9230
10799SOL     OW34070   6.247   9.662   1.805 -0.0413  0.0940  0.2561
10799SOL    HW134071   6.327   9.615   1.830  1.9076  2.6996 -0.5786
10799SOL    HW234072   6.224   9.626   1.719  0.9885  0.1527 -0.0559
10800SOL     OW34073   6.198   5.227   2.230 -0.1151 -0.3760  0.0684
10800SOL    HW134074   6.172   5.137   2.249 -0.4665 -0.1971  0.4398
10800SOL    HW234075   6.294   5.223   2.224  0.0109 -0.4565  1.7789
10801SOL     OW34076   3.480   8.101   4.751 -0.4317 -0.3027  0.2514
10801SOL    HW134077   3.417   8.053   4.697  0.6785 -0.0344 -1.3748
10801SOL    HW234078   3.552   8.040   4.765  1.1825  0.8804 -2.1779
10802SOL     OW34079   6.833   3.782   9.225  0.2111  0.0219 -0.3287
10802SOL    HW134080   6.896   3.823   9.284  0.2474 -0.8902  0.2885
10802SOL    HW234081   6.874   3.699   9.201  0.1024  0.2873 -1.4829
10803SOL     OW34082   6.899   7.983   7.392  0.0696 -0.1749  0.2954
10803SOL    HW134083   6.885   7.889   7.406 -0.1495 -0.1816  0.0398
10803SOL    HW234084   6.991   7.997   7.413  0.3054 -0.5909 -0.4237
10804SOL     OW34085   4.954   7.891   5.251  0.0783 -0.4755  0.0169
10804SOL    HW134086   5.013   7.845   5.192  0.6540 -0.0075  0.2057
10804SOL    HW234087   4.971   7.851   5.337  0.9524  0.4024  0.2744
10805SOL     OW34088   8.664   8.339   6.580 -0.1717  0.3937 -0.1782
10805SOL    HW134089   8.673   8.281   6.504  0.0330 -3.4375  2.5188
10805SOL    HW234090   8.752   8.373   6.595  0.5264 -1.4403  0.1503
10806SOL     OW34091   7.895   7.403   5.958  0.1483 -0.5499  0.2780
10806SOL    HW134092   7.955   7.390   6.031  0.1333 -0.4012  0.3171
10806SOL    HW234093   7.931   7.477   5.910  0.7513 -1.3210 -0.4800
10807SOL     OW34094   2.575   7.852   0.955  0.0680  0.2120  0.2117
10807SOL    HW134095   2.626   7.795   0.898  1.2935  0.3226  1.1763
10807SOL    HW234096   2.500   7.877   0.902  0.2553 -1.1157 -0.7370
10808SOL     OW34097   8.179   2.559   3.714 -0.3378  0.5837 -0.0494
10808SOL    HW134098   8.169   2.512   3.797  1.7989  0.3951  0.1595
10808SOL    HW234099   8.167   2.651   3.736  1.5972  0.6723  0.7934
10809SOL     OW34100   5.228   6.710   0.434 -0.2408 -0.2435 -0.5726
10809SOL    HW134101   5.191   6.708   0.346  0.3428 -0.7833 -0.8116
10809SOL    HW234102   5.163   6.757   0.486 -1.5576 -1.6855 -0.8550
10810SOL     OW34103   3.927   6.733   8.525  0.4074 -0.5736 -0.3738
10810SOL    HW134104   3.831   6.725   8.522  0.4200 -0.6515 -0.6004
10810SOL    HW234105   3.944   6.777   8.608  0.1185  0.2369 -0.7293
10811SOL     OW34106   5.811   0.662   3.940  0.1724  0.8600  0.0350
10811SOL    HW134107   5.817   0.567   3.936 -2.0156  0.6266  0.8986
10811SOL    HW234108   5.831   0.692   3.851 -1.9484 -0.6386 -1.0169
10812SOL     OW34109   5.539   8.678   5.886 -0.2628  0.3796 -0.2882
10812SOL    HW134110   5.548   8.628   5.967  1.4979  1.6954  0.3933
10812SOL    HW234111   5.589   8.628   5.821 -0.5165  0.0437 -0.2299
10813SOL     OW34112   0.027   6.896   2.627 -0.2811 -0.1088  0.9530
10813SOL    HW134113   0.090   6.950   2.675 -2.2254  0.9187  2.5218
10813SOL    HW234114   0.081   6.839   2.572  1.9722  0.9248  1.9504
10814SOL     OW34115   3.425   5.653   7.850  0.2172  0.0371 -0.3442
10814SOL    HW134116   3.459   5.734   7.889  0.2942 -0.4646  0.6486
10814SOL    HW234117   3.410   5.594   7.924 -0.3393 -0.6816 -1.0072
10815SOL     OW34118   7.618   2.659   4.522 -0.5424  0.5519 -0.2424
10815SOL    HW134119   7.599   2.702   4.438 -0.8138 -1.3801 -1.2286
10815SOL    HW234120   7.548   2.688   4.580 -0.5372  1.6643 -0.7671
10816SOL     OW34121   0.035   8.441   5.714 -0.1691 -0.9667  0.0929
10816SOL    HW134122   0.041   8.526   5.670  1.5382 -0.1020  1.8391
10816SOL    HW234123   0.103   8.389   5.673 -1.3085 -1.6184 -1.0763
10817SOL     OW34124   8.468   7.864   4.754 -0.0293  0.5042  0.0664
10817SOL    HW134125   8.427   7.857   4.840  2.8655  1.1317  1.6110
10817SOL    HW234126   8.554   7.901   4.771 -0.5987  4.1235 -3.4953
10818SOL     OW34127   8.570   4.749   6.598 -0.4740  0.6903 -0.7319
10818SOL    HW134128   8.526   4.817   6.547 -1.5550 -1.6362 -3.1667
10818SOL    HW234129   8.660   4.779   6.606 -1.0511  2.6744 -1.1598
10819SOL     OW34130   5.306   7.226   6.672  0.2181  0.8830 -0.5760
10819SOL    HW134131   5.282   7.234   6.764  2.5911 -0.8321  0.2929
10819SOL    HW234132   5.318   7.132   6.658  0.3729  1.1387 -2.5258
10820SOL     OW34133   6.101   7.536   7.227 -0.1876  0.2903 -0.0278
10820SOL    HW134134   6.053   7.601   7.176  0.5520  0.6699 -0.2460
10820SOL    HW234135   6.042   7.514   7.300 -0.4121  1.2555  0.0868
10821SOL     OW34136   9.124   4.771   9.167  0.2791 -0.2079 -0.2252
10821SOL    HW134137   9.148   4.678   9.170  0.5381 -0.1102  2.2679
10821SOL    HW234138   9.126   4.800   9.258  0.3050  2.2959 -0.9444
10822SOL     OW34139   7.410   7.678   5.455  0.0868 -0.3601 -0.1334
10822SOL    HW134140   7.453   7.666   5.370  0.4019 -2.1126  0.2372
10822SOL    HW234141   7.328   7.629   5.447 -0.2261  0.0748  0.3498
10823SOL     OW34142   6.940   9.486   6.941  0.3379  0.4999 -0.5588
10823SOL    HW134143   6.951   9.435   7.021 -0.5117  0.7415 -0.2811
10823SOL    HW234144   7.028   9.514   6.918  0.4913  1.1111  0.7359
10824SOL     OW34145   6.399   5.509   7.760  0.3880  0.5075  0.4232
10824SOL    HW134146   6.418   5.597   7.793 -1.6548  1.2548 -0.2500
10824SOL    HW234147   6.340   5.472   7.826  0.2543  0.1205  0.0886
10825SOL     OW34148   6.594   6.932   8.133  0.5303 -0.6865 -0.5608
10825SOL    HW134149   6.559   6.937   8.044  1.0230  0.2067 -0.7242
10825SOL    HW234150   6.517   6.932   8.190  0.2275 -0.5097 -0.9671
10826SOL     OW34151   0.515   0.654   4.969  0.2202  0.3260 -0.4829
10826SOL    HW134152   0.535   0.637   4.877 -0.4821 -0.9917 -0.4133
10826SOL    HW234153   0.422   0.635   4.978  0.2813  0.4271  0.4985
10827SOL     OW34154   6.991   5.368   1.972  0.4385  0.1498  0.3492
10827SOL    HW134155   7.049   5.401   1.903  1.5434  1.2645  1.7720
10827SOL    HW234156   6.903   5.392   1.942  1.0410  2.5473  0.2857
10828SOL     OW34157   2.449   5.200   0.400  0.6593  0.1038  0.2784
10828SOL    HW134158   2.427   5.263   0.332  1.6162 -1.3112 -1.4336
10828SOL    HW234159   2.366   5.155   0.419  0.5372 -0.0664 -0.6080
10829SOL     OW34160   7.190   7.526   6.606  0.2542  0.3757  0.6609
10829SOL    HW134161   7.098   7.499   6.606  0.4493 -0.4126 -1.6218
10829SOL    HW234162   7.236   7.455   6.651  0.0772 -0.5773 -0.6282
10830SOL     OW34163   2.797   1.839   2.292 -0.7179 -0.3354  0.0682
10830SOL    HW134164   2.757   1.879   2.214 -0.5990  1.3013  0.8045
10830SOL    HW234165   2.723   1.824   2.351 -0.4867  1.2874  0.8273
10831SOL     OW34166   2.008   7.834   0.354  0.1260 -0.0748  0.0229
10831SOL    HW134167   1.993   7.896   0.282 -1.5920 -2.8031 -2.1523
10831SOL    HW234168   2.025   7.890   0.430 -0.0466  3.0185 -2.0317
10832SOL     OW34169   5.379   1.881   4.575  0.1926  0.0912  0.1810
10832SOL    HW134170   5.379   1.794   4.536 -0.2163  0.1225  0.1043
10832SOL    HW234171   5.342   1.938   4.508  0.6661  0.3623  0.1492
10833SOL     OW34172   7.352   9.282   5.374 -0.0482 -0.0551  0.5037
10833SOL    HW134173   7.415   9.325   5.432 -1.3609 -0.9808  2.7841
10833SOL    HW234174   7.342   9.342   5.301  2.2253  0.8725  0.8462
10834SOL     OW34175   0.147   3.214   8.006 -0.4133  0.0434  0.3789
10834SOL    HW134176   0.202   3.248   8.077  0.8683 -2.4792  0.7107
10834SOL    HW234177   0.207   3.202   7.933 -1.3116  0.6420 -0.4875
10835SOL     OW34178   8.935   0.878   3.221 -0.1245 -0.7325 -0.3238
10835SOL    HW134179   8.913   0.957   3.173  0.0367  0.1291  0.9692
10835SOL    HW234180   9.024   0.856   3.194  0.9326  1.1728  1.3581
10836SOL     OW34181   9.628   8.830   2.465 -0.1292 -0.0351 -0.4189
10836SOL    HW134182   9.583   8.854   2.545 -0.9424  0.3670 -0.9812
10836SOL    HW234183   9.561   8.783   2.413  0.9217 -2.0820 -0.0449
10837SOL     OW34184   0.905   3.876   1.646  0.1547  0.2675  0.4110
10837SOL    HW134185   0.811   3.859   1.649  0.3954 -1.1020  1.3837
10837SOL    HW234186   0.943   3.808   1.703  1.4551  2.6603  2.6102
10838SOL     OW34187   0.995   3.172   6.841  0.8420  0.6077 -0.1622
10838SOL    HW134188   0.964   3.254   6.879  2.5963  0.7432  1.1058
10838SOL    HW234189   1.010   3.115   6.916 -0.0912 -0.8112 -1.0043
10839SOL     OW34190   3.497   6.354   5.845 -0.0714  0.0159  0.4360
10839SOL    HW134191   3.506   6.448   5.830  0.4125  0.0426  0.8918
10839SOL    HW234192   3.479   6.345   5.938  1.0828 -0.4127  0.6336
10840SOL     OW34193   6.010   7.289   5.183 -0.5052  0.0390  0.4668
10840SOL    HW134194   6.094   7.243   5.191 -0.6594 -0.4504 -0.5572
10840SOL    HW234195   5.947   7.219   5.165 -0.8111  0.6124 -0.7181
10841SOL     OW34196   3.989   2.678   6.869  0.5909 -0.2443 -0.4538
10841SOL    HW134197   3.907   2.695   6.821  0.0541 -0.0264  0.5059
10841SOL    HW234198   4.001   2.756   6.922  2.3416  0.4711 -1.7978
10842SOL     OW34199   4.280   8.489   1.542 -0.0265 -0.8441 -0.1621
10842SOL    HW134200   4.269   8.543   1.620 -0.7932 -1.3809  0.1047
10842SOL    HW234201   4.233   8.536   1.473  1.5770  0.2078 -0.6007
10843SOL     OW34202   8.527   4.396   3.113  0.5149  0.1380  0.0771
10843SOL    HW134203   8.535   4.451   3.035 -0.7304 -0.4530 -0.4987
10843SOL    HW234204   8.435   4.371   3.115  0.7495 -0.7158  1.1584
10844SOL     OW34205   0.295   7.038   6.532 -0.1083 -0.0320  0.4562
10844SOL    HW134206   0.232   6.975   6.499 -1.1902  0.3066  1.7977
10844SOL    HW234207   0.327   7.001   6.614  0.0253  0.6611  0.7309
10845SOL     OW34208   4.044   8.448   6.941  0.3317  0.0369  0.4496
10845SOL    HW134209   3.959   8.420   6.907 -0.4476  0.9085  1.6075
10845SOL    HW234210   4.064   8.386   7.011 -0.4025  1.0397  1.6058
10846SOL     OW34211   7.476   7.655   8.890 -0.4268 -0.6769  0.1254
10846SOL    HW134212   7.520   7.570   8.901  0.6082 -0.4363 -1.7244
10846SOL    HW234213   7.384   7.632   8.878 -0.0423 -1.6643 -1.2755
10847SOL     OW34214   3.676   2.371   6.557  0.0844 -0.1648  0.4110
10847SOL    HW134215   3.699   2.302   6.619 -0.4921 -1.1490 -0.4346
10847SOL    HW234216   3.636   2.439   6.611  1.6706  0.0438  1.4187
10848SOL     OW34217   5.854   4.813   3.053  0.0667  0.2396 -0.2848
10848SOL    HW134218   5.865   4.877   3.123 -1.1401 -0.1828  0.3243
10848SOL    HW234219   5.846   4.729   3.099  2.3581 -0.4823 -1.1020
10849SOL     OW34220   0.811   3.806   8.048  0.6112  0.0114 -0.0199
10849SOL    HW134221   0.865   3.847   7.981  1.1585 -0.3963  0.1553
10849SOL    HW234222   0.726   3.791   8.006  0.5968  0.7696 -0.2627
10850SOL     OW34223   9.129   8.227   4.131  0.5509 -0.0788  0.2195
10850SOL    HW134224   9.148   8.145   4.177  0.7913 -0.3369 -0.3207
10850SOL    HW234225   9.212   8.274   4.132  0.5289 -0.0403  0.1487
10851SOL     OW34226   4.720   7.757   8.489  0.4713  0.2011 -0.2301
10851SOL    HW134227   4.684   7.783   8.404 -2.3623  1.0491  1.0883
10851SOL    HW234228   4.730   7.662   8.482 -0.7388  0.1121 -1.2114
10852SOL     OW34229   7.770   8.077   9.605 -0.3643 -0.7811  0.4203
10852SOL    HW134230   7.808   8.038   9.527 -0.1179 -0.4160  0.3527
10852SOL    HW234231   7.828   8.151   9.625 -0.6393 -0.6458  0.7259
10853SOL     OW34232   9.557   5.255   9.068  0.4326 -0.0259  0.5467
10853SOL    HW134233   9.530   5.199   8.995  2.5568  0.1845 -0.4869
10853SOL    HW234234   9.541   5.202   9.146 -2.9260  0.1471  0.1122
10854SOL     OW34235   4.654   2.820   2.284  0.5715 -0.5384  0.3053
10854SOL    HW134236   4.583   2.869   2.243 -0.9790 -3.8959 -1.4437
10854SOL    HW234237   4.633   2.823   2.378  1.3307  3.0338  0.5103
10855SOL     OW34238   0.432   3.702   8.405 -0.5249 -0.1401  0.4462
10855SOL    HW134239   0.352   3.701   8.459 -0.9496  2.6237  0.0194
10855SOL    HW234240   0.407   3.752   8.327  0.7508 -2.0538 -1.2809
10856SOL     OW34241   4.753   4.350   5.295  0.4028  0.0030 -0.1416
10856SOL    HW134242   4.782   4.412   5.228  1.5340  0.1511  0.4578
10856SOL    HW234243   4.698   4.402   5.354 -0.5923 -0.1293 -0.9426
10857SOL     OW34244   7.478   5.855   0.103  0.1417 -0.1452  0.0789
10857SOL    HW134245   7.446   5.777   0.057  1.7280 -0.5145 -0.4757
10857SOL    HW234246   7.492   5.919   0.034  1.2052 -0.2290  0.2037
10858SOL     OW34247   3.009   0.818   1.852 -0.2593  0.0185 -0.2051
10858SOL    HW134248   3.026   0.912   1.852 -1.1240  0.2748  2.9115
10858SOL    HW234249   2.966   0.802   1.768  0.3709  2.2815 -1.0329
10859SOL     OW34250   4.473   4.648   3.289  0.4806 -0.4550  0.2215
10859SOL    HW134251   4.398   4.669   3.234  0.2926 -1.6427  0.0028
10859SOL    HW234252   4.499   4.560   3.262  1.2782 -0.4829  1.0400
10860SOL     OW34253   6.198   5.124   9.137 -0.0675 -0.0173 -0.0624
10860SOL    HW134254   6.274   5.171   9.104  0.1521  0.1892  0.7045
10860SOL    HW234255   6.233   5.040   9.168 -0.2638 -0.1997 -0.3290
10861SOL     OW34256   8.074   9.180   0.073  0.0009  0.8101  0.1351
10861SOL    HW134257   8.149   9.131   0.040 -0.0359  1.1068 -0.3947
10861SOL    HW234258   8.035   9.220  -0.004 -2.3808 -1.5951 -0.0261
10862SOL     OW34259   7.705   4.438   5.431 -1.0574 -0.2736  0.0507
10862SOL    HW134260   7.691   4.507   5.494 -0.5945 -1.4120  1.4554
10862SOL    HW234261   7.785   4.464   5.384 -0.7387  0.0274  0.7457
10863SOL     OW34262   0.440   7.459   1.151  0.1102  0.0056 -0.3433
10863SOL    HW134263   0.503   7.481   1.082 -0.7078 -0.3130 -1.2087
10863SOL    HW234264   0.484   7.391   1.202  0.0218 -1.0626 -1.6437
10864SOL     OW34265   7.610   4.991   8.565  0.0606 -0.2236 -0.6072
10864SOL    HW134266   7.658   4.909   8.575  0.0072  0.0125  2.3355
10864SOL    HW234267   7.678   5.059   8.569 -0.1127 -0.0368 -0.7928
10865SOL     OW34268   1.325   6.100   4.373  0.1986  0.7270  0.0626
10865SOL    HW134269   1.373   6.183   4.373  0.2582  0.7000  0.8678
10865SOL    HW234270   1.354   6.056   4.452  1.1905 -0.6714 -1.0184
10866SOL     OW34271   7.231   4.479   3.281  0.1557 -0.1352 -0.4295
10866SOL    HW134272   7.308   4.466   3.337  0.6561  0.7790 -0.8872
10866SOL    HW234273   7.192   4.392   3.275  0.7971 -0.4935  0.3248
10867SOL     OW34274   7.662   7.685   5.586  0.0484 -0.2246  0.3559
10867SOL    HW134275   7.572   7.668   5.560  0.1863  0.7462 -0.8651
10867SOL    HW234276   7.716   7.643   5.519  0.4472  0.9304 -0.0769
10868SOL     OW34277   7.524   4.483   5.929 -0.1267 -0.1194 -0.0434
10868SOL    HW134278   7.602   4.534   5.911 -1.2910  2.4999  1.6588
10868SOL    HW234279   7.519   4.478   6.025 -1.4510 -1.2103 -0.1251
10869SOL     OW34280   8.710   1.611   1.408  0.1213  0.6584  0.0402
10869SOL    HW134281   8.625   1.650   1.392 -0.8073 -1.0696  0.5237
10869SOL    HW234282   8.721   1.546   1.338 -0.1424 -0.9215  1.4110
10870SOL     OW34283   7.233   3.303   6.657 -0.3422  0.3463 -0.5162
10870SOL    HW134284   7.167   3.304   6.587 -1.6844 -1.3928  0.6224
10870SOL    HW234285   7.187   3.337   6.733  0.6437  0.7969 -0.1079
10871SOL     OW34286   3.635   7.021   3.042 -0.6094  0.2840 -1.0439
10871SOL    HW134287   3.611   6.964   2.969 -0.5608 -0.2821 -0.6267
10871SOL    HW234288   3.697   7.083   3.005 -0.7460  0.1347 -1.5315
10872SOL     OW34289   0.771   0.916   6.564 -0.3925  0.1350 -0.7090
10872SOL    HW134290   0.831   0.964   6.621 -0.2418  0.1490 -0.8809
10872SOL    HW234291   0.828   0.863   6.508 -0.4723  1.2322 -1.8688
10873SOL     OW34292   0.778   3.568   2.484 -0.2852 -0.1706 -0.4008
10873SOL    HW134293   0.701   3.533   2.437 -1.0263  0.0478  0.6119
10873SOL    HW234294   0.745   3.587   2.572  0.8905  0.1410 -0.0160
10874SOL     OW34295   8.875   0.181   0.946 -0.0416 -0.1361  0.5438
10874SOL    HW134296   8.895   0.245   1.014 -0.5574  1.0904 -0.4063
10874SOL    HW234297   8.794   0.140   0.974  1.4274 -2.0570  2.2804
10875SOL     OW34298   3.469   8.454   3.059  0.0380 -0.6109  0.3208
10875SOL    HW134299   3.511   8.369   3.071 -0.0343 -0.4898  1.5419
10875SOL    HW234300   3.540   8.513   3.033 -0.0280 -1.1746 -1.1917
10876SOL     OW34301   5.813   9.585   4.964 -0.2816  0.1148 -0.0351
10876SOL    HW134302   5.870   9.662   4.957 -0.6504  0.4622  0.6753
10876SOL    HW234303   5.816   9.562   5.057  1.2113 -1.7994 -0.4881
10877SOL     OW34304   9.459   6.732   8.323  0.5281 -0.0269  0.9207
10877SOL    HW134305   9.457   6.808   8.380  0.2710 -1.3748  2.8329
10877SOL    HW234306   9.551   6.723   8.297  0.6468  0.6359  1.1122
10878SOL     OW34307   9.170   2.048   4.213  0.2909 -0.8438  0.3776
10878SOL    HW134308   9.075   2.043   4.215  0.1794  0.8351  1.3939
10878SOL    HW234309   9.199   1.992   4.285  0.0459 -0.9178  0.4182
10879SOL     OW34310   9.501   6.934   3.088 -0.5351 -0.2900  0.2252
10879SOL    HW134311   9.472   6.940   2.997 -0.4393 -2.7730 -0.0318
10879SOL    HW234312   9.480   7.020   3.125 -1.7993  0.3422 -1.7720
10880SOL     OW34313   8.000   6.158   0.319  0.2269  0.1929 -0.5673
10880SOL    HW134314   7.911   6.164   0.284 -0.8916 -0.5856  1.9538
10880SOL    HW234315   8.024   6.248   0.339 -0.6129  0.2736  0.1311
10881SOL     OW34316   5.460   1.917   9.242  0.1569 -0.0821  0.4433
10881SOL    HW134317   5.495   1.829   9.232  1.2950  0.4729 -0.8069
10881SOL    HW234318   5.433   1.943   9.154 -0.7587  0.5871  0.9057
10882SOL     OW34319   6.368   8.088   9.088 -0.0729 -0.0342  0.0043
10882SOL    HW134320   6.373   8.076   9.182 -1.5707 -1.8096 -0.0730
10882SOL    HW234321   6.379   8.000   9.052 -0.5024  0.4603 -1.4134
10883SOL     OW34322   0.960   9.270   5.525  0.2000  0.2469 -0.1138
10883SOL    HW134323   0.921   9.189   5.493  1.3710 -0.7946  0.9572
10883SOL    HW234324   0.979   9.321   5.446 -0.9921 -0.2917 -0.7755
10884SOL     OW34325   1.682   0.136   4.152 -0.4312 -0.0068 -0.4967
10884SOL    HW134326   1.613   0.164   4.091 -0.3716 -0.6261 -0.8571
10884SOL    HW234327   1.717   0.056   4.113  0.7961  0.5278 -0.5487
10885SOL     OW34328   7.405   2.400   1.723 -0.0301  0.2326 -0.1559
10885SOL    HW134329   7.499   2.408   1.738  0.6711  1.6516 -4.1796
10885SOL    HW234330   7.371   2.489   1.730 -0.9845 -0.1558  0.4695
10886SOL     OW34331   3.147   2.409   7.505 -0.7877  0.1843  0.4371
10886SOL    HW134332   3.074   2.372   7.555 -0.4406 -0.4122  0.5037
10886SOL    HW234333   3.190   2.333   7.465 -1.2726  0.6623 -1.0634
10887SOL     OW34334   8.235   2.629   2.365 -0.0238 -0.3525  0.1458
10887SOL    HW134335   8.206   2.633   2.457 -0.7821 -0.8168 -0.0676
10887SOL    HW234336   8.327   2.656   2.368  0.4539 -1.9603  1.2746
10888SOL     OW34337   5.327   3.335   5.486 -0.1262  0.7612 -0.4687
10888SOL    HW134338   5.277   3.416   5.494 -0.2131  0.7429 -0.7931
10888SOL    HW234339   5.366   3.340   5.398  2.8677  2.1607  0.8152
10889SOL     OW34340   4.871   3.844   9.468 -0.0183 -0.5321  0.1023
10889SOL    HW134341   4.861   3.811   9.378  1.8904 -1.4663  0.1786
10889SOL    HW234342   4.782   3.866   9.496 -0.8526 -1.7625 -1.4393
10890SOL     OW34343   7.937   9.647   8.102 -0.0900 -0.1840 -0.6509
10890SOL    HW134344   7.942   9.598   8.020 -1.4722  1.4777 -1.7767
10890SOL    HW234345   7.917   9.581   8.168  0.4310 -1.4654 -1.7375
10891SOL     OW34346   1.900   8.153   2.858  0.1752 -0.9560 -0.0558
10891SOL    HW134347   1.818   8.107   2.879  0.6344 -1.3996  0.8367
10891SOL    HW234348   1.944   8.095   2.794  0.1105 -1.0641 -0.0029
10892SOL     OW34349   3.128   0.457   2.902  0.2186  0.7766 -0.2120
10892SOL    HW134350   3.118   0.542   2.859 -0.9071  0.6929 -0.1310
10892SOL    HW234351   3.062   0.401   2.861  0.9916 -0.0977 -0.3150
10893SOL     OW34352   5.504   9.604   9.292  0.0147 -0.4287  0.5595
10893SOL    HW134353   5.534   9.645   9.211 -1.1732  0.8530  0.7156
10893SOL    HW234354   5.491   9.512   9.270 -0.4959 -0.0562 -0.7750
10894SOL     OW34355   5.352   4.474   4.031  0.0058  0.1051 -0.5939
10894SOL    HW134356   5.319   4.514   4.112  1.6766 -0.2165  0.2897
10894SOL    HW234357   5.380   4.386   4.059 -0.0313 -0.2640 -1.6885
10895SOL     OW34358   5.268   5.291   6.910 -0.4922  0.2060  0.0510
10895SOL    HW134359   5.258   5.376   6.866 -2.0247 -0.0064 -0.0829
10895SOL    HW234360   5.285   5.314   7.001  2.0251  0.6445 -0.4736
10896SOL     OW34361   5.719   9.008   6.949  0.5203  0.4665 -0.5061
10896SOL    HW134362   5.685   8.963   6.872  0.5459  0.2200 -0.3729
10896SOL    HW234363   5.778   8.945   6.990  1.3963  1.0084 -0.9069
10897SOL     OW34364   2.605   8.176   7.345  0.0420  0.1436 -0.7430
10897SOL    HW134365   2.538   8.123   7.302 -1.0136  0.9576 -0.1303
10897SOL    HW234366   2.632   8.123   7.420 -0.2826  0.0309 -0.7024
10898SOL     OW34367   0.214   6.026   4.990 -0.0645  0.3053 -0.0497
10898SOL    HW134368   0.177   6.115   4.993  0.2800  0.4208  1.4692
10898SOL    HW234369   0.295   6.032   5.041 -0.8566 -1.2543  1.4733
10899SOL     OW34370   9.536   5.336   2.326 -0.1002 -0.3532  0.2165
10899SOL    HW134371   9.446   5.362   2.347 -0.2625  0.0957 -0.9900
10899SOL    HW234372   9.589   5.411   2.350 -0.2673  0.0965 -0.7840
10900SOL     OW34373   1.392   5.503   6.545  0.4603  0.5970 -0.7896
10900SOL    HW134374   1.311   5.548   6.573  1.1928 -0.2802  3.4626
10900SOL    HW234375   1.458   5.572   6.543  0.6846  0.5278  1.4653
10901SOL     OW34376   4.626   9.465   7.597  0.2660  0.1991  0.4691
10901SOL    HW134377   4.595   9.418   7.519 -1.3218  0.4017  0.9502
10901SOL    HW234378   4.693   9.525   7.563  1.3768 -1.4332 -0.3565
10902SOL     OW34379   4.198   6.372   8.709 -0.0719  0.2332 -0.1604
10902SOL    HW134380   4.187   6.389   8.616  0.1074  0.9643 -0.0497
10902SOL    HW234381   4.116   6.328   8.735  0.1973 -0.6923 -0.8145
10903SOL     OW34382   8.978   8.397   8.963 -0.1795 -0.3947  0.3355
10903SOL    HW134383   8.986   8.320   9.019 -0.9398  0.5225  1.7532
10903SOL    HW234384   8.922   8.368   8.891 -0.0886 -1.2840  0.6112
10904SOL     OW34385   0.697   9.213   3.280  0.3141  0.2659 -0.1116
10904SOL    HW134386   0.677   9.261   3.360  0.1903 -1.9259  1.2620
10904SOL    HW234387   0.753   9.272   3.230  0.7507  1.5492  1.7875
10905SOL     OW34388   6.178   7.821   3.359 -0.2387 -0.0869 -0.6494
10905SOL    HW134389   6.184   7.728   3.381  1.2574  0.1778  0.1874
10905SOL    HW234390   6.268   7.853   3.364 -0.7342  1.4205 -0.8644
10906SOL     OW34391   8.007   6.610   0.184 -0.1442 -0.2409 -0.1717
10906SOL    HW134392   7.934   6.654   0.227  0.0009  0.4553 -0.6154
10906SOL    HW234393   8.069   6.681   0.164  0.9158 -0.8808  0.7144
10907SOL     OW34394   0.488   0.445   6.972  0.0678  0.3279  0.0566
10907SOL    HW134395   0.481   0.415   6.881  0.3821 -0.4894  0.2894
10907SOL    HW234396   0.562   0.396   7.007 -0.4788  0.1260  0.9515
10908SOL     OW34397   4.540   6.619   8.492  0.8602 -0.3134 -0.2462
10908SOL    HW134398   4.539   6.536   8.541  1.0484 -1.5462 -2.2404
10908SOL    HW234399   4.565   6.594   8.403  1.1413  1.9419 -0.8522
10909SOL     OW34400   6.737   8.655   0.004 -0.2775 -0.5416 -0.3443
10909SOL    HW134401   6.747   8.735  -0.048 -1.5516  1.0311  1.6887
10909SOL    HW234402   6.717   8.587  -0.061 -0.4718  1.0283 -2.0295
10910SOL     OW34403   5.805   3.628   2.730  0.1585  0.1548 -0.2232
10910SOL    HW134404   5.728   3.649   2.783 -0.1769 -2.7000  0.5829
10910SOL    HW234405   5.880   3.646   2.786 -0.0925 -0.3969  0.2980
10911SOL     OW34406   1.248   6.811   1.668 -0.1392 -0.0362  0.0734
10911SOL    HW134407   1.323   6.795   1.611  0.4032 -0.5189  0.8976
10911SOL    HW234408   1.277   6.884   1.724 -1.1130  1.2453 -1.0409
10912SOL     OW34409   9.315   4.765   4.612 -0.3239  0.1835  0.1623
10912SOL    HW134410   9.325   4.759   4.707 -1.1071 -0.9798  0.1909
10912SOL    HW234411   9.268   4.847   4.598 -3.0756 -1.1295  1.0613
10913SOL     OW34412   7.095   7.562   1.885  0.1088  0.3984 -0.3253
10913SOL    HW134413   7.020   7.503   1.886  0.4666 -0.3320  3.7844
10913SOL    HW234414   7.168   7.507   1.915  1.3920  2.0049 -0.3739
10914SOL     OW34415   1.227   8.521   3.715  0.1096  0.2802 -0.0976
10914SOL    HW134416   1.322   8.509   3.722 -0.0267 -0.6270  0.3279
10914SOL    HW234417   1.199   8.450   3.657 -0.3595  0.3228  0.0786
10915SOL     OW34418   6.538   5.041   2.350 -0.2543  0.8821  0.5028
10915SOL    HW134419   6.514   4.960   2.305 -0.4064  0.4113  1.4096
10915SOL    HW234420   6.631   5.053   2.331 -0.5416  1.2410 -0.7618
10916SOL     OW34421   7.264   2.877   3.692  0.2922  0.8856 -0.3404
10916SOL    HW134422   7.304   2.794   3.717  0.1789  0.8245 -0.3595
10916SOL    HW234423   7.292   2.891   3.601  0.1994  0.7998 -0.3823
10917SOL     OW34424   7.273   1.291   3.511  0.3209 -0.2084  0.6944
10917SOL    HW134425   7.361   1.290   3.474  0.1063 -0.2127  0.1694
10917SOL    HW234426   7.269   1.371   3.562  0.1652  0.5276 -0.4396
10918SOL     OW34427   6.450   5.295   5.838  0.0057  0.4584  0.2385
10918SOL    HW134428   6.498   5.314   5.757  0.8828 -1.6759  0.1968
10918SOL    HW234429   6.518   5.283   5.904 -0.5776 -0.3496  0.7074
10919SOL     OW34430   6.351   6.638   0.891 -0.3564  0.5824  0.0385
10919SOL    HW134431   6.344   6.598   0.804  0.6589 -1.3340  0.7712
10919SOL    HW234432   6.269   6.616   0.934  0.2221 -0.9016  0.4620
10920SOL     OW34433   7.890   8.932   0.204 -0.2508 -0.0177  0.0930
10920SOL    HW134434   7.814   8.901   0.155 -1.0818 -0.7796  1.7878
10920SOL    HW234435   7.885   9.028   0.198  0.0813 -0.0633 -1.8241
10921SOL     OW34436   6.068   3.104   8.575  0.9894 -0.6040 -0.2070
10921SOL    HW134437   6.056   3.097   8.481 -0.6087  0.8615 -0.1571
10921SOL    HW234438   6.105   3.191   8.588  4.1656 -1.9078  0.3468
10922SOL     OW34439   2.088   4.993   7.982 -0.1758  0.4374  0.4271
10922SOL    HW134440   2.110   5.086   7.992 -0.2032  0.3623  1.2206
10922SOL    HW234441   2.151   4.961   7.917  0.3437  0.8359  0.7266
10923SOL     OW34442   8.575   0.403   4.832  0.0098 -0.1625 -0.0953
10923SOL    HW134443   8.498   0.458   4.841 -0.0335 -0.3169  0.5088
10923SOL    HW234444   8.560   0.330   4.893  0.8503  0.0583  0.3981
10924SOL     OW34445   7.124   5.774   7.939 -0.0573  0.0810 -0.5028
10924SOL    HW134446   7.136   5.786   8.033  0.2594  0.6045 -0.6050
10924SOL    HW234447   7.188   5.707   7.915  1.3535  1.4542 -0.6999
10925SOL     OW34448   4.647   3.906   8.856  0.6704  0.2877 -0.0941
10925SOL    HW134449   4.618   3.895   8.947  0.5592  3.1132  0.2995
10925SOL    HW234450   4.740   3.927   8.864  0.6871  0.4287 -0.6645
10926SOL     OW34451   8.639   1.450   4.304  0.2658 -0.0562  0.6015
10926SOL    HW134452   8.557   1.406   4.280 -0.1248  1.1821 -0.4518
10926SOL    HW234453   8.697   1.431   4.230  0.7056 -0.3490  1.0217
10927SOL     OW34454   6.932   5.904   2.436  0.1684 -0.1899  0.6064
10927SOL    HW134455   6.893   5.966   2.374 -0.1159 -1.4653 -0.5590
10927SOL    HW234456   6.914   5.818   2.397  1.8605 -0.9372  1.3843
10928SOL     OW34457   9.126   2.530   2.233 -0.1822 -0.1453 -0.9954
10928SOL    HW134458   9.149   2.620   2.212 -2.4534  0.7618  0.1435
10928SOL    HW234459   9.065   2.536   2.306 -0.1597 -2.6350 -0.6650
10929SOL     OW34460   8.771   7.851   3.513 -0.3511 -0.0438  0.7634
10929SOL    HW134461   8.703   7.808   3.564  0.3639 -0.6986  1.1817
10929SOL    HW234462   8.726   7.879   3.432 -0.8911 -1.3432  0.5882
10930SOL     OW34463   0.381   4.273   6.543 -0.1825 -0.2228  1.0136
10930SOL    HW134464   0.378   4.224   6.625 -0.8349  0.0989  1.1852
10930SOL    HW234465   0.322   4.226   6.485  0.1616 -0.3611  0.7727
10931SOL     OW34466   1.465   3.548   8.703  0.2906  0.2584 -0.0483
10931SOL    HW134467   1.556   3.542   8.733  0.0694  1.2745  0.9102
10931SOL    HW234468   1.471   3.578   8.613  0.9787 -2.6388 -1.1029
10932SOL     OW34469   0.819   0.373   9.022 -0.3056 -0.4058  0.8659
10932SOL    HW134470   0.814   0.298   8.963  0.5012 -1.7591  2.4480
10932SOL    HW234471   0.913   0.392   9.028 -0.4253  0.0647  1.3196
10933SOL     OW34472   8.233   6.581   2.471 -0.5130  0.7295 -0.4565
10933SOL    HW134473   8.272   6.494   2.475 -2.3329 -0.1464 -0.6088
10933SOL    HW234474   8.303   6.637   2.440  0.6372 -0.7243 -0.6130
10934SOL     OW34475   5.448   8.682   6.877 -0.3704 -0.4018  0.3924
10934SOL    HW134476   5.358   8.705   6.898  0.4192  2.0665  1.4432
10934SOL    HW234477   5.488   8.764   6.847  1.9165 -1.0278  1.4752
10935SOL     OW34478   7.617   4.296   2.081  0.1679  0.6181  0.2676
10935SOL    HW134479   7.590   4.381   2.045  1.9768  0.5442 -1.4621
10935SOL    HW234480   7.630   4.312   2.174 -0.8933  1.8604  0.2361
10936SOL     OW34481   0.587   4.988   4.185  0.1143 -0.5228 -0.2661
10936SOL    HW134482   0.672   4.989   4.228  1.4085 -0.1626 -2.6676
10936SOL    HW234483   0.590   5.062   4.124 -2.5992  0.5410  0.7279
10937SOL     OW34484   6.943   4.804   1.412  0.3342 -0.3683  0.3357
10937SOL    HW134485   7.017   4.763   1.368 -0.7384 -0.6742 -1.2479
10937SOL    HW234486   6.888   4.732   1.441 -0.6877 -0.1329 -0.9260
10938SOL     OW34487   8.291   5.416   4.771  0.3590 -0.0646 -0.1336
10938SOL    HW134488   8.299   5.356   4.698 -0.3818  0.3268 -0.5474
10938SOL    HW234489   8.365   5.476   4.762 -0.0561  0.3376 -0.8982
10939SOL     OW34490   1.263   0.945   5.175 -0.0793 -0.5742  0.6180
10939SOL    HW134491   1.303   1.018   5.223 -1.1839  1.2403 -1.0366
10939SOL    HW234492   1.202   0.906   5.238  0.1769  0.2491  1.4053
10940SOL     OW34493   8.779   3.889   4.487 -0.0782  0.3794 -0.2406
10940SOL    HW134494   8.804   3.798   4.497 -0.4966 -0.0417 -2.5002
10940SOL    HW234495   8.795   3.928   4.573  1.6286 -1.4348  0.3379
10941SOL     OW34496   6.968   5.969   7.869 -0.0588 -0.4656 -0.3510
10941SOL    HW134497   7.021   5.894   7.896  0.6433 -0.1422 -0.7927
10941SOL    HW234498   6.974   5.970   7.774  1.1380  0.9678 -0.3107
10942SOL     OW34499   7.998   3.024   1.225  0.0903  0.0969  0.0110
10942SOL    HW134500   7.951   3.002   1.145  0.1147 -0.1770  0.0729
10942SOL    HW234501   7.934   3.072   1.277  0.5105  1.6016 -0.7906
10943SOL     OW34502   0.213   5.963   8.983 -0.2786 -0.3498  0.7919
10943SOL    HW134503   0.235   5.876   9.016  0.2084 -0.6751 -0.3121
10943SOL    HW234504   0.123   5.978   9.012 -0.9268 -1.8940 -0.2559
10944SOL     OW34505   3.445   5.201   0.815 -0.1346  0.3866  0.3132
10944SOL    HW134506   3.400   5.117   0.800 -0.8113  0.7701  0.1251
10944SOL    HW234507   3.535   5.177   0.834  0.3721 -0.2799 -2.4127
10945SOL     OW34508   8.244   3.223   7.507  0.3355  0.5842 -0.5461
10945SOL    HW134509   8.282   3.307   7.534 -0.3564  0.8918 -0.5096
10945SOL    HW234510   8.307   3.188   7.444  0.9888  0.7841 -0.0276
10946SOL     OW34511   4.498   8.329   2.165  0.0005  0.0415 -0.8051
10946SOL    HW134512   4.592   8.337   2.153 -0.2481  1.1227 -2.3386
10946SOL    HW234513   4.470   8.266   2.100 -0.1821 -1.3918  0.6117
10947SOL     OW34514   7.469   3.331   9.347 -0.4686 -0.2213  0.0702
10947SOL    HW134515   7.427   3.307   9.429  0.7429 -0.1801  0.7249
10947SOL    HW234516   7.417   3.287   9.279 -1.5926 -0.0926  0.8363
10948SOL     OW34517   5.437   4.177   5.116 -0.3113 -0.3831  0.0238
10948SOL    HW134518   5.432   4.100   5.059 -2.3037 -0.3542  0.0804
10948SOL    HW234519   5.406   4.147   5.201 -1.9101  0.6299 -0.1609
10949SOL     OW34520   5.938   5.134   5.355 -0.5374  0.6520 -0.1345
10949SOL    HW134521   6.009   5.092   5.404  0.0341  0.6061 -0.9821
10949SOL    HW234522   5.921   5.074   5.282  0.3618  1.8919 -1.4240
10950SOL     OW34523   3.920   8.497   8.684  0.2048  0.3737 -0.1090
10950SOL    HW134524   3.937   8.546   8.764  0.2669 -0.7325  0.5756
10950SOL    HW234525   3.986   8.530   8.622  1.7895 -0.4652  1.0554
10951SOL     OW34526   9.056   8.618   2.573 -0.3982  0.6344  0.1301
10951SOL    HW134527   9.036   8.545   2.631 -0.4721 -0.7339 -1.5437
10951SOL    HW234528   9.142   8.598   2.537 -0.8842  0.7929 -1.1759
10952SOL     OW34529   4.198   3.126   8.550 -0.3177  0.2595  0.4856
10952SOL    HW134530   4.182   3.213   8.587 -1.0634 -1.2851  4.1697
10952SOL    HW234531   4.275   3.094   8.596  0.0156 -1.0329 -0.9056
10953SOL     OW34532   3.845   1.460   0.550 -0.0685 -0.4743 -0.2400
10953SOL    HW134533   3.935   1.477   0.524  0.2794 -1.4624  0.2556
10953SOL    HW234534   3.794   1.528   0.507  0.8033 -0.4450 -1.2580
10954SOL     OW34535   7.697   1.198   1.807 -0.5600 -0.3754  0.9758
10954SOL    HW134536   7.627   1.208   1.872 -0.5163  0.4601  0.9087
10954SOL    HW234537   7.653   1.207   1.723 -0.3411  0.4678  0.9382
10955SOL     OW34538   6.069   2.232   0.374 -0.2603 -0.3107 -0.4049
10955SOL    HW134539   6.146   2.188   0.338  0.0306  0.1905 -0.3954
10955SOL    HW234540   6.098   2.321   0.394 -0.8958 -0.0432 -0.6152
10956SOL     OW34541   1.036   2.685   5.224 -0.5866 -0.2486  0.0876
10956SOL    HW134542   1.052   2.725   5.309  0.3480 -1.9524  0.7584
10956SOL    HW234543   1.120   2.694   5.177  0.5357 -3.4843  1.1922
10957SOL     OW34544   5.865   3.987   7.316 -0.3266 -0.1935 -0.2780
10957SOL    HW134545   5.924   3.953   7.384  0.0309 -0.4779 -0.7230
10957SOL    HW234546   5.872   4.082   7.324 -2.2553 -0.1382  1.7732
10958SOL     OW34547   7.087   0.171   4.055 -0.5540 -0.3893  0.6201
10958SOL    HW134548   7.147   0.156   3.982  0.4749 -2.0954  1.7570
10958SOL    HW234549   7.002   0.144   4.022  0.1791 -2.7884  0.5254
10959SOL     OW34550   5.256   6.191   7.046 -0.4792  0.5119  0.4214
10959SOL    HW134551   5.288   6.276   7.015  0.3906  0.2014  0.4197
10959SOL    HW234552   5.245   6.202   7.140 -0.3963  0.6395  0.4165
10960SOL     OW34553   1.637   2.095   1.102  0.4873 -0.2884  0.3280
10960SOL    HW134554   1.728   2.124   1.096  0.5944 -0.7031 -0.1361
10960SOL    HW234555   1.611   2.118   1.191  0.5984  1.0969  0.0279
10961SOL     OW34556   3.286   1.762   8.057  0.0357 -0.9769  0.3133
10961SOL    HW134557   3.374   1.761   8.020  0.2879  0.2622  0.8538
10961SOL    HW234558   3.247   1.843   8.024 -0.5658 -1.0376  0.8561
10962SOL     OW34559   4.524   1.327   8.618  0.0040 -0.7841 -0.1723
10962SOL    HW134560   4.434   1.296   8.625  0.0514 -0.6771  1.0648
10962SOL    HW234561   4.554   1.294   8.533 -1.5935  0.2560 -1.1963
10963SOL     OW34562   4.374   7.795   1.397 -0.1247  0.2090 -0.8897
10963SOL    HW134563   4.450   7.803   1.340 -0.0764 -2.6552 -1.3920
10963SOL    HW234564   4.310   7.857   1.362  1.1175  0.9385 -1.9399
10964SOL     OW34565   3.744   7.614   9.376  0.5880 -0.5140 -0.1533
10964SOL    HW134566   3.655   7.603   9.342  1.0723 -0.9662 -1.3147
10964SOL    HW234567   3.764   7.530   9.418  0.0456 -0.0063  1.1763
10965SOL     OW34568   8.054   3.639   4.099  0.1618  0.7060  0.1586
10965SOL    HW134569   8.114   3.713   4.090 -0.4242  0.9841 -2.1198
10965SOL    HW234570   8.072   3.584   4.023 -2.2676  0.6956 -0.5217
10966SOL     OW34571   3.642   7.894   4.731  0.3797 -0.2126  0.2254
10966SOL    HW134572   3.623   7.803   4.756 -0.7446  0.4853  2.1405
10966SOL    HW234573   3.641   7.893   4.635 -1.1958 -1.9315  0.1930
10967SOL     OW34574   4.490   4.207   7.282 -0.3440 -0.1327 -0.0850
10967SOL    HW134575   4.446   4.129   7.314 -0.2479 -0.8116 -1.5081
10967SOL    HW234576   4.430   4.243   7.216  0.5930 -0.2939 -1.0545
10968SOL     OW34577   0.165   2.924   2.611  0.2106  0.1921  0.4919
10968SOL    HW134578   0.133   3.006   2.574  2.6260  2.3874  2.7686
10968SOL    HW234579   0.259   2.924   2.590  0.5293 -1.2543  1.7568
10969SOL     OW34580   4.242   1.427   0.037 -0.2008 -0.1178  0.0647
10969SOL    HW134581   4.300   1.456   0.107 -0.8065 -1.3581  1.1301
10969SOL    HW234582   4.257   1.333   0.031 -3.2294 -0.8118  1.5306
10970SOL     OW34583   6.616   7.061   4.662 -0.2651 -0.0473  0.1634
10970SOL    HW134584   6.647   7.000   4.728 -1.8589 -2.1909 -0.9147
10970SOL    HW234585   6.693   7.111   4.636  1.5679 -2.7290 -0.0110
10971SOL     OW34586   9.058   0.013   6.785 -0.1021 -0.1875 -0.0033
10971SOL    HW134587   8.973  -0.027   6.769 -0.6983  0.0652  2.1595
10971SOL    HW234588   9.038   0.093   6.834  1.3848 -0.1680  0.6296
10972SOL     OW34589   4.758   4.936   8.243 -0.2731 -0.0801 -0.2458
10972SOL    HW134590   4.776   4.900   8.156  0.9216 -1.6934  0.6128
10972SOL    HW234591   4.704   5.013   8.226 -1.1742 -1.0921 -2.3193
10973SOL     OW34592   8.379   3.299   1.723 -0.0191 -0.2361 -0.1338
10973SOL    HW134593   8.316   3.359   1.763 -0.8387  0.4388 -2.2839
10973SOL    HW234594   8.464   3.339   1.737 -0.4212  0.6841 -0.2686
10974SOL     OW34595   2.609   4.335   2.732 -0.0205 -0.4411 -1.0565
10974SOL    HW134596   2.602   4.280   2.654 -0.0860  1.7163 -2.6620
10974SOL    HW234597   2.520   4.339   2.767 -0.0118 -1.3282 -0.9167
10975SOL     OW34598   7.820   6.689   6.758 -0.2818  0.1376  0.0733
10975SOL    HW134599   7.826   6.673   6.664  0.0790  2.7557 -0.4281
10975SOL    HW234600   7.738   6.650   6.785 -1.1454  0.6762 -1.6722
10976SOL     OW34601   0.439   1.768   2.630  0.0098  0.1741 -0.1359
10976SOL    HW134602   0.467   1.787   2.719 -1.6959  2.0421  0.0574
10976SOL    HW234603   0.344   1.761   2.636  0.0412 -2.3945 -1.3726
10977SOL     OW34604   5.496   7.337   2.476 -0.4484 -0.4369  0.1809
10977SOL    HW134605   5.446   7.291   2.408 -0.6429  0.7102 -0.4764
10977SOL    HW234606   5.479   7.429   2.459  2.3299  0.0458 -0.4483
10978SOL     OW34607   6.758   7.930   4.966 -0.2747 -0.2622 -0.5037
10978SOL    HW134608   6.776   7.986   4.890  1.6167  0.6121  0.5227
10978SOL    HW234609   6.824   7.955   5.030 -1.2255 -1.6602  1.0941
10979SOL     OW34610   8.103   9.454   1.679  0.3172 -0.1948 -0.6494
10979SOL    HW134611   8.093   9.502   1.761  0.5232  0.7255 -1.1492
10979SOL    HW234612   8.127   9.365   1.706  3.0559  0.7215  0.2644
10980SOL     OW34613   3.851   1.914   7.746  0.3590  0.0222 -0.0979
10980SOL    HW134614   3.828   1.931   7.838 -0.6995 -0.5045 -0.2461
10980SOL    HW234615   3.772   1.938   7.697  0.2933 -1.2920 -0.6913
10981SOL     OW34616   4.890   8.963   4.863  0.0083 -0.9835  0.4065
10981SOL    HW134617   4.956   8.953   4.932  0.0692  1.2369  0.7474
10981SOL    HW234618   4.925   9.031   4.806 -1.5690 -0.4100  0.0671
10982SOL     OW34619   0.000   5.338   8.081 -0.5470 -0.0453 -0.0381
10982SOL    HW134620   0.041   5.266   8.035 -2.4656 -1.1863 -0.0677
10982SOL    HW234621  -0.027   5.399   8.013  0.2476  0.2619 -0.0841
10983SOL     OW34622   7.331   5.440   6.500  0.0007 -0.0984 -0.5382
10983SOL    HW134623   7.352   5.470   6.412  0.3869  0.9577 -0.0973
10983SOL    HW234624   7.376   5.356   6.508  0.5550  0.1393 -1.0966
10984SOL     OW34625   0.147   7.299   3.370  0.4615 -0.1275 -0.1010
10984SOL    HW134626   0.169   7.296   3.464  0.6129 -1.5484 -0.1633
10984SOL    HW234627   0.093   7.222   3.356  0.9853 -0.2911 -1.3227
10985SOL     OW34628   2.676   6.289   1.433  0.0691 -0.1358  0.0170
10985SOL    HW134629   2.729   6.211   1.416  1.5955  0.6562  0.9301
10985SOL    HW234630   2.740   6.360   1.443 -1.1660  0.8925  0.9717
10986SOL     OW34631   7.789   7.848   2.926 -0.3234  0.4931  0.4746
10986SOL    HW134632   7.778   7.773   2.985  2.5927 -0.4762 -0.0681
10986SOL    HW234633   7.764   7.815   2.840  5.7945 -1.9730 -0.9215
10987SOL     OW34634   2.141   2.480   7.111 -0.7730  0.2355 -0.1280
10987SOL    HW134635   2.170   2.430   7.035 -0.8020  1.0713 -0.6948
10987SOL    HW234636   2.113   2.413   7.174 -3.7189 -0.4686 -1.9860
10988SOL     OW34637   2.373   0.602   4.104 -0.3172 -0.5273 -0.4376
10988SOL    HW134638   2.432   0.578   4.032  1.2596  0.3053  0.5095
10988SOL    HW234639   2.419   0.673   4.149 -2.5666  0.8812 -0.2469
10989SOL     OW34640   4.229   7.940   8.193  0.3213  0.2691 -0.6424
10989SOL    HW134641   4.168   7.993   8.142 -0.2082 -0.6544 -0.9956
10989SOL    HW234642   4.279   8.004   8.244 -1.2951  1.0636  0.0635
10990SOL     OW34643   2.685   2.668   8.919 -0.2217 -0.3839 -0.1300
10990SOL    HW134644   2.751   2.683   8.851 -1.7085 -1.5583 -1.9221
10990SOL    HW234645   2.620   2.611   8.877 -1.3658 -0.8847  2.2001
10991SOL     OW34646   1.392   8.719   3.403 -0.1640 -0.5273 -0.6715
10991SOL    HW134647   1.437   8.681   3.327 -0.9880 -0.4006 -1.2355
10991SOL    HW234648   1.313   8.665   3.413  0.3037 -1.0130  0.5629
10992SOL     OW34649   7.540   7.332   8.583 -0.8557 -0.1841 -0.3176
10992SOL    HW134650   7.611   7.281   8.544 -0.9445  0.4387 -1.3222
10992SOL    HW234651   7.559   7.331   8.677  1.8654  1.9947 -0.7137
10993SOL     OW34652   1.234   7.394   2.850 -0.7543 -0.2453  0.3111
10993SOL    HW134653   1.275   7.336   2.785 -3.9421 -3.3035  0.7127
10993SOL    HW234654   1.177   7.451   2.798  0.8618  1.2342  0.0838
10994SOL     OW34655   8.732   5.321   1.297  0.1555  0.2786 -0.1329
10994SOL    HW134656   8.684   5.298   1.377  0.5036 -0.2374 -0.0707
10994SOL    HW234657   8.742   5.238   1.250  2.0042  0.1380  0.4120
10995SOL     OW34658   7.869   2.637   4.261 -0.2455  0.2120 -0.3335
10995SOL    HW134659   7.784   2.678   4.277 -1.4609 -2.7642  1.8319
10995SOL    HW234660   7.863   2.552   4.305  2.6134 -1.6320 -3.1013
10996SOL     OW34661   1.486   5.462   0.039  0.1455  0.5329 -0.1269
10996SOL    HW134662   1.515   5.514   0.114  0.6534 -0.0937  0.1160
10996SOL    HW234663   1.556   5.398   0.026 -0.4192 -0.0160 -0.4952
10997SOL     OW34664   3.885   2.946   0.709 -0.1518 -0.0125  0.4747
10997SOL    HW134665   3.833   3.024   0.726  3.1364  2.3899  0.4673
10997SOL    HW234666   3.900   2.908   0.796  1.4091  1.6942  1.0182
10998SOL     OW34667   1.925   3.366   6.032 -0.0386 -0.7016  0.0833
10998SOL    HW134668   1.995   3.309   6.001  0.5803  0.2504 -0.2844
10998SOL    HW234669   1.886   3.402   5.953 -0.0212 -0.1366  0.3274
10999SOL     OW34670   6.331   1.371   6.055 -0.4128 -0.5681 -0.1418
10999SOL    HW134671   6.279   1.448   6.036  1.3258  1.3425  2.1858
10999SOL    HW234672   6.278   1.320   6.116 -0.8198 -0.2580 -0.2364
11000SOL     OW34673   0.353   9.242   8.199 -0.0129 -0.1568 -0.0757
11000SOL    HW134674   0.438   9.268   8.164 -0.1528 -0.7899 -0.9125
11000SOL    HW234675   0.291   9.264   8.130 -0.2390 -1.8883 -0.4653
11001SOL     OW34676   2.990   2.887   7.454  0.0051 -0.2788  0.0167
11001SOL    HW134677   2.906   2.882   7.499 -0.2912 -0.2824 -0.5255
11001SOL    HW234678   2.986   2.819   7.387  0.5642 -0.4839  0.1865
11002SOL     OW34679   5.577   6.434   2.173  0.1377 -0.6719  0.1650
11002SOL    HW134680   5.633   6.510   2.194  0.0977 -0.6355  0.1403
11002SOL    HW234681   5.501   6.444   2.230 -0.5182  0.0546 -0.8172
11003SOL     OW34682   7.390   7.422   4.946  0.0359  0.0173 -0.6709
11003SOL    HW134683   7.323   7.428   5.014  0.8238  1.1927  0.0314
11003SOL    HW234684   7.394   7.510   4.909  2.5455  0.5377  0.6419
11004SOL     OW34685   8.385   3.806   8.517  0.2592  0.2267  0.0579
11004SOL    HW134686   8.479   3.817   8.530 -0.1487  1.6396  2.3825
11004SOL    HW234687   8.376   3.714   8.489  2.1250 -1.0979  3.2132
11005SOL     OW34688   6.969   2.574   6.534  0.8525 -0.0609 -0.5770
11005SOL    HW134689   7.061   2.549   6.541  0.7941  0.3046  2.8246
11005SOL    HW234690   6.921   2.500   6.570 -0.0580  0.5506 -0.4971
11006SOL     OW34691   3.630   3.755   3.476 -0.1068 -0.5992  0.2365
11006SOL    HW134692   3.583   3.813   3.416  2.5301  1.0225 -0.4822
11006SOL    HW234693   3.712   3.801   3.493  0.0084 -1.8050  3.7828
11007SOL     OW34694   1.096   7.440   6.479  0.3764 -0.8026  0.4931
11007SOL    HW134695   1.017   7.469   6.433  0.8637  0.6948  0.5436
11007SOL    HW234696   1.146   7.391   6.413  1.5314  2.1392 -0.9947
11008SOL     OW34697   0.815   7.991   3.877  0.3757 -0.2691  0.2097
11008SOL    HW134698   0.847   8.081   3.865 -1.0865  0.1925 -0.5261
11008SOL    HW234699   0.750   7.980   3.808 -0.4947 -1.4039  1.1742
11009SOL     OW34700   2.293   9.605   7.698 -0.1722 -0.1829 -0.2334
11009SOL    HW134701   2.278   9.552   7.620 -0.8380  0.1769 -0.3506
11009SOL    HW234702   2.386   9.591   7.719 -0.1507 -0.7815 -0.7097
11010SOL     OW34703   7.805   6.988   0.090 -0.3816  0.0954 -1.0201
11010SOL    HW134704   7.832   7.069   0.048 -0.2286 -0.0657 -1.2328
11010SOL    HW234705   7.836   6.919   0.032 -0.2698 -0.1262 -0.7010
11011SOL     OW34706   2.450   7.866   1.611 -0.4302  0.4538  0.4528
11011SOL    HW134707   2.481   7.929   1.544 -0.3542 -0.7198 -0.6543
11011SOL    HW234708   2.531   7.830   1.648 -0.4718  0.3355  0.4277
11012SOL     OW34709   2.451   7.000   3.110  0.4067  0.8252 -0.0383
11012SOL    HW134710   2.491   6.964   3.189  2.7183  0.0061 -1.4907
11012SOL    HW234711   2.366   6.955   3.104  0.8002 -0.1626  1.2095
11013SOL     OW34712   6.511   9.620   1.641  0.0530  0.3230 -0.3367
11013SOL    HW134713   6.603   9.614   1.616  0.5733 -1.7769  1.7312
11013SOL    HW234714   6.464   9.626   1.557  1.9879  0.2247 -1.4891
11014SOL     OW34715   7.488   3.246   2.834 -0.2571  0.2385 -0.2677
11014SOL    HW134716   7.524   3.170   2.881  0.9060  1.6906  1.2987
11014SOL    HW234717   7.565   3.295   2.805 -0.9976  0.8696 -1.2287
11015SOL     OW34718   1.467   0.182   0.607 -0.2335  0.3230  1.1484
11015SOL    HW134719   1.536   0.243   0.582 -0.7802  0.9174  1.0416
11015SOL    HW234720   1.387   0.235   0.604 -0.5859 -0.1364  2.0848
11016SOL     OW34721   1.019   6.344   2.754 -0.3901 -0.4664  0.2148
11016SOL    HW134722   1.010   6.249   2.742 -1.3995 -0.4767  0.9286
11016SOL    HW234723   1.111   6.362   2.733 -1.0012 -0.9819 -3.7458
11017SOL     OW34724   8.490   9.169   6.205  0.3272  0.0566  0.2609
11017SOL    HW134725   8.494   9.102   6.274  1.7236  2.7424  3.0210
11017SOL    HW234726   8.558   9.144   6.143  1.1067 -0.8949  1.4521
11018SOL     OW34727   4.873   0.740   1.163  0.2245  0.0137 -0.1841
11018SOL    HW134728   4.852   0.654   1.199  3.1469 -1.1616 -0.9809
11018SOL    HW234729   4.855   0.731   1.069 -0.5028  0.6670 -0.1144
11019SOL     OW34730   0.873   2.222   1.383  0.0349 -0.2022 -0.2205
11019SOL    HW134731   0.955   2.269   1.369  0.2299 -0.9579 -1.8432
11019SOL    HW234732   0.811   2.290   1.412  0.8955  0.6133 -0.2461
11020SOL     OW34733   5.105   3.715   9.605 -0.1011 -0.6269  0.3413
11020SOL    HW134734   5.175   3.653   9.625  2.3825  2.1769  1.0993
11020SOL    HW234735   5.098   3.714   9.509 -1.4069 -3.2334  0.3744
11021SOL     OW34736   4.647   0.759   8.490  0.7948 -0.2033 -0.1355
11021SOL    HW134737   4.738   0.755   8.462 -0.3483 -0.4997 -4.5181
11021SOL    HW234738   4.623   0.669   8.509  1.9023  0.1302  3.5089
11022SOL     OW34739   6.255   1.572   5.393 -0.4437 -0.1738  0.2416
11022SOL    HW134740   6.178   1.580   5.336 -2.2831  1.7598  2.7509
11022SOL    HW234741   6.327   1.607   5.340 -1.2730 -1.7457 -2.0806
11023SOL     OW34742   0.645   8.024   7.429 -0.2784  0.5088  0.6033
11023SOL    HW134743   0.736   7.994   7.423 -0.0294  1.2249  0.6909
11023SOL    HW234744   0.632   8.043   7.522 -0.7558 -0.2947  0.7080
11024SOL     OW34745   8.728   8.278   5.668  0.0473  0.3011  0.0280
11024SOL    HW134746   8.706   8.185   5.675  2.6782 -0.5175 -1.2069
11024SOL    HW234747   8.715   8.313   5.756 -2.1817 -0.8787  0.2519
11025SOL     OW34748   2.472   8.419   5.789 -0.1165  0.0644  0.4603
11025SOL    HW134749   2.537   8.433   5.858 -0.4869  1.8549  0.4761
11025SOL    HW234750   2.524   8.399   5.711  0.3036 -2.0697  1.2172
11026SOL     OW34751   3.746   6.662   4.504 -0.0976 -0.4515  0.3975
11026SOL    HW134752   3.748   6.570   4.480 -0.6401 -0.2494 -0.4633
11026SOL    HW234753   3.829   6.697   4.472 -0.3136 -0.4355 -0.1523
11027SOL     OW34754   7.571   1.998   8.318 -0.2147  0.1607  0.4672
11027SOL    HW134755   7.597   1.910   8.291  0.7217  0.6113 -0.1585
11027SOL    HW234756   7.515   2.029   8.246  0.0948  0.3713  0.3196
11028SOL     OW34757   0.578   7.968   5.385 -0.2359  0.0460 -0.2484
11028SOL    HW134758   0.569   8.045   5.441  1.0822  0.9189 -1.1849
11028SOL    HW234759   0.522   7.902   5.426 -1.7312  1.6191  0.3364
11029SOL     OW34760   0.401   5.436   6.656 -0.2544 -0.4586  0.5756
11029SOL    HW134761   0.487   5.407   6.686 -0.8826 -1.1360  1.8311
11029SOL    HW234762   0.419   5.497   6.584  1.1819 -2.2088 -0.6195
11030SOL     OW34763   0.179   2.612   5.631 -0.1299  0.0942  0.0908
11030SOL    HW134764   0.182   2.703   5.660  0.4506  0.5371 -1.2539
11030SOL    HW234765   0.086   2.588   5.635 -0.1982  0.4954  1.1495
11031SOL     OW34766   0.386   8.133   6.107 -0.6500  0.3731 -0.5950
11031SOL    HW134767   0.452   8.172   6.050  0.0130 -1.1061 -0.8763
11031SOL    HW234768   0.319   8.100   6.047 -0.9764  0.6566 -0.3887
11032SOL     OW34769   8.069   5.559   0.973  0.3418  0.1874  0.0550
11032SOL    HW134770   8.101   5.474   1.001 -1.1032 -0.5095 -0.2925
11032SOL    HW234771   8.055   5.550   0.879  0.4935  0.9178 -0.0420
11033SOL     OW34772   7.396   5.015   0.789 -0.6084  0.2761 -0.3234
11033SOL    HW134773   7.395   4.975   0.702 -0.9492 -0.6871  0.1003
11033SOL    HW234774   7.303   5.027   0.811 -0.5596 -0.3901  0.2909
11034SOL     OW34775   2.073   8.869   4.102  0.8897 -0.6176  0.1250
11034SOL    HW134776   2.115   8.787   4.075 -0.8947 -1.7742  0.6981
11034SOL    HW234777   1.988   8.843   4.137  0.5638  1.4260  1.0304
11035SOL     OW34778   5.479   6.043   3.844  0.6612 -0.1003 -0.5810
11035SOL    HW134779   5.573   6.051   3.829  0.8516  1.4676  1.1134
11035SOL    HW234780   5.450   6.132   3.864 -1.3235 -0.4276 -1.6637
11036SOL     OW34781   3.700   4.195   0.191 -0.0536  0.1569  0.4052
11036SOL    HW134782   3.630   4.240   0.237  0.2665 -0.1204  1.1724
11036SOL    HW234783   3.675   4.200   0.098 -0.5323  0.9998  0.5710
11037SOL     OW34784   4.718   0.968   0.597  0.6893  0.6131  0.5807
11037SOL    HW134785   4.717   1.059   0.625 -1.3479  0.5584  0.8599
11037SOL    HW234786   4.779   0.966   0.523  1.1072  2.0973  0.8548
11038SOL     OW34787   5.531   8.510   1.500  0.3403 -0.0175 -0.1284
11038SOL    HW134788   5.546   8.421   1.468  0.9587  0.9097 -2.6171
11038SOL    HW234789   5.617   8.540   1.530 -0.4083 -1.2737  3.8824
11039SOL     OW34790   1.794   0.849   5.420  0.0395 -0.1270 -0.0630
11039SOL    HW134791   1.825   0.894   5.498  2.2549 -0.9033 -0.4209
11039SOL    HW234792   1.751   0.917   5.368  0.0712  0.7577  1.0452
11040SOL     OW34793   9.548   6.020   3.081 -0.1007 -0.3185  0.4745
11040SOL    HW134794   9.521   5.944   3.132 -0.4599 -0.2565  0.3794
11040SOL    HW234795   9.467   6.066   3.061 -0.1341 -1.0764 -1.3248
11041SOL     OW34796   8.189   9.535   6.749  0.2615 -0.0196 -0.0165
11041SOL    HW134797   8.206   9.504   6.838  0.4082  0.6614  0.1996
11041SOL    HW234798   8.275   9.532   6.706  0.0171 -1.3243 -0.4640
11042SOL     OW34799   2.876   6.476   3.319 -0.2907 -0.1006 -0.2651
11042SOL    HW134800   2.888   6.402   3.259 -0.6517 -0.1070 -0.3365
11042SOL    HW234801   2.793   6.516   3.291 -0.4702 -0.1106  0.2378
11043SOL     OW34802   6.666   6.072   4.492 -0.5008  0.5065 -0.4569
11043SOL    HW134803   6.646   6.014   4.419 -0.5691  0.0669 -0.0910
11043SOL    HW234804   6.624   6.031   4.568  0.2673  0.5225 -0.0148
11044SOL     OW34805   6.553   2.208   3.138 -0.6050 -0.1742  0.5039
11044SOL    HW134806   6.615   2.280   3.150 -0.4574 -0.2365  0.1373
11044SOL    HW234807   6.485   2.223   3.204  0.5934 -0.9702  1.9901
11045SOL     OW34808   3.914   2.729   0.067 -0.3825  0.4208  0.1858
11045SOL    HW134809   3.994   2.688   0.097 -0.1560  1.1804  0.6623
11045SOL    HW234810   3.857   2.731   0.144 -1.6765 -1.9253 -0.6091
11046SOL     OW34811   7.965   2.271   3.620  0.2994  0.4829  0.1449
11046SOL    HW134812   8.032   2.278   3.688  0.4897  1.4941 -0.1176
11046SOL    HW234813   8.002   2.319   3.546 -0.9786  1.6274  0.2086
11047SOL     OW34814   7.079   7.808   1.810  0.1281 -0.1902  0.3160
11047SOL    HW134815   7.143   7.812   1.739 -0.2572  0.4157 -0.0127
11047SOL    HW234816   7.086   7.719   1.844  0.6830 -0.3297 -0.1417
11048SOL     OW34817   6.881   9.428   0.916  0.0947  0.3784 -0.1711
11048SOL    HW134818   6.918   9.448   0.830  0.5639 -0.1596 -0.0978
11048SOL    HW234819   6.893   9.509   0.967 -0.6201  0.8619 -0.7440
11049SOL     OW34820   1.386   5.336   0.624 -0.0163 -0.4354  0.3042
11049SOL    HW134821   1.448   5.302   0.689 -0.7196 -0.1300  1.1483
11049SOL    HW234822   1.345   5.411   0.667 -0.4990 -0.2322 -0.4965
11050SOL     OW34823   9.652   2.443   6.406 -0.2724  0.4168  0.0038
11050SOL    HW134824   9.660   2.539   6.408 -1.2240  0.5500 -1.5433
11050SOL    HW234825   9.583   2.426   6.343 -0.1620 -1.3110  0.3137
11051SOL     OW34826   7.227   1.879   6.991 -0.3757 -0.0008 -0.0139
11051SOL    HW134827   7.322   1.869   6.989 -0.1222  1.7467  1.0322
11051SOL    HW234828   7.202   1.895   6.901  0.4411  0.3583 -0.1846
11052SOL     OW34829   1.410   2.462   9.618  0.4548 -0.6154  0.7257
11052SOL    HW134830   1.387   2.554   9.628  0.0053 -0.7044  0.5478
11052SOL    HW234831   1.327   2.415   9.624  0.4687 -0.8752 -0.7362
11053SOL     OW34832   3.295   6.029   2.336  0.2887 -0.4483 -0.2091
11053SOL    HW134833   3.250   6.073   2.264  0.7862  1.8243  0.7909
11053SOL    HW234834   3.227   6.020   2.404  0.3890 -0.5443 -0.1214
11054SOL     OW34835   7.583   1.033   5.225 -0.2822 -0.2800  0.0856
11054SOL    HW134836   7.639   1.032   5.147  0.6248  2.2231  0.6074
11054SOL    HW234837   7.498   1.063   5.192  0.3415  1.6686  0.1080
11055SOL     OW34838   0.385   7.985   6.859 -0.1825 -0.5525  0.9155
11055SOL    HW134839   0.354   7.900   6.891  0.3899 -1.3440 -0.5514
11055SOL    HW234840   0.470   7.966   6.820 -0.4635  0.5083 -0.2739
11056SOL     OW34841   6.870   0.735   8.204  0.3185 -0.1744 -0.4400
11056SOL    HW134842   6.778   0.757   8.216 -0.1312 -1.8301 -0.6308
11056SOL    HW234843   6.875   0.640   8.218  1.4458 -0.6480 -3.3730
11057SOL     OW34844   7.036   1.914   4.321 -0.2083 -0.2780 -0.0633
11057SOL    HW134845   7.088   1.973   4.267 -0.5978  1.3113  1.2109
11057SOL    HW234846   6.986   1.861   4.259 -0.2747  1.1401 -1.2669
11058SOL     OW34847   7.421   8.260   5.477  0.1299  0.3484  0.3389
11058SOL    HW134848   7.448   8.280   5.387 -0.0984 -0.0631  0.1765
11058SOL    HW234849   7.502   8.262   5.527  0.0609  2.3437  0.4745
11059SOL     OW34850   1.505   0.757   1.101  0.0559 -0.6379  0.1492
11059SOL    HW134851   1.485   0.851   1.096  1.2695 -0.2856  1.3976
11059SOL    HW234852   1.420   0.715   1.111 -0.5603  0.2615 -0.9476
11060SOL     OW34853   7.254   8.252   0.055 -0.0792 -0.5466  0.3396
11060SOL    HW134854   7.245   8.181   0.118  0.6525 -1.8051 -0.8896
11060SOL    HW234855   7.184   8.236  -0.009  1.8835 -2.0400 -1.5898
11061SOL     OW34856   1.687   4.321   5.294  0.3885  0.0557 -0.0392
11061SOL    HW134857   1.678   4.263   5.369 -2.9245 -0.2738 -0.5258
11061SOL    HW234858   1.776   4.305   5.262  0.2048 -3.6189  0.7711
11062SOL     OW34859   8.508   7.085   7.919 -0.2639  0.5161  0.3327
11062SOL    HW134860   8.517   7.040   7.835  0.4640  0.1484  0.5968
11062SOL    HW234861   8.443   7.034   7.968 -1.3107  1.2031 -0.3012
11063SOL     OW34862   7.917   1.219   1.622 -0.3318 -1.1005  0.5468
11063SOL    HW134863   7.865   1.235   1.701  0.3400 -0.3929  0.8574
11063SOL    HW234864   7.934   1.125   1.623  0.3674 -0.9752  1.6945
11064SOL     OW34865   5.399   6.611   8.954 -0.1891 -0.7426 -0.1957
11064SOL    HW134866   5.484   6.649   8.931 -0.3719 -1.1084 -1.5727
11064SOL    HW234867   5.411   6.577   9.042  0.1576  1.9538  0.8921
11065SOL     OW34868   7.632   7.652   8.069  0.3238 -0.0598  0.2888
11065SOL    HW134869   7.539   7.636   8.082 -0.0095  2.3430  1.3378
11065SOL    HW234870   7.675   7.600   8.137 -0.4508  0.7245  1.4227
11066SOL     OW34871   5.758   7.219   2.908 -0.0549  0.0499  0.5801
11066SOL    HW134872   5.786   7.245   2.820 -0.5314 -1.6345 -0.1054
11066SOL    HW234873   5.838   7.188   2.950  0.1253  0.6120  0.6640
11067SOL     OW34874   9.272   4.487   4.648  0.3814  0.2312 -0.7253
11067SOL    HW134875   9.303   4.429   4.579  1.2448 -0.5185  0.2621
11067SOL    HW234876   9.293   4.575   4.615 -0.0136 -0.0505 -1.7834
11068SOL     OW34877   1.265   5.086   3.194 -0.0938  0.2614 -0.0817
11068SOL    HW134878   1.174   5.093   3.164 -0.3919  0.1397  0.7543
11068SOL    HW234879   1.304   5.021   3.136 -0.7000 -0.0969 -0.1037
11069SOL     OW34880   5.492   0.910   2.527 -0.5372 -0.4628  0.5322
11069SOL    HW134881   5.404   0.872   2.525 -0.6682 -0.1687 -0.7512
11069SOL    HW234882   5.489   0.978   2.460  0.1824  0.6849  1.6219
11070SOL     OW34883   8.417   3.667   0.021  0.3567  0.0586  0.2461
11070SOL    HW134884   8.432   3.572   0.013 -1.0018 -0.1631  0.1063
11070SOL    HW234885   8.379   3.678   0.108 -1.5616  0.1514 -0.5452
11071SOL     OW34886   1.135   6.571   0.833 -0.0877  0.2153  0.2176
11071SOL    HW134887   1.064   6.610   0.782  0.4399  1.2721  0.2710
11071SOL    HW234888   1.214   6.590   0.783  1.0067  4.7451  3.1383
11072SOL     OW34889   6.416   6.334   6.243  0.4776  0.3233 -0.2620
11072SOL    HW134890   6.456   6.405   6.293  2.9864 -0.6163 -0.7830
11072SOL    HW234891   6.430   6.358   6.152  0.3949 -0.3195 -0.4501
11073SOL     OW34892   7.116   2.718   7.487 -0.4350  0.1829 -0.1300
11073SOL    HW134893   7.160   2.660   7.425  1.5441  2.3590 -0.8584
11073SOL    HW234894   7.035   2.744   7.442 -1.0306 -1.4139 -0.0564
11074SOL     OW34895   1.573   7.000   4.504 -0.5689  0.5042 -0.3854
11074SOL    HW134896   1.486   6.994   4.465 -0.8618  0.6089  0.2506
11074SOL    HW234897   1.578   7.089   4.538 -0.7973  0.0279  0.9381
11075SOL     OW34898   7.474   7.587   4.209  0.1171  0.1259 -0.2566
11075SOL    HW134899   7.526   7.637   4.272 -0.9732 -0.1299  0.8828
11075SOL    HW234900   7.489   7.496   4.232  0.1013  0.0096 -0.6955
11076SOL     OW34901   7.489   6.101   0.789 -0.4557 -0.0367 -0.5277
11076SOL    HW134902   7.546   6.136   0.857  0.4545 -2.1387 -0.1302
11076SOL    HW234903   7.428   6.044   0.835 -1.2400  0.1964 -1.2507
11077SOL     OW34904   7.129   4.383   0.645 -0.3688 -0.0317 -0.4298
11077SOL    HW134905   7.142   4.415   0.734 -1.0788  0.5798 -0.5360
11077SOL    HW234906   7.137   4.288   0.652 -0.4430  0.0117  0.2950
11078SOL     OW34907   3.044   4.086   2.171 -0.0711  0.2285 -0.4921
11078SOL    HW134908   2.968   4.142   2.152 -1.8828 -2.0428 -0.3477
11078SOL    HW234909   3.102   4.141   2.224 -0.7960  2.5802 -1.9855
11079SOL     OW34910   9.591   8.515   9.634  0.1559  0.3148 -0.0814
11079SOL    HW134911   9.656   8.534   9.700  1.7393 -1.2306 -1.1117
11079SOL    HW234912   9.535   8.448   9.674 -0.8795  1.6730  0.8185
11080SOL     OW34913   2.739   4.611   5.919 -0.1189  0.3669  0.7455
11080SOL    HW134914   2.758   4.701   5.945 -2.3125  0.9658  0.5012
11080SOL    HW234915   2.787   4.557   5.982  3.6638  1.5700 -0.8601
11081SOL     OW34916   6.382   5.629   5.843 -0.6825  0.3598 -0.5105
11081SOL    HW134917   6.436   5.592   5.912 -1.9422  1.0265  0.8773
11081SOL    HW234918   6.438   5.693   5.800  0.0786  0.0176 -0.0480
11082SOL     OW34919   3.520   5.337   6.210  0.0669 -0.1997 -0.2240
11082SOL    HW134920   3.440   5.338   6.262  0.1364 -3.3884  0.1096
11082SOL    HW234921   3.589   5.363   6.271 -0.4717  1.0612 -0.1250
11083SOL     OW34922   5.161   8.698   6.951 -0.0869 -0.0930 -0.4443
11083SOL    HW134923   5.090   8.639   6.977 -0.1705 -0.0565 -0.5852
11083SOL    HW234924   5.190   8.739   7.033 -0.5614  0.2646 -0.4491
11084SOL     OW34925   5.141   4.637   9.348  0.3789 -0.2109 -0.3454
11084SOL    HW134926   5.204   4.567   9.331  1.6135  0.9822 -0.8709
11084SOL    HW234927   5.194   4.712   9.376 -0.6570  1.1992 -1.9201
11085SOL     OW34928   3.969   5.772   0.695 -0.1124 -0.0414 -0.0271
11085SOL    HW134929   3.882   5.781   0.656 -0.5372 -2.4277  0.1866
11085SOL    HW234930   3.983   5.854   0.742 -0.8191  1.7603 -2.7283
11086SOL     OW34931   4.616   7.933   4.080 -0.6655  0.1575  0.4503
11086SOL    HW134932   4.706   7.902   4.083 -0.6524  0.1206 -0.1564
11086SOL    HW234933   4.596   7.959   4.170 -0.1730 -0.1771  0.6609
11087SOL     OW34934   3.942   2.622   5.959  0.8165  0.0504  0.1266
11087SOL    HW134935   3.945   2.568   6.038  0.9501  0.1342  0.1784
11087SOL    HW234936   4.010   2.586   5.902 -0.0607 -0.7662 -0.4381
11088SOL     OW34937   7.168   2.269   9.567  0.2132  0.3616 -0.1332
11088SOL    HW134938   7.203   2.183   9.589 -1.3801 -0.3852 -0.3714
11088SOL    HW234939   7.199   2.286   9.478  1.5969  0.6364  0.3815
11089SOL     OW34940   0.888   9.208   8.958 -0.2093  0.3890  0.6539
11089SOL    HW134941   0.950   9.168   8.898  0.8230 -0.0557  1.9731
11089SOL    HW234942   0.836   9.135   8.992  1.1496  0.1961  2.4627
11090SOL     OW34943   6.303   8.619   6.798 -0.1997  0.5264 -0.0648
11090SOL    HW134944   6.382   8.565   6.803  0.5900  1.6453  0.0848
11090SOL    HW234945   6.277   8.615   6.706 -0.1839 -0.1489 -0.0408
11091SOL     OW34946   4.854   1.564   0.947 -0.2452  0.2892 -0.8326
11091SOL    HW134947   4.798   1.494   0.981  0.1104  0.0960 -0.6365
11091SOL    HW234948   4.924   1.573   1.013  0.1233  0.3192 -1.2227
11092SOL     OW34949   1.216   7.026   3.911  0.7080  0.0816  0.1661
11092SOL    HW134950   1.215   6.969   3.988  2.0835  0.5051  0.5222
11092SOL    HW234951   1.145   6.992   3.856  1.0043 -1.5133  0.6965
11093SOL     OW34952   2.733   4.252   4.368 -0.2429  0.1619 -0.0816
11093SOL    HW134953   2.729   4.214   4.456  0.8287 -0.5637 -0.3254
11093SOL    HW234954   2.775   4.338   4.381 -0.8408  0.4116  0.2181
11094SOL     OW34955   2.166   5.402   5.664  0.2031  0.2783  0.3047
11094SOL    HW134956   2.222   5.333   5.629  0.1005  0.1379  0.4141
11094SOL    HW234957   2.077   5.367   5.655  0.1607  0.3348  0.4960
11095SOL     OW34958   1.652   8.891   1.251 -0.3049 -0.5103 -0.1730
11095SOL    HW134959   1.649   8.951   1.177  0.7548 -2.6934 -2.1606
11095SOL    HW234960   1.714   8.930   1.312  0.1547  0.5240 -1.2738
11096SOL     OW34961   4.805   3.565   9.624  0.0274 -0.0899 -0.0923
11096SOL    HW134962   4.734   3.553   9.561  0.2256  0.2411 -0.3832
11096SOL    HW234963   4.858   3.636   9.588 -0.9144  1.4557  1.3835
11097SOL     OW34964   5.091   8.001   2.123 -0.3676 -0.3460 -0.1728
11097SOL    HW134965   5.185   8.001   2.140 -0.2284  1.9688 -0.5361
11097SOL    HW234966   5.081   8.043   2.038 -1.7491  0.2096  0.2173
11098SOL     OW34967   0.774   8.751   2.258 -0.0822 -0.0464 -0.6682
11098SOL    HW134968   0.822   8.708   2.330 -0.4115  0.3795 -0.1854
11098SOL    HW234969   0.819   8.835   2.248 -1.4000  0.8566  0.5660
11099SOL     OW34970   9.153   4.106   1.890 -0.0590  0.0096 -0.0562
11099SOL    HW134971   9.114   4.193   1.894 -0.7332 -0.2877 -0.0751
11099SOL    HW234972   9.211   4.102   1.966  0.5348  0.7319 -0.4467
11100SOL     OW34973   1.444   6.370   9.340  0.4787  0.1900  0.2971
11100SOL    HW134974   1.499   6.375   9.262 -1.7845  2.2955 -1.3225
11100SOL    HW234975   1.387   6.294   9.324  0.0698  0.5724 -0.1125
11101SOL     OW34976   4.707   1.988   8.309 -0.1068 -0.0834  0.1977
11101SOL    HW134977   4.695   1.898   8.338 -2.4973 -0.0314 -0.3990
11101SOL    HW234978   4.759   1.980   8.229  0.1020 -0.8859  0.4039
11102SOL     OW34979   7.281   9.525   1.576  0.3007 -0.3540 -0.3109
11102SOL    HW134980   7.368   9.522   1.618  0.6640  0.0445 -1.0190
11102SOL    HW234981   7.298   9.505   1.484 -0.2901  0.2394 -0.5562
11103SOL     OW34982   4.252   8.624   7.961 -0.0473 -0.2525 -0.7684
11103SOL    HW134983   4.339   8.661   7.978 -0.6224  2.3634 -2.8515
11103SOL    HW234984   4.269   8.550   7.902  0.7541  0.9116 -2.0715
11104SOL     OW34985   8.147   6.535   2.006  0.2664 -0.1286  0.0016
11104SOL    HW134986   8.055   6.557   2.018  0.0969 -0.0544 -1.2955
11104SOL    HW234987   8.164   6.550   1.913  1.7597  0.4591  0.3384
11105SOL     OW34988   0.346   2.777   5.288 -0.2005 -0.3711  0.1688
11105SOL    HW134989   0.252   2.776   5.271 -0.1000 -0.9785 -0.3999
11105SOL    HW234990   0.360   2.705   5.350  0.1782 -1.7497 -1.4618
11106SOL     OW34991   5.951   7.855   7.447 -0.3588  0.1164 -0.4858
11106SOL    HW134992   6.043   7.832   7.459 -0.7417 -1.8314 -0.9306
11106SOL    HW234993   5.917   7.865   7.536  0.0534 -0.1466 -0.2982
11107SOL     OW34994   2.103   6.489   6.026  0.5201 -0.3315 -0.1465
11107SOL    HW134995   2.188   6.446   6.024 -0.1786 -1.9169  1.4065
11107SOL    HW234996   2.087   6.505   6.119 -1.7988 -2.0646 -0.1687
11108SOL     OW34997   2.923   5.423   4.502 -0.5021  0.3983  0.0665
11108SOL    HW134998   2.883   5.353   4.554 -1.2986  1.0480  0.3653
11108SOL    HW234999   2.948   5.381   4.420 -0.7645 -0.2860  0.3278
11109SOL     OW35000   1.623   7.434   2.463 -0.3867 -0.2203 -0.4124
11109SOL    HW135001   1.539   7.463   2.497 -0.1619  2.1007 -1.6516
11109SOL    HW235002   1.687   7.475   2.521 -0.0467  2.5343 -2.5236
11110SOL     OW35003   9.400   5.011   9.237  0.4430  0.1040 -0.2729
11110SOL    HW135004   9.426   4.967   9.318  1.0181  0.6566 -0.1552
11110SOL    HW235005   9.305   5.019   9.245  0.5303  0.4469  0.4989
11111SOL     OW35006   6.810   3.677   9.561 -0.6446 -0.3701 -0.3138
11111SOL    HW135007   6.850   3.638   9.639  2.0446  1.1710 -0.7872
11111SOL    HW235008   6.717   3.683   9.582 -0.2482 -1.4240  2.1201
11112SOL     OW35009   5.949   1.242   4.763 -0.0046 -0.2020  0.0407
11112SOL    HW135010   5.948   1.156   4.722 -1.8593  0.5056 -1.5885
11112SOL    HW235011   5.877   1.240   4.826  0.7186 -0.2128  0.8835
11113SOL     OW35012   3.335   4.928   3.514  0.4149  0.3683 -0.2869
11113SOL    HW135013   3.314   4.995   3.449 -0.4388  0.7596  0.3801
11113SOL    HW235014   3.268   4.937   3.581  1.1512 -0.1765  0.5502
11114SOL     OW35015   4.374   3.394   2.936 -0.3366 -0.2232  0.3482
11114SOL    HW135016   4.446   3.335   2.959 -0.2579 -0.0614  0.5258
11114SOL    HW235017   4.308   3.337   2.897  0.0717 -0.3081 -0.2340
11115SOL     OW35018   2.200   3.304   7.748 -0.3476 -1.1046  0.3595
11115SOL    HW135019   2.133   3.331   7.810 -0.7409 -0.4010 -0.3560
11115SOL    HW235020   2.218   3.382   7.696  1.6004 -1.0440  1.0243
11116SOL     OW35021   8.256   3.578   8.426 -0.0190  0.2771  0.0010
11116SOL    HW135022   8.349   3.571   8.405  0.2284  0.0762  1.1026
11116SOL    HW235023   8.226   3.487   8.430 -0.1958  0.3326 -0.0450
11117SOL     OW35024   1.209   1.214   4.864 -0.6044  0.5776  0.8114
11117SOL    HW135025   1.183   1.122   4.868  0.3069  0.3132  0.9352
11117SOL    HW235026   1.303   1.211   4.842 -0.5224  1.4682  1.0118
11118SOL     OW35027   9.659   4.020   4.135  0.2100 -0.0849  0.1936
11118SOL    HW135028   9.717   4.095   4.149  0.7344 -0.3939 -0.2593
11118SOL    HW235029   9.578   4.044   4.179  0.3625  0.7554  0.0410
11119SOL     OW35030   9.115   8.692   0.684 -0.2055  0.2671 -0.1567
11119SOL    HW135031   9.080   8.631   0.619  0.1125  0.9070 -0.9476
11119SOL    HW235032   9.161   8.758   0.633  0.0370  0.8034  0.7247
11120SOL     OW35033   6.783   1.628   0.796  0.2285 -0.1335  0.2071
11120SOL    HW135034   6.792   1.619   0.701 -1.2873 -0.1088  0.0471
11120SOL    HW235035   6.762   1.720   0.810  2.7192  0.4437  0.8069
11121SOL     OW35036   9.647   2.832   8.653  0.3441 -0.8123  0.6366
11121SOL    HW135037   9.661   2.738   8.654  0.5113 -0.7839  1.2229
11121SOL    HW235038   9.734   2.870   8.642  0.1426 -0.7449 -0.9338
11122SOL     OW35039   6.877   6.208   9.215  0.5987  0.1965  0.2658
11122SOL    HW135040   6.962   6.239   9.246  1.1481  0.8465 -1.7085
11122SOL    HW235041   6.814   6.243   9.278  1.7318  0.1327  1.4774
11123SOL     OW35042   0.811   3.966   0.366 -0.4889  0.7333  0.1195
11123SOL    HW135043   0.771   4.031   0.424 -0.4078  0.3552  0.6044
11123SOL    HW235044   0.833   3.892   0.423 -0.7972  0.1772 -0.4608
11124SOL     OW35045   9.565   3.393   0.297  0.6021 -0.1161 -0.3977
11124SOL    HW135046   9.569   3.453   0.222  1.1306  1.9325  1.1864
11124SOL    HW235047   9.650   3.349   0.296  1.8248  2.0599  0.6158
11125SOL     OW35048   0.437   8.648   4.597  0.0438 -0.2472  0.0432
11125SOL    HW135049   0.358   8.660   4.544 -1.0717 -3.8339  0.5946
11125SOL    HW235050   0.466   8.736   4.617 -3.7998  1.3066 -0.2865
11126SOL     OW35051   4.979   5.353   3.687 -0.5520  0.4247 -0.4354
11126SOL    HW135052   4.929   5.321   3.762 -0.9423 -1.1199 -1.3260
11126SOL    HW235053   5.065   5.373   3.724 -0.9254  0.3031  0.5449
11127SOL     OW35054   8.909   7.774   4.419 -0.1918 -0.2300  0.0373
11127SOL    HW135055   8.821   7.811   4.413 -0.8938 -1.9871 -0.9833
11127SOL    HW235056   8.918   7.746   4.510 -0.1290  1.1929  0.4982
11128SOL     OW35057   0.469   8.922   9.503  0.1795 -0.5815 -0.2153
11128SOL    HW135058   0.554   8.878   9.503  0.1785 -0.5857 -0.1227
11128SOL    HW235059   0.481   8.996   9.563  0.0408 -0.7344  0.0038
11129SOL     OW35060   1.626   7.924   7.339  0.3311 -0.2075  0.4045
11129SOL    HW135061   1.559   7.927   7.270  0.6790  0.3334  0.0848
11129SOL    HW235062   1.705   7.896   7.293  0.8637  1.3424  0.3284
11130SOL     OW35063   4.221   6.580   5.840  0.0473 -0.0782  0.1171
11130SOL    HW135064   4.156   6.535   5.786 -0.8316 -0.0601  1.1382
11130SOL    HW235065   4.305   6.558   5.799 -0.6451  0.9704 -2.0097
11131SOL     OW35066   4.647   5.190   8.479 -0.1216 -0.1259  0.4068
11131SOL    HW135067   4.657   5.285   8.478 -0.3258 -0.0841  1.1359
11131SOL    HW235068   4.619   5.167   8.391  0.6418  0.4038  0.0137
11132SOL     OW35069   4.599   7.197   4.054 -0.4563 -0.3408  0.3940
11132SOL    HW135070   4.680   7.155   4.025  0.5158  2.5830 -1.5760
11132SOL    HW235071   4.535   7.173   3.987 -0.8683 -1.4676  1.1689
11133SOL     OW35072   6.446   4.355   1.737 -0.3500 -0.3521  0.4053
11133SOL    HW135073   6.427   4.368   1.830  0.0269 -2.0289  0.7443
11133SOL    HW235074   6.430   4.262   1.721 -0.5246 -0.0698 -1.2463
11134SOL     OW35075   7.051   3.533   2.797 -0.1014  0.2843 -0.2381
11134SOL    HW135076   7.093   3.525   2.712 -0.5140  0.5389 -0.4699
11134SOL    HW235077   6.965   3.493   2.785  0.0182 -0.1157  0.1941
11135SOL     OW35078   3.676   3.407   5.594  0.8626 -0.4553  0.1579
11135SOL    HW135079   3.594   3.438   5.558  1.4755  0.3786 -0.5652
11135SOL    HW235080   3.656   3.386   5.685 -0.7487 -2.7367 -0.6482
11136SOL     OW35081   8.116   8.800   7.522 -0.0938 -0.1526  0.0950
11136SOL    HW135082   8.159   8.840   7.598  0.2448  1.1533 -0.7404
11136SOL    HW235083   8.082   8.717   7.555  0.8100 -0.0326  1.4455
11137SOL     OW35084   1.880   7.913   6.662  0.2860 -0.0794 -0.0020
11137SOL    HW135085   1.864   7.949   6.750 -0.7093  0.8704 -0.5321
11137SOL    HW235086   1.839   7.977   6.604  0.3359 -1.0473 -1.1206
11138SOL     OW35087   3.383   2.746   6.291  0.1701 -0.1909 -0.0919
11138SOL    HW135088   3.378   2.726   6.385 -1.2616  0.0882 -0.0822
11138SOL    HW235089   3.295   2.730   6.259  0.4745  0.3798 -1.2648
11139SOL     OW35090   9.323   4.300   5.096  0.1649 -0.2352  0.1478
11139SOL    HW135091   9.354   4.331   5.010 -0.6919  1.0780  0.2901
11139SOL    HW235092   9.403   4.294   5.149  0.6370 -0.5499 -0.5744
11140SOL     OW35093   3.857   6.406   3.341  0.4411  0.2264 -0.9609
11140SOL    HW135094   3.769   6.418   3.377  0.9057  1.4349 -0.1405
11140SOL    HW235095   3.896   6.337   3.394  1.2120  2.1721  1.1675
11141SOL     OW35096   5.031   4.951   7.816  0.0241 -1.1221 -0.8417
11141SOL    HW135097   5.070   4.970   7.731  2.6328  2.2248  0.8658
11141SOL    HW235098   4.960   5.015   7.824  0.3047 -0.8798 -0.2120
11142SOL     OW35099   4.126   7.120   6.644  0.4735 -0.1736  0.0290
11142SOL    HW135100   4.081   7.179   6.583 -0.7022 -0.9307  0.1380
11142SOL    HW235101   4.129   7.036   6.599  1.5516 -0.2083  0.1426
11143SOL     OW35102   4.007   1.444   4.440  0.0711 -0.0903  0.1357
11143SOL    HW135103   4.094   1.473   4.414 -0.6524  1.9605 -0.1369
11143SOL    HW235104   3.971   1.403   4.361  0.0597  0.8741 -0.3737
11144SOL     OW35105   1.539   4.490   5.484  0.1033  0.0182  0.3753
11144SOL    HW135106   1.627   4.470   5.453 -0.4475 -2.0055 -0.0056
11144SOL    HW235107   1.508   4.409   5.524 -0.3779  1.6106  3.6144
11145SOL     OW35108   6.840   7.935   1.062  0.6930  0.4240  0.5208
11145SOL    HW135109   6.826   8.009   1.121  0.8353  0.4678  0.4991
11145SOL    HW235110   6.896   7.969   0.993 -2.1474  1.3613 -1.5259
11146SOL     OW35111   5.822   7.695   7.260  0.0363  0.6022 -0.5564
11146SOL    HW135112   5.753   7.687   7.326 -0.4289 -0.1901 -1.1257
11146SOL    HW235113   5.892   7.743   7.305 -0.4293  0.4311  0.3838
11147SOL     OW35114   6.316   0.563   6.084  0.2225  0.1163  0.2245
11147SOL    HW135115   6.225   0.536   6.070  0.5776 -0.7534 -0.5072
11147SOL    HW235116   6.366   0.481   6.082  1.2143  0.7207 -1.0129
11148SOL     OW35117   8.862   1.352   3.184 -0.5297 -0.0871  0.1497
11148SOL    HW135118   8.933   1.417   3.187 -0.3214 -0.2165 -1.1663
11148SOL    HW235119   8.798   1.390   3.124 -0.5000 -0.9772 -0.4701
11149SOL     OW35120   2.296   2.604   9.101 -0.7958  0.0354  0.3148
11149SOL    HW135121   2.352   2.538   9.059 -1.8367 -0.3390 -0.5131
11149SOL    HW235122   2.355   2.650   9.161  0.0101 -1.4854  0.7425
11150SOL     OW35123   8.134   6.533   3.115  0.0798 -0.6022  0.1539
11150SOL    HW135124   8.179   6.451   3.092 -0.6979 -1.3631  1.2084
11150SOL    HW235125   8.187   6.601   3.074  1.8972 -1.4805  0.8820
11151SOL     OW35126   2.568   5.315   2.753 -0.5583 -0.1943 -0.2203
11151SOL    HW135127   2.608   5.376   2.691  0.8855  0.2227  1.0706
11151SOL    HW235128   2.523   5.251   2.697 -0.0250  0.6350 -1.6580
11152SOL     OW35129   4.883   7.002   5.422 -0.6883  0.0099 -0.6031
11152SOL    HW135130   4.962   7.027   5.469 -1.5027 -0.8398  1.3079
11152SOL    HW235131   4.826   7.079   5.427  0.5591  1.2436 -3.4292
11153SOL     OW35132   1.230   2.997   1.678 -0.4582 -0.4407  0.5473
11153SOL    HW135133   1.232   3.072   1.737 -0.5274 -0.4644  0.5794
11153SOL    HW235134   1.316   2.997   1.637 -0.8360  0.3106 -0.2715
11154SOL     OW35135   2.527   5.618   3.345  0.0722 -0.0275  0.3434
11154SOL    HW135136   2.512   5.679   3.272  1.6612 -0.4599 -0.3868
11154SOL    HW235137   2.484   5.660   3.420 -2.5300 -0.0746 -1.0125
11155SOL     OW35138   5.998   0.221   9.663  0.1237 -0.6011 -0.3606
11155SOL    HW135139   5.912   0.249   9.694  0.1957 -0.2996 -0.4291
11155SOL    HW235140   6.044   0.303   9.644  0.9642 -0.7055  1.1326
11156SOL     OW35141   3.765   4.789   2.628  0.2496 -0.6814  0.2235
11156SOL    HW135142   3.716   4.854   2.679  0.6648  0.4385 -0.7438
11156SOL    HW235143   3.766   4.711   2.683 -1.4554 -0.3160  0.8519
11157SOL     OW35144   1.451   9.074   8.535  0.0554  0.0572  0.3873
11157SOL    HW135145   1.462   9.057   8.629  0.3580 -2.3597 -0.0300
11157SOL    HW235146   1.538   9.100   8.506 -0.0780  0.9910  0.7844
11158SOL     OW35147   1.093   0.776   3.320  0.6616  0.1690  0.0933
11158SOL    HW135148   1.077   0.684   3.340  0.5525  0.0657 -0.4663
11158SOL    HW235149   1.034   0.796   3.247  1.9540  0.2031 -0.9717
11159SOL     OW35150   5.201   0.769   7.266 -0.3623 -0.2512  0.0384
11159SOL    HW135151   5.211   0.863   7.247 -1.0960 -0.0869  0.4036
11159SOL    HW235152   5.262   0.752   7.337 -0.4031  0.0055  0.1350
11160SOL     OW35153   1.973   3.104   0.991 -0.1503  0.6796 -0.7119
11160SOL    HW135154   1.923   3.080   1.069 -1.2796 -0.8721 -1.8282
11160SOL    HW235155   2.026   3.026   0.971  0.2134  1.0924 -1.4213
11161SOL     OW35156   3.573   8.029   9.523  0.0601  0.3105  0.2412
11161SOL    HW135157   3.562   8.114   9.480 -0.8391  0.1347  0.1113
11161SOL    HW235158   3.490   7.984   9.508 -0.2178  0.1791  2.0296
11162SOL     OW35159   1.290   2.077   2.809  0.1302  0.2727 -0.5267
11162SOL    HW135160   1.379   2.059   2.840  0.2952 -0.2306 -1.2721
11162SOL    HW235161   1.245   1.993   2.813 -0.8075  0.8088  1.3193
11163SOL     OW35162   6.388   1.223   2.357 -0.0997  0.4004  0.5838
11163SOL    HW135163   6.451   1.255   2.292  1.5061 -0.0748  1.8399
11163SOL    HW235164   6.372   1.298   2.414 -1.7323  0.9018 -0.4671
11164SOL     OW35165   5.938   7.329   5.947 -0.3919  0.1167  1.0979
11164SOL    HW135166   6.021   7.289   5.971  0.8449  1.6067 -0.4684
11164SOL    HW235167   5.931   7.407   6.002 -0.3176  0.4504  0.6468
11165SOL     OW35168   1.771   8.232   5.561  0.5609 -0.2677  0.1353
11165SOL    HW135169   1.862   8.204   5.551  0.5842 -0.3251  0.5219
11165SOL    HW235170   1.750   8.215   5.652 -0.1344 -1.1219 -0.1679
11166SOL     OW35171   0.901   7.665   9.060 -0.0079 -0.5223 -0.5642
11166SOL    HW135172   0.905   7.759   9.043 -1.5464 -0.1250  1.0325
11166SOL    HW235173   0.940   7.625   8.982  0.4023  1.4064 -1.4099
11167SOL     OW35174   5.301   5.108   9.576 -0.3886 -0.5207  0.0020
11167SOL    HW135175   5.217   5.062   9.581 -0.9208  0.5030  1.1397
11167SOL    HW235176   5.358   5.062   9.637 -0.9088  0.2400  1.1094
11168SOL     OW35177   2.247   5.903   4.834  0.4733 -0.4708 -0.0709
11168SOL    HW135178   2.153   5.913   4.846  0.4607  1.0769 -1.2153
11168SOL    HW235179   2.283   5.903   4.923 -0.2438  3.5594  0.3978
11169SOL     OW35180   6.537   6.691   9.388  0.5760  0.5582 -0.0035
11169SOL    HW135181   6.614   6.742   9.366  1.8065 -1.8434 -1.7436
11169SOL    HW235182   6.491   6.679   9.305 -0.8884  0.7030  0.7479
11170SOL     OW35183   4.086   4.603   9.438  0.3952 -0.2435 -0.1327
11170SOL    HW135184   4.075   4.690   9.478  0.0926 -0.2158 -0.2746
11170SOL    HW235185   4.176   4.578   9.460 -0.1546 -0.7947  1.6968
11171SOL     OW35186   1.349   7.063   8.710  0.4901 -0.3295  0.3401
11171SOL    HW135187   1.349   6.967   8.713  2.3262 -0.3300  1.7766
11171SOL    HW235188   1.435   7.088   8.743  0.6023  1.8087 -1.3770
11172SOL     OW35189   7.964   5.414   8.054  0.1627  0.1069 -0.1090
11172SOL    HW135190   7.968   5.461   7.971  1.3874  1.5858  0.7290
11172SOL    HW235191   7.913   5.471   8.111  1.9231  0.6243  1.0168
11173SOL     OW35192   3.474   0.451   4.220 -0.9405  0.0518 -0.1795
11173SOL    HW135193   3.433   0.495   4.145 -0.6525 -1.0241 -0.9886
11173SOL    HW235194   3.455   0.358   4.208  3.3529 -0.8766 -1.7635
11174SOL     OW35195   6.264   9.132   6.939 -0.0014 -0.0453  0.2240
11174SOL    HW135196   6.256   9.037   6.932  0.6813  0.0223 -2.5933
11174SOL    HW235197   6.346   9.146   6.987  0.2591 -0.9069  0.0449
11175SOL     OW35198   1.510   3.020   9.508 -0.3514 -0.1923 -0.5215
11175SOL    HW135199   1.480   2.955   9.572  0.1709  0.0003 -0.0791
11175SOL    HW235200   1.475   2.988   9.425 -3.7208  1.1224  0.1911
11176SOL     OW35201   5.724   0.952   1.162 -0.5449 -0.2562  0.2505
11176SOL    HW135202   5.800   0.907   1.124 -0.9862 -0.9784  0.2171
11176SOL    HW235203   5.743   0.954   1.256 -0.4851 -0.4436  0.2441
11177SOL     OW35204   4.321   8.761   3.117  0.0164 -0.0406 -0.4801
11177SOL    HW135205   4.255   8.766   3.048  0.4942  0.0261 -0.9429
11177SOL    HW235206   4.371   8.682   3.097  0.0731 -0.0973 -0.1259
11178SOL     OW35207   0.778   8.372   8.901  0.1340 -0.5208  0.6111
11178SOL    HW135208   0.824   8.439   8.952  0.3358 -1.1826  1.3227
11178SOL    HW235209   0.823   8.371   8.817  0.5328 -0.1914  0.8181
11179SOL     OW35210   9.504   3.145   3.594 -0.3928 -0.0210  0.8805
11179SOL    HW135211   9.470   3.075   3.539  0.0585  0.2880  0.2028
11179SOL    HW235212   9.498   3.110   3.683  0.3932 -1.1629  0.5060
11180SOL     OW35213   6.776   4.401   3.441 -0.0907  0.1207  0.2901
11180SOL    HW135214   6.809   4.311   3.442  2.2010  0.8925  0.2199
11180SOL    HW235215   6.818   4.443   3.516 -1.6885  0.9808  0.7458
11181SOL     OW35216   7.398   0.314   5.616  0.5882 -0.1487  0.3594
11181SOL    HW135217   7.358   0.230   5.593 -0.1742 -0.4522  2.5143
11181SOL    HW235218   7.385   0.369   5.539 -1.1514 -1.2423 -0.1957
11182SOL     OW35219   4.993   1.081   8.736 -0.3326 -0.3906 -0.0278
11182SOL    HW135220   5.000   1.141   8.662 -0.3974 -1.7508 -1.1927
11182SOL    HW235221   4.914   1.109   8.782  0.9385  1.9167  0.9322
11183SOL     OW35222   6.531   0.180   1.382 -0.2258  0.3866 -0.1781
11183SOL    HW135223   6.501   0.112   1.323 -0.9177  1.7082 -1.4309
11183SOL    HW235224   6.527   0.260   1.330  1.5480  1.2512  0.9003
11184SOL     OW35225   1.990   5.141   3.540 -0.1756  0.0294 -0.6213
11184SOL    HW135226   1.974   5.159   3.447 -0.7286  1.0517 -0.3439
11184SOL    HW235227   2.080   5.109   3.543 -0.0684  0.2210 -1.4870
11185SOL     OW35228   2.565   7.002   4.136  0.4687  0.1626  0.4412
11185SOL    HW135229   2.658   7.009   4.156  1.1922 -1.6761 -1.8722
11185SOL    HW235230   2.557   7.031   4.045 -0.6436 -2.5690 -0.4215
11186SOL     OW35231   4.041   3.372   7.000 -0.3074 -0.3118  0.5948
11186SOL    HW135232   4.034   3.454   6.952 -0.8236 -1.0202 -0.5961
11186SOL    HW235233   3.993   3.309   6.947 -0.6174 -1.2147  1.8923
11187SOL     OW35234   5.542   4.513   1.972  0.1551  0.2454 -0.2859
11187SOL    HW135235   5.565   4.487   2.061  0.7197 -0.1015 -0.5252
11187SOL    HW235236   5.468   4.458   1.948  1.9278 -1.9187 -1.1406
11188SOL     OW35237   6.280   9.651   1.314  0.2462  0.6482 -0.6834
11188SOL    HW135238   6.260   9.615   1.227  0.3320  0.5092 -0.6450
11188SOL    HW235239   6.283   9.746   1.300  0.5674  0.6074 -0.8947
11189SOL     OW35240   2.027   4.290   3.498 -0.0907 -0.0207  0.2305
11189SOL    HW135241   2.064   4.288   3.587  1.2021  0.5921 -0.2717
11189SOL    HW235242   2.094   4.331   3.445 -0.8489 -0.3855 -1.0564
11190SOL     OW35243   4.987   8.032   2.396  0.3211  0.1091  0.0164
11190SOL    HW135244   4.989   8.021   2.301 -1.0315 -0.2502  0.0027
11190SOL    HW235245   4.980   8.127   2.409  0.3996  0.1513 -0.2411
11191SOL     OW35246   5.266   9.196   7.280 -0.4498  0.0658  0.1667
11191SOL    HW135247   5.236   9.280   7.245  0.6649  0.5140  0.2415
11191SOL    HW235248   5.352   9.183   7.240 -0.9642 -1.4807 -0.5202
11192SOL     OW35249   5.383   2.413   5.186 -0.1099 -0.0998  0.4626
11192SOL    HW135250   5.374   2.406   5.281  1.1287  0.7847  0.6817
11192SOL    HW235251   5.379   2.323   5.154  0.2551 -0.4795  1.4488
11193SOL     OW35252   0.248   7.440   6.580  0.0346  0.2239 -0.2872
11193SOL    HW135253   0.331   7.458   6.534 -1.3024  0.8559 -2.5988
11193SOL    HW235254   0.219   7.526   6.610 -0.0897  0.0999 -0.0568
11194SOL     OW35255   2.875   5.666   9.477 -0.4498  0.3002  0.4604
11194SOL    HW135256   2.932   5.742   9.471 -0.2921  0.3754  2.2054
11194SOL    HW235257   2.786   5.700   9.466 -0.2484  0.3180 -1.3426
11195SOL     OW35258   0.185   6.545   3.015 -0.8716 -0.3103  0.0008
11195SOL    HW135259   0.151   6.469   3.061 -2.7420  0.9642  0.8898
11195SOL    HW235260   0.129   6.552   2.937 -1.7418  0.9521  0.6967
11196SOL     OW35261   9.148   4.821   9.441 -0.0365 -0.3267  0.0698
11196SOL    HW135262   9.199   4.808   9.520 -1.8566 -0.7863  1.2378
11196SOL    HW235263   9.089   4.893   9.462 -0.9635 -0.8481 -0.6323
11197SOL     OW35264   3.707   4.055   3.714 -0.1731  0.1413  0.1525
11197SOL    HW135265   3.773   4.069   3.646 -1.4808  2.5552 -0.7543
11197SOL    HW235266   3.623   4.062   3.667 -1.0914 -0.2876  1.6751
11198SOL     OW35267   3.471   3.457   1.445  0.4671  0.7070 -0.5082
11198SOL    HW135268   3.503   3.410   1.368 -0.7750 -0.8051 -0.1423
11198SOL    HW235269   3.512   3.544   1.438  3.0655 -0.4460 -1.0691
11199SOL     OW35270   4.880   1.512   5.390  0.3686  0.4497  0.1645
11199SOL    HW135271   4.842   1.447   5.332 -1.1159  0.2227  1.3290
11199SOL    HW235272   4.933   1.462   5.452  2.3299  0.7304 -1.2092
11200SOL     OW35273   4.860   7.400   8.674  0.2826  0.4532  0.1563
11200SOL    HW135274   4.907   7.472   8.632  1.1774 -0.8534 -1.1988
11200SOL    HW235275   4.794   7.373   8.610  0.2767 -0.2210  0.4319
11201SOL     OW35276   1.743   1.932   8.078  0.6969 -0.2168  0.2936
11201SOL    HW135277   1.687   2.009   8.080  0.8587 -0.0418 -0.8116
11201SOL    HW235278   1.721   1.883   8.157  0.2677  0.7313  0.7752
11202SOL     OW35279   4.173   5.410   0.442 -0.2355  0.2720  0.2129
11202SOL    HW135280   4.150   5.395   0.350 -1.6621  3.7654 -0.1845
11202SOL    HW235281   4.243   5.475   0.438  0.9383 -0.8539  1.6401
11203SOL     OW35282   3.425   5.624   1.138  0.2037  0.3387  0.7715
11203SOL    HW135283   3.395   5.628   1.229  1.6028 -0.8937  1.3374
11203SOL    HW235284   3.516   5.594   1.145 -0.3979 -2.2639 -1.1182
11204SOL     OW35285   6.302   5.852   9.196 -0.0594 -0.0654  0.2967
11204SOL    HW135286   6.298   5.776   9.255 -0.6901 -1.3954 -1.3876
11204SOL    HW235287   6.334   5.816   9.113  1.0342  1.8033 -0.1400
11205SOL     OW35288   8.777   6.398   3.484 -0.0369  0.1952 -0.1364
11205SOL    HW135289   8.755   6.462   3.552 -0.1380 -0.9089  0.8922
11205SOL    HW235290   8.731   6.429   3.406  0.2057  1.5708  0.2449
11206SOL     OW35291   4.198   7.208   6.142  0.3732 -0.3514 -0.0252
11206SOL    HW135292   4.191   7.146   6.069  0.7226 -0.2599 -0.1386
11206SOL    HW235293   4.243   7.159   6.211 -0.6628 -0.6937  0.4237
11207SOL     OW35294   1.462   3.322   0.603 -0.7234  0.5770  0.2941
11207SOL    HW135295   1.460   3.379   0.526  0.9167  0.4750  0.1482
11207SOL    HW235296   1.476   3.381   0.676 -2.0365  0.6475  0.5078
11208SOL     OW35297   1.422   9.109   6.544 -0.5033 -0.4167 -0.1662
11208SOL    HW135298   1.422   9.082   6.452  0.2750  0.9683 -0.6056
11208SOL    HW235299   1.514   9.124   6.565 -0.8258  1.5148  0.1063
11209SOL     OW35300   3.601   1.180   7.434 -0.9936 -0.2387 -0.2941
11209SOL    HW135301   3.695   1.163   7.438 -0.5383  1.4086 -2.3067
11209SOL    HW235302   3.584   1.239   7.508 -0.8176 -1.7370  1.0142
11210SOL     OW35303   3.796   1.199   3.492  0.2746 -0.4011 -0.0490
11210SOL    HW135304   3.861   1.225   3.427  0.8944  0.3770  0.8548
11210SOL    HW235305   3.738   1.275   3.501  0.0363 -0.5966  0.1149
11211SOL     OW35306   9.351   0.809   1.941 -0.3356  1.0228 -0.1142
11211SOL    HW135307   9.277   0.866   1.918 -2.5066 -1.3138  0.5702
11211SOL    HW235308   9.347   0.801   2.036  1.1330  1.2212 -0.0157
11212SOL     OW35309   5.847   8.178   1.567 -0.4785 -0.4508 -0.1982
11212SOL    HW135310   5.826   8.139   1.482 -2.7040 -1.2382  0.6392
11212SOL    HW235311   5.939   8.203   1.559  0.5119 -3.8907 -1.5789
11213SOL     OW35312   6.465   6.185   2.565 -0.1491 -0.5157  0.0411
11213SOL    HW135313   6.546   6.165   2.517 -0.4516  0.6679 -1.0349
11213SOL    HW235314   6.468   6.128   2.642  0.9161 -1.6763 -0.8014
11214SOL     OW35315   8.413   8.395   1.536 -0.0770 -1.2673  0.0387
11214SOL    HW135316   8.353   8.388   1.462 -0.5760  0.7446  0.2088
11214SOL    HW235317   8.359   8.375   1.612 -0.4031 -0.0726  0.1351
11215SOL     OW35318   1.725   8.417   4.201 -0.0159 -0.3338 -0.4347
11215SOL    HW135319   1.806   8.372   4.178  0.1176 -0.8565  0.9445
11215SOL    HW235320   1.663   8.346   4.222 -0.4365  0.0813 -0.2427
11216SOL     OW35321   1.892   4.725   4.627 -0.2748  0.3344 -0.2902
11216SOL    HW135322   1.981   4.695   4.647 -0.4399  0.0644  0.0473
11216SOL    HW235323   1.884   4.713   4.532  0.9996  2.9723 -0.7930
11217SOL     OW35324   4.699   8.831   7.295  0.1877  0.5440 -0.2582
11217SOL    HW135325   4.701   8.922   7.325  1.0527  0.2336  0.6687
11217SOL    HW235326   4.692   8.837   7.200  0.7995  1.5863 -0.2473
11218SOL     OW35327   3.728   5.685   3.887 -0.3694 -0.2578 -0.5132
11218SOL    HW135328   3.692   5.693   3.799 -0.6848 -0.0760 -0.3685
11218SOL    HW235329   3.822   5.695   3.875 -0.2150 -2.0961 -1.0778
11219SOL     OW35330   5.003   0.542   7.612 -0.0080  0.2933  0.3039
11219SOL    HW135331   5.079   0.587   7.577 -0.5903  0.1181 -1.2758
11219SOL    HW235332   5.028   0.450   7.616 -0.6135 -0.0223 -1.7896
11220SOL     OW35333   3.744   4.567   1.202  0.9195  0.4090 -0.0416
11220SOL    HW135334   3.778   4.546   1.289  1.0286  0.2554 -0.1223
11220SOL    HW235335   3.811   4.537   1.141  0.8610  0.5538 -0.1773
11221SOL     OW35336   6.203   2.151   7.133 -0.3648  0.4513  0.0080
11221SOL    HW135337   6.248   2.089   7.076 -2.2326 -3.2483  2.1598
11221SOL    HW235338   6.143   2.197   7.075 -0.2537 -1.1805 -1.4874
11222SOL     OW35339   0.198   8.019   4.723 -0.3507 -0.1512 -0.4332
11222SOL    HW135340   0.180   8.102   4.767 -0.9344  0.2084 -1.3241
11222SOL    HW235341   0.179   8.036   4.631  0.9424 -0.8620 -0.8540
11223SOL     OW35342   9.419   6.130   2.446 -0.1804  0.2879 -0.0381
11223SOL    HW135343   9.330   6.165   2.449 -0.5912 -0.5664 -1.3183
11223SOL    HW235344   9.472   6.201   2.412 -0.9245 -0.1145 -2.1811
11224SOL     OW35345   4.464   2.900   3.046 -0.5994  0.0851 -0.0676
11224SOL    HW135346   4.559   2.913   3.051 -0.6622  2.3823 -2.6103
11224SOL    HW235347   4.453   2.830   2.983 -0.6134 -0.0534  0.0875
11225SOL     OW35348   4.986   8.541   8.952  0.0814  0.7113  0.2468
11225SOL    HW135349   5.032   8.611   8.999 -3.5697  2.8369  1.0142
11225SOL    HW235350   4.993   8.465   9.009  3.1283  0.6164 -0.0516
11226SOL     OW35351   7.996   9.098   8.007  0.6232  0.1016  0.2393
11226SOL    HW135352   7.991   9.051   8.090  2.5200  0.1151  0.4078
11226SOL    HW235353   8.017   9.031   7.942 -1.2720  0.0185 -0.3621
11227SOL     OW35354   2.601   0.684   6.460 -0.0549 -0.1124 -0.0698
11227SOL    HW135355   2.626   0.611   6.403 -0.2736  0.5337 -0.9999
11227SOL    HW235356   2.685   0.720   6.491  0.0836 -2.0383  2.1293
11228SOL     OW35357   9.424   5.044   7.551  0.1812  0.0556  0.1754
11228SOL    HW135358   9.335   5.077   7.535 -0.2155  1.3075  3.9353
11228SOL    HW235359   9.480   5.121   7.543  0.9975 -0.6963 -2.0066
11229SOL     OW35360   9.443   6.670   9.600 -0.0734 -0.1966 -0.7550
11229SOL    HW135361   9.365   6.631   9.640  1.3597 -1.0815  1.3858
11229SOL    HW235362   9.428   6.764   9.607 -0.8198 -0.3501 -0.0388
11230SOL     OW35363   6.350   3.661   3.595  0.0673  0.4664 -0.0673
11230SOL    HW135364   6.340   3.701   3.509  1.4985  1.8164  0.3465
11230SOL    HW235365   6.439   3.626   3.595 -0.5234 -1.1540  0.2550
11231SOL     OW35366   5.191   2.214   0.854  0.4371  0.4072 -0.0655
11231SOL    HW135367   5.148   2.202   0.939  0.5404 -2.1737 -0.3052
11231SOL    HW235368   5.276   2.171   0.864  0.5913  0.3759 -1.3502
11232SOL     OW35369   8.930   8.980   5.236 -0.1968  0.8769  0.0222
11232SOL    HW135370   8.951   9.048   5.172  1.4254 -0.0479 -0.5013
11232SOL    HW235371   9.008   8.974   5.292  0.6276 -1.8880 -1.2262
11233SOL     OW35372   6.029   0.030   6.637  0.4593 -0.7540  0.0916
11233SOL    HW135373   6.018   0.123   6.656  2.1135 -0.6687  0.7988
11233SOL    HW235374   6.055   0.027   6.545 -0.0308 -0.5601 -0.0556
11234SOL     OW35375   4.437   3.749   4.344  0.0694 -0.2977  0.0659
11234SOL    HW135376   4.516   3.802   4.332 -0.4242  0.2652 -0.7459
11234SOL    HW235377   4.419   3.756   4.438 -0.6293  1.9584 -0.1615
11235SOL     OW35378   3.304   3.796   9.450  0.0994  0.6257 -0.3317
11235SOL    HW135379   3.327   3.707   9.477 -0.0050  0.7204  0.0738
11235SOL    HW235380   3.361   3.813   9.375  0.4328  0.3763 -0.1394
11236SOL     OW35381   4.479   7.038   1.892  0.3514  0.1523 -0.5914
11236SOL    HW135382   4.388   7.069   1.895 -0.1221 -1.2458  1.9084
11236SOL    HW235383   4.502   7.042   1.799 -2.2526  0.5731 -1.3033
11237SOL     OW35384   4.517   7.943   6.408 -0.4816  0.2841 -0.0369
11237SOL    HW135385   4.470   7.908   6.332  0.3616  0.9502 -0.9027
11237SOL    HW235386   4.561   8.021   6.374 -0.2933  0.7357  1.2165
11238SOL     OW35387   3.712   7.076   8.263  0.5798  0.2984  0.0068
11238SOL    HW135388   3.717   7.066   8.168 -2.6229  1.2741 -0.3987
11238SOL    HW235389   3.799   7.104   8.289  1.4001  0.5867 -2.7253
11239SOL     OW35390   1.328   0.862   7.320  0.2961 -0.2419 -0.3125
11239SOL    HW135391   1.337   0.768   7.339  0.5464 -0.4173 -1.2470
11239SOL    HW235392   1.383   0.876   7.243 -0.6198  0.4454 -0.8585
11240SOL     OW35393   7.461   1.901   8.897  0.2400 -0.2524  0.3747
11240SOL    HW135394   7.462   1.982   8.947  1.2274 -1.0606  1.7206
11240SOL    HW235395   7.519   1.842   8.944 -0.5098 -1.7903 -0.5180
11241SOL     OW35396   7.262   9.029   0.937 -0.0935 -0.3990  0.1376
11241SOL    HW135397   7.285   9.117   0.907 -1.8544  0.0892  0.1291
11241SOL    HW235398   7.283   8.972   0.862  0.0935  0.1467 -0.2324
11242SOL     OW35399   3.217   2.466   2.497 -0.1694  0.3314  0.0373
11242SOL    HW135400   3.216   2.403   2.569 -0.1906  0.2319 -0.0501
11242SOL    HW235401   3.138   2.446   2.446 -0.4635  0.7767  0.3094
11243SOL     OW35402   9.250   8.131   5.234  0.3354 -0.6756 -0.3221
11243SOL    HW135403   9.242   8.036   5.242 -1.2122 -0.4748  1.1550
11243SOL    HW235404   9.260   8.162   5.324  0.8455  0.5685 -0.7916
11244SOL     OW35405   5.190   7.374   1.701 -0.0017  0.0214  0.0268
11244SOL    HW135406   5.219   7.457   1.739 -0.2873  0.6261 -1.0212
11244SOL    HW235407   5.264   7.344   1.648 -0.0784 -0.1303  0.0031
11245SOL     OW35408   0.665   3.344   7.581  0.0748 -0.1430 -0.0705
11245SOL    HW135409   0.607   3.303   7.516  0.7060 -0.2553 -0.5682
11245SOL    HW235410   0.703   3.269   7.628 -0.4381 -0.0605  0.4883
11246SOL     OW35411   7.793   1.120   2.990 -0.0103  0.6665  0.2729
11246SOL    HW135412   7.724   1.106   2.926  1.9165 -0.1236 -1.7340
11246SOL    HW235413   7.809   1.215   2.987 -0.0079  0.6496 -0.3145
11247SOL     OW35414   6.444   3.785   7.490 -0.5604  0.4752 -0.0894
11247SOL    HW135415   6.389   3.864   7.486  0.5695  1.3806  1.3581
11247SOL    HW235416   6.531   3.814   7.463  0.0809 -0.0312  1.3107
11248SOL     OW35417   0.576   3.612   7.606 -0.4364  0.3171  0.1170
11248SOL    HW135418   0.585   3.520   7.581 -0.0636  0.3900 -0.0171
11248SOL    HW235419   0.646   3.628   7.668  0.3275  0.8483 -0.8460
11249SOL     OW35420   5.447   9.568   2.738  0.0692  0.7095  0.7626
11249SOL    HW135421   5.415   9.536   2.822  0.2439 -0.9049  0.2371
11249SOL    HW235422   5.497   9.647   2.760 -0.3682  0.6330  2.1028
11250SOL     OW35423   3.715   9.329   0.516  0.7073  0.1634  0.2602
11250SOL    HW135424   3.696   9.272   0.590 -2.0219  0.0379 -0.4237
11250SOL    HW235425   3.749   9.271   0.448 -0.2428 -0.3508  0.2098
11251SOL     OW35426   3.536   7.450   0.414 -0.2808 -0.7991 -0.0188
11251SOL    HW135427   3.466   7.407   0.464 -0.1995  0.0486  0.8562
11251SOL    HW235428   3.608   7.388   0.416 -0.0624 -0.5498  1.4881
11252SOL     OW35429   6.834   2.024   1.567  0.1625 -0.3039  0.3895
11252SOL    HW135430   6.900   2.015   1.635  0.5335  0.5240  0.1527
11252SOL    HW235431   6.776   1.949   1.579 -0.1063  0.1297  1.9550
11253SOL     OW35432   3.443   7.485   3.601  0.3632  0.0875  0.0121
11253SOL    HW135433   3.377   7.493   3.669  0.9924  0.5887  0.5816
11253SOL    HW235434   3.509   7.550   3.624  1.0952 -0.4576 -0.5014
11254SOL     OW35435   4.743   5.210   6.754 -0.0200  0.0926  0.3746
11254SOL    HW135436   4.714   5.297   6.727  1.5419 -0.1810 -2.6043
11254SOL    HW235437   4.663   5.159   6.764 -0.8319  0.8802 -1.7287
11255SOL     OW35438   7.378   4.033   4.233  0.9994 -0.3777 -0.0855
11255SOL    HW135439   7.348   4.030   4.142 -0.8519 -1.9139  0.4980
11255SOL    HW235440   7.363   3.944   4.266 -0.4123  0.6360  2.3047
11256SOL     OW35441   8.529   7.445   3.550 -0.1578 -0.3873 -0.4975
11256SOL    HW135442   8.578   7.375   3.506  1.2207  0.4372 -0.3259
11256SOL    HW235443   8.583   7.523   3.539 -1.9583  0.8207 -1.2241
11257SOL     OW35444   4.702   3.362   6.493 -0.0550 -0.6341  0.8622
11257SOL    HW135445   4.727   3.371   6.401 -1.8368  0.0858  0.4129
11257SOL    HW235446   4.785   3.346   6.539  0.7467 -1.9994 -0.9690
11258SOL     OW35447   4.721   6.799   8.849 -0.8583 -0.2647  0.4248
11258SOL    HW135448   4.628   6.805   8.870 -0.9525  0.2047 -0.1024
11258SOL    HW235449   4.733   6.710   8.817 -0.8778 -0.7230  1.6365
11259SOL     OW35450   3.186   2.938   0.053 -0.1060 -0.1150 -0.1426
11259SOL    HW135451   3.270   2.967   0.018  0.1286 -0.2534  0.2980
11259SOL    HW235452   3.155   3.013   0.104 -0.0019 -0.2562  0.1265
11260SOL     OW35453   4.974   8.968   4.002  0.5102 -0.2872 -1.0841
11260SOL    HW135454   5.050   8.961   3.944  0.7417  1.2635 -1.0220
11260SOL    HW235455   4.985   9.053   4.045 -1.5111  0.2296 -1.4609
11261SOL     OW35456   9.267   7.225   6.300 -0.1493  0.3016 -0.1368
11261SOL    HW135457   9.355   7.248   6.273  0.3444 -0.7211  0.5573
11261SOL    HW235458   9.272   7.217   6.395 -1.0418  0.4631 -0.0667
11262SOL     OW35459   1.184   7.366   9.643 -0.4292  0.4205  0.1053
11262SOL    HW135460   1.161   7.303   9.575 -0.9349 -0.2192  0.8534
11262SOL    HW235461   1.158   7.324   9.725  2.2130  0.1920  0.9115
11263SOL     OW35462   2.824   1.904   3.391 -0.0748  0.8451  0.1901
11263SOL    HW135463   2.906   1.884   3.437 -0.6752  0.9260  1.3372
11263SOL    HW235464   2.756   1.867   3.448 -0.8551  1.0832 -0.5744
11264SOL     OW35465   0.713   4.740   8.999 -0.6442 -0.0985 -0.2308
11264SOL    HW135466   0.762   4.743   8.917 -0.3753  0.7636 -0.0495
11264SOL    HW235467   0.777   4.716   9.065 -0.5696  0.5322 -0.0709
11265SOL     OW35468   0.947   9.063   1.966 -0.4320  0.3017  0.1493
11265SOL    HW135469   1.018   9.027   2.020 -0.5589  0.2525  0.2853
11265SOL    HW235470   0.944   9.006   1.890 -0.8690 -0.1969  0.5326
11266SOL     OW35471   2.819   3.383   0.088 -0.5276  0.6032 -0.6509
11266SOL    HW135472   2.802   3.472   0.119 -0.3218  0.8202 -1.1508
11266SOL    HW235473   2.796   3.327   0.162  0.2481  1.1227 -0.0039
11267SOL     OW35474   0.137   4.782   4.545  0.2315 -0.6610 -0.1143
11267SOL    HW135475   0.211   4.826   4.503  0.2767 -1.1211 -0.5148
11267SOL    HW235476   0.064   4.843   4.534  0.3279 -0.6222 -0.5330
11268SOL     OW35477   4.513   1.673   5.462 -0.1322 -0.2890  0.0549
11268SOL    HW135478   4.461   1.661   5.541 -0.4303  0.3438 -0.0462
11268SOL    HW235479   4.548   1.762   5.468  0.9165 -0.6861  0.1037
11269SOL     OW35480   7.628   9.535   3.189 -0.0991  0.2395  0.1552
11269SOL    HW135481   7.715   9.573   3.178 -0.7604  2.2004  1.1906
11269SOL    HW235482   7.619   9.521   3.283 -1.5711  1.9629  0.3422
11270SOL     OW35483   6.498   5.869   3.136  0.2581 -0.3745  0.2570
11270SOL    HW135484   6.543   5.892   3.217 -0.2462 -1.8035  0.9821
11270SOL    HW235485   6.567   5.830   3.081  0.6440  0.7825 -0.1155
11271SOL     OW35486   7.728   3.605   3.710  0.1698 -0.2482  0.1089
11271SOL    HW135487   7.808   3.553   3.699  0.0161 -0.4481 -0.0667
11271SOL    HW235488   7.717   3.613   3.804  1.6007  1.6265  0.1868
11272SOL     OW35489   0.300   1.879   0.027  0.0876 -0.6284  0.5473
11272SOL    HW135490   0.230   1.816   0.041  0.2394 -0.7436  0.7987
11272SOL    HW235491   0.362   1.862   0.098  0.5979 -0.8474  0.0615
11273SOL     OW35492   3.897   3.664   4.178  0.1625 -0.0807  0.3503
11273SOL    HW135493   3.823   3.673   4.119 -1.1785 -1.6772  1.6834
11273SOL    HW235494   3.974   3.661   4.120 -0.7494  1.6097 -1.0562
11274SOL     OW35495   0.532   4.673   8.525  0.0099  0.5894 -0.4851
11274SOL    HW135496   0.543   4.759   8.485  0.6279 -0.2982 -2.3362
11274SOL    HW235497   0.554   4.611   8.455  1.8889 -1.0607  1.4223
11275SOL     OW35498   9.242   2.960   0.210  0.1802 -0.3481  0.4677
11275SOL    HW135499   9.194   3.030   0.168  1.0532 -0.1794 -0.2941
11275SOL    HW235500   9.202   2.880   0.176  1.0663 -0.2238 -1.0101
11276SOL     OW35501   5.858   7.339   6.557 -0.0421 -0.1798 -0.1878
11276SOL    HW135502   5.828   7.426   6.586 -0.7384 -0.6436  0.5163
11276SOL    HW235503   5.850   7.342   6.462  0.8759  0.8609 -0.2557
11277SOL     OW35504   4.980   6.692   4.075 -0.2506  0.0020 -0.1870
11277SOL    HW135505   5.011   6.650   4.155  1.3263 -1.0074 -1.2706
11277SOL    HW235506   5.026   6.776   4.073  1.0928 -0.7125 -0.8620
11278SOL     OW35507   8.066   8.581   4.583  0.1246  0.4341 -0.1296
11278SOL    HW135508   7.985   8.558   4.628  0.3513 -0.6503 -0.2400
11278SOL    HW235509   8.038   8.606   4.495 -0.2066  1.4006  0.2424
11279SOL     OW35510   0.116   2.772   7.951  0.2873 -0.2459 -0.0383
11279SOL    HW135511   0.157   2.767   8.037  0.3523 -0.4751 -0.0837
11279SOL    HW235512   0.189   2.762   7.889  0.4959  1.5051 -0.1441
11280SOL     OW35513   5.572   7.151   4.922 -0.4634  0.8537 -0.5678
11280SOL    HW135514   5.663   7.133   4.899 -0.3701 -0.0138  0.3753
11280SOL    HW235515   5.526   7.155   4.838  0.3273  0.6019 -1.0228
11281SOL     OW35516   6.360   1.980   5.214  1.0139 -0.0668 -0.0749
11281SOL    HW135517   6.277   1.954   5.253  0.6862  0.4171 -0.4356
11281SOL    HW235518   6.338   2.000   5.123  1.5605 -0.1140 -0.2215
11282SOL     OW35519   8.219   3.402   0.511  0.1493 -0.3360 -0.3644
11282SOL    HW135520   8.275   3.340   0.558  1.0176  0.4822 -0.2876
11282SOL    HW235521   8.271   3.430   0.436  0.0921  0.8628  0.0092
11283SOL     OW35522   1.132   3.589   8.465  0.0788  0.3625 -0.0063
11283SOL    HW135523   1.044   3.579   8.429 -0.6830  0.2696  1.8213
11283SOL    HW235524   1.145   3.511   8.519  1.1932  0.5173 -0.0176
11284SOL     OW35525   5.185   3.043   8.994  0.3843 -0.1662 -0.0079
11284SOL    HW135526   5.147   2.955   9.001  1.8158 -0.7277  1.5075
11284SOL    HW235527   5.255   3.034   8.929  1.9203 -0.7366  1.6559
11285SOL     OW35528   5.870   7.822   5.777  0.8179  0.6834  0.2387
11285SOL    HW135529   5.842   7.732   5.762  1.2801  0.5844 -0.0537
11285SOL    HW235530   5.816   7.853   5.850 -2.0378  1.4207 -2.0348
11286SOL     OW35531   3.314   5.748   8.475 -0.6298 -0.6622  0.3164
11286SOL    HW135532   3.259   5.671   8.489  1.2488 -1.8973  1.3495
11286SOL    HW235533   3.321   5.789   8.562 -2.0277  1.0162 -0.3190
11287SOL     OW35534   9.595   6.894   2.149 -0.0811 -0.3194 -0.6513
11287SOL    HW135535   9.553   6.850   2.076  2.4181 -2.2769 -1.0562
11287SOL    HW235536   9.660   6.831   2.181 -0.5255  0.7232  2.8059
11288SOL     OW35537   7.525   5.023   7.620 -0.6012  0.3708  0.3592
11288SOL    HW135538   7.526   4.971   7.701  1.7076  1.0966  0.8723
11288SOL    HW235539   7.432   5.033   7.600 -1.2086 -2.7158  0.9913
11289SOL     OW35540   4.827   0.892   5.077 -0.0045  0.4448  0.1284
11289SOL    HW135541   4.917   0.922   5.088  0.0586  0.7421 -1.0925
11289SOL    HW235542   4.775   0.972   5.068 -0.1311  0.2565 -0.9881
11290SOL     OW35543   7.571   3.123   0.335 -0.3448 -0.5244  0.0220
11290SOL    HW135544   7.550   3.213   0.360  0.8937 -0.9446  2.9735
11290SOL    HW235545   7.515   3.069   0.391 -1.7273 -1.6905 -2.3313
11291SOL     OW35546   0.121   3.270   2.806 -0.1279  0.4243 -0.5948
11291SOL    HW135547   0.111   3.237   2.716 -1.3993  0.2523 -0.4142
11291SOL    HW235548   0.198   3.224   2.839  1.1329  1.4451 -1.9988
11292SOL     OW35549   3.307   6.717   4.607 -0.0221  0.1957  0.2031
11292SOL    HW135550   3.382   6.678   4.650 -0.8288 -1.6115  0.0418
11292SOL    HW235551   3.232   6.667   4.639 -1.0515  1.2838 -0.4160
11293SOL     OW35552   4.885   0.227   1.140 -0.1353  0.4497 -0.0567
11293SOL    HW135553   4.936   0.285   1.083 -0.6759  1.0508  0.0520
11293SOL    HW235554   4.914   0.249   1.229 -1.5238  1.7985  0.1178
11294SOL     OW35555   1.793   5.779   1.140 -0.4728  0.0198 -0.8171
11294SOL    HW135556   1.779   5.864   1.181  0.2543  0.7695 -2.0818
11294SOL    HW235557   1.715   5.765   1.085 -2.0207 -1.5155  1.5558
11295SOL     OW35558   3.946   4.957   4.734 -0.2125 -0.5569  0.5915
11295SOL    HW135559   3.963   5.002   4.817 -1.0336 -0.2157  0.5826
11295SOL    HW235560   3.862   4.991   4.705  1.1099  1.0552 -1.5560
11296SOL     OW35561   3.005   6.952   7.980 -0.0619  0.2411  0.0775
11296SOL    HW135562   3.031   6.879   7.924 -0.4437  0.7512 -0.7824
11296SOL    HW235563   2.989   6.912   8.065  0.9015 -0.4917 -0.0662
11297SOL     OW35564   4.385   0.400   2.184  0.2885 -0.2424 -0.9768
11297SOL    HW135565   4.457   0.458   2.211 -0.4843 -0.1036  0.8943
11297SOL    HW235566   4.370   0.423   2.092  2.1971  0.1815 -1.2279
11298SOL     OW35567   2.173   9.429   3.037 -0.4662 -0.0038  0.0791
11298SOL    HW135568   2.109   9.453   3.104  0.0567  0.8533  0.2980
11298SOL    HW235569   2.160   9.494   2.968  0.6930  0.6976  0.4840
11299SOL     OW35570   2.809   6.234   0.816 -0.1132 -0.0874 -0.2861
11299SOL    HW135571   2.855   6.156   0.847 -2.1434 -0.8661  1.0187
11299SOL    HW235572   2.732   6.199   0.770 -1.3513  1.1221  0.8049
11300SOL     OW35573   6.453   7.910   9.329 -0.0490 -0.1382  0.0487
11300SOL    HW135574   6.521   7.888   9.265  0.1050 -0.5165  0.3387
11300SOL    HW235575   6.461   7.843   9.397 -1.0719 -0.5205 -0.1831
11301SOL     OW35576   7.422   7.621   1.144 -0.1086  0.2503 -0.3037
11301SOL    HW135577   7.330   7.647   1.135  0.3362  2.1289  0.1029
11301SOL    HW235578   7.427   7.580   1.230 -0.7314 -0.7620 -0.7273
11302SOL     OW35579   8.797   3.894   5.293 -0.1497  0.3437 -0.1606
11302SOL    HW135580   8.759   3.896   5.205 -0.4057  0.7269 -0.0444
11302SOL    HW235581   8.739   3.950   5.345  0.3839  0.6593  0.0971
11303SOL     OW35582   0.541   2.167   3.998 -0.3143  0.5211 -0.0102
11303SOL    HW135583   0.497   2.092   4.036  1.9098 -0.4318  0.8478
11303SOL    HW235584   0.589   2.207   4.070 -1.4432  2.8537 -0.4266
11304SOL     OW35585   3.471   4.277   2.102  0.1682 -0.5653 -0.2430
11304SOL    HW135586   3.381   4.298   2.077 -0.1619 -0.1571  1.1647
11304SOL    HW235587   3.477   4.182   2.093 -1.0169 -0.8425  1.4049
11305SOL     OW35588   3.196   3.359   0.386 -0.1737  1.0593  0.4257
11305SOL    HW135589   3.207   3.273   0.427 -0.6120  0.3083 -0.9475
11305SOL    HW235590   3.228   3.421   0.451  0.8421 -0.1927  1.1754
11306SOL     OW35591   3.274   3.407   1.649 -0.4000  0.3696  0.1265
11306SOL    HW135592   3.229   3.491   1.635  0.3679  0.7505 -0.0845
11306SOL    HW235593   3.349   3.410   1.590  0.3568  0.0748  1.0659
11307SOL     OW35594   3.584   0.539   1.369  0.3280  0.9454  0.2219
11307SOL    HW135595   3.627   0.572   1.290 -0.6091  2.4744  0.3063
11307SOL    HW235596   3.656   0.514   1.427  1.0652  1.4941 -0.4330
11308SOL     OW35597   2.024   4.693   1.954 -0.8277 -0.0463 -0.0792
11308SOL    HW135598   2.080   4.725   2.025 -0.9161 -0.0891  0.0102
11308SOL    HW235599   2.029   4.598   1.960 -0.2915 -0.0496 -0.5630
11309SOL     OW35600   2.654   4.247   3.409 -0.2666 -0.4018  0.0226
11309SOL    HW135601   2.710   4.184   3.454 -1.9915 -1.7071  0.4452
11309SOL    HW235602   2.663   4.327   3.460  0.0507 -1.0279  0.9913
11310SOL     OW35603   4.770   3.079   5.122  0.1076  0.1383 -0.0376
11310SOL    HW135604   4.797   3.170   5.109  0.6817 -0.0953 -0.4703
11310SOL    HW235605   4.724   3.056   5.042 -1.0632  0.4073  0.5344
11311SOL     OW35606   6.391   2.774   6.555 -0.2886  0.6153 -0.5500
11311SOL    HW135607   6.354   2.803   6.471 -0.5061  2.0777  0.0204
11311SOL    HW235608   6.461   2.836   6.572 -2.0469  2.1512  1.6927
11312SOL     OW35609   8.413   7.383   5.308  0.7216 -0.4580  0.5391
11312SOL    HW135610   8.453   7.404   5.224 -0.2073  0.0794  0.2205
11312SOL    HW235611   8.451   7.298   5.331  1.1692 -0.5034 -0.3029
11313SOL     OW35612   0.107   0.977   9.563 -0.1853  0.2481  0.4752
11313SOL    HW135613   0.203   0.977   9.570 -0.2787 -0.3740  2.9139
11313SOL    HW235614   0.086   0.888   9.537 -0.1545 -1.4637  5.2433
11314SOL     OW35615   6.009   1.571   0.284 -0.6069 -0.1197 -0.0428
11314SOL    HW135616   6.047   1.486   0.264 -0.0354 -0.3663  1.8209
11314SOL    HW235617   5.919   1.552   0.312  0.2080 -0.4875  2.6436
11315SOL     OW35618   8.025   1.748   0.224 -0.4624 -0.0279 -0.1115
11315SOL    HW135619   8.080   1.826   0.219 -1.4779  0.6847 -0.4164
11315SOL    HW235620   8.064   1.695   0.294  0.6327  0.4279 -0.3583
11316SOL     OW35621   6.517   2.194   3.802 -0.6892  0.3273  0.0860
11316SOL    HW135622   6.517   2.099   3.791 -1.8120  0.2821  0.3738
11316SOL    HW235623   6.426   2.220   3.794 -0.4843  1.3081  0.6806
11317SOL     OW35624   6.413   5.626   8.519 -0.4069 -0.0004 -0.3546
11317SOL    HW135625   6.479   5.673   8.570 -0.5021  0.2143 -0.4303
11317SOL    HW235626   6.340   5.687   8.510 -0.5878 -0.2098 -0.3376
11318SOL     OW35627   1.734   3.039   3.158  0.2829  0.2880 -0.0914
11318SOL    HW135628   1.781   3.078   3.084 -0.1905 -2.1072 -1.7834
11318SOL    HW235629   1.796   3.045   3.231  2.4073 -0.7468 -1.6862
11319SOL     OW35630   1.396   3.150   7.470 -0.1025 -0.1295  0.3859
11319SOL    HW135631   1.384   3.074   7.528  0.0683  1.2188  2.2705
11319SOL    HW235632   1.310   3.163   7.430 -0.5537 -0.3755  1.2519
11320SOL     OW35633   1.031   7.977   1.626  0.1888 -0.1787  0.7358
11320SOL    HW135634   1.124   7.991   1.611 -0.5218  2.0879 -2.7027
11320SOL    HW235635   1.017   8.000   1.718  2.9938 -0.8032  1.3929
11321SOL     OW35636   0.932   6.650   2.033  0.2618 -0.1635  0.0876
11321SOL    HW135637   0.841   6.665   2.006  0.1192  0.9357  1.0850
11321SOL    HW235638   0.926   6.623   2.125  0.9328 -0.3297  0.0861
11322SOL     OW35639   9.018   3.789   2.569  0.6331 -0.2131 -0.5849
11322SOL    HW135640   9.092   3.769   2.512  1.6058  1.0053  0.2238
11322SOL    HW235641   8.967   3.707   2.570  0.8347 -0.4447 -2.7567
11323SOL     OW35642   5.844   8.645   4.180  0.1588 -0.6247 -0.1052
11323SOL    HW135643   5.809   8.597   4.105 -1.6330  0.5084 -0.0750
11323SOL    HW235644   5.766   8.676   4.226  1.2383  0.3570  1.1196
11324SOL     OW35645   1.115   8.763   5.728  0.3567  0.1437  0.1546
11324SOL    HW135646   1.140   8.706   5.801  0.2043 -0.8332 -0.5410
11324SOL    HW235647   1.037   8.809   5.759 -0.4389 -1.1671  0.1902
11325SOL     OW35648   9.096   2.567   0.976 -0.3848 -0.0939 -0.0065
11325SOL    HW135649   9.116   2.650   0.933  0.7656 -0.9259 -1.1455
11325SOL    HW235650   9.181   2.532   1.003 -0.8034 -1.1122  0.0480
11326SOL     OW35651   6.850   3.014   0.822 -0.1113 -0.8748 -0.3615
11326SOL    HW135652   6.927   3.022   0.879  0.2977 -1.2590 -0.8470
11326SOL    HW235653   6.793   2.953   0.868 -1.7210  1.9707  1.7000
11327SOL     OW35654   8.332   4.026   1.590  0.1651  0.1040  0.4267
11327SOL    HW135655   8.407   4.086   1.579  0.6148 -0.3314  1.0437
11327SOL    HW235656   8.367   3.953   1.641 -0.5077 -0.4530  0.1050
11328SOL     OW35657   5.001   7.761   3.754 -0.1835  0.3306  0.5585
11328SOL    HW135658   5.002   7.831   3.689 -2.0842  1.6976  1.9002
11328SOL    HW235659   5.083   7.714   3.739  0.3183  1.7226 -1.5685
11329SOL     OW35660   5.477   0.310   2.538  0.7622 -0.7734 -0.1349
11329SOL    HW135661   5.497   0.353   2.455  0.8251 -0.3471  0.1023
11329SOL    HW235662   5.496   0.217   2.522  0.9072 -0.6719 -0.5533
11330SOL     OW35663   8.500   2.453   0.098 -0.3916 -0.5702 -0.0876
11330SOL    HW135664   8.428   2.514   0.082 -1.7548 -2.2349 -0.6237
11330SOL    HW235665   8.493   2.432   0.191  0.4186  0.4524  0.2246
11331SOL     OW35666   2.195   1.321   0.851 -0.0663  0.1312 -0.1615
11331SOL    HW135667   2.159   1.244   0.809 -0.9685  1.4684 -1.9314
11331SOL    HW235668   2.140   1.335   0.928 -2.2794  1.0901 -1.8330
11332SOL     OW35669   1.649   0.371   7.122  0.5365 -0.2646  0.0929
11332SOL    HW135670   1.627   0.289   7.079  0.3360 -0.0193 -0.2804
11332SOL    HW235671   1.720   0.349   7.182 -0.4989 -1.0074  1.0864
11333SOL     OW35672   2.423   1.399   2.406  0.1034 -0.2259  0.2194
11333SOL    HW135673   2.354   1.358   2.457  0.2701  0.7329  1.2572
11333SOL    HW235674   2.382   1.421   2.322 -0.2260 -1.6231 -0.0082
11334SOL     OW35675   6.650   5.949   7.679  0.6104  0.2063  0.6255
11334SOL    HW135676   6.729   5.943   7.732 -0.5962 -3.3612  2.3669
11334SOL    HW235677   6.666   5.890   7.605 -0.5974 -1.1817  1.4110
11335SOL     OW35678   2.697   5.610   0.915 -0.2481  0.2444 -0.2986
11335SOL    HW135679   2.653   5.636   0.834 -0.8373 -0.3922 -0.1866
11335SOL    HW235680   2.627   5.575   0.970  0.5349 -1.7774 -0.5143
11336SOL     OW35681   1.594   9.117   3.612 -0.0983  0.0539 -0.7985
11336SOL    HW135682   1.550   9.196   3.583  1.2082  0.5749 -1.4309
11336SOL    HW235683   1.570   9.109   3.705  0.0631  1.4198 -0.6182
11337SOL     OW35684   0.709   6.714   1.031 -0.2353  0.7169 -0.3657
11337SOL    HW135685   0.768   6.699   0.958  1.2089  0.3108  0.8313
11337SOL    HW235686   0.732   6.801   1.064  0.2578  0.2374  0.5874
11338SOL     OW35687   5.225   9.176   8.681 -0.4653  0.4086 -0.2333
11338SOL    HW135688   5.198   9.149   8.769  0.3941 -0.7589 -0.3028
11338SOL    HW235689   5.248   9.094   8.637  1.4045  1.1598 -0.7591
11339SOL     OW35690   2.333   1.592   5.862 -0.6191  0.2431 -0.0333
11339SOL    HW135691   2.260   1.647   5.892 -0.8115  1.0271 -1.8097
11339SOL    HW235692   2.321   1.510   5.910 -1.8472  0.8415  0.7616
11340SOL     OW35693   7.821   6.335   8.317 -0.5613  0.0571  0.4786
11340SOL    HW135694   7.862   6.369   8.397 -0.4115 -0.2194  0.5214
11340SOL    HW235695   7.865   6.381   8.246  1.2981 -1.6911  0.4041
11341SOL     OW35696   1.128   6.376   8.400  0.0770  1.1950  0.1414
11341SOL    HW135697   1.128   6.338   8.312  0.9358  0.2358  0.5379
11341SOL    HW235698   1.062   6.326   8.448  0.1770  1.1786  0.2636
11342SOL     OW35699   7.253   6.096   0.416 -0.0802 -0.5297  0.3885
11342SOL    HW135700   7.243   6.144   0.334  1.5263  1.3168  1.1901
11342SOL    HW235701   7.336   6.049   0.406 -0.2436 -0.8930  0.6938
11343SOL     OW35702   4.498   8.398   6.552  0.0932  0.0253  0.0962
11343SOL    HW135703   4.481   8.471   6.612 -1.1012  0.9536 -1.2939
11343SOL    HW235704   4.570   8.429   6.497 -0.2884  0.1053 -0.3697
11344SOL     OW35705   1.469   6.596   6.562  0.7108  0.0064 -0.3649
11344SOL    HW135706   1.403   6.537   6.526  1.0281 -0.9449  0.5516
11344SOL    HW235707   1.546   6.540   6.576  0.5890  0.2896  1.7843
11345SOL     OW35708   4.588   6.136   4.419  0.3399  0.2652  0.5505
11345SOL    HW135709   4.634   6.091   4.491  0.0436  0.2763  0.7500
11345SOL    HW235710   4.565   6.066   4.358  1.1395  0.3354  0.1573
11346SOL     OW35711   2.831   2.311   8.560 -0.2408 -0.1379 -0.0475
11346SOL    HW135712   2.890   2.319   8.485  0.6522  1.4258  0.7514
11346SOL    HW235713   2.747   2.346   8.529  0.3699  1.3751 -0.1004
11347SOL     OW35714   0.269   0.184   3.314 -0.0896 -0.3495 -0.4755
11347SOL    HW135715   0.249   0.124   3.386 -0.9476 -0.2417 -0.6087
11347SOL    HW235716   0.237   0.269   3.344 -0.3067 -0.2719 -0.9155
11348SOL     OW35717   0.517   9.528   4.870 -0.1226 -0.4989  0.0178
11348SOL    HW135718   0.507   9.459   4.805 -1.7578 -0.8110  0.5378
11348SOL    HW235719   0.601   9.509   4.912  0.8542 -0.4222 -1.7948
11349SOL     OW35720   7.168   9.533   3.595  0.0374  0.2897 -0.7608
11349SOL    HW135721   7.133   9.444   3.590  2.1337 -0.5742 -1.0502
11349SOL    HW235722   7.191   9.546   3.687  0.7987  0.0964 -0.9231
11350SOL     OW35723   6.087   0.727   7.716 -0.1754  0.0409 -0.7250
11350SOL    HW135724   6.126   0.733   7.629  1.7780  0.4721  0.1415
11350SOL    HW235725   6.134   0.657   7.759 -0.1430  0.7746  0.4629
11351SOL     OW35726   5.277   9.624   9.439  0.7409 -0.3115  0.4370
11351SOL    HW135727   5.328   9.647   9.361  0.2503  0.2385  0.2710
11351SOL    HW235728   5.271   9.529   9.436 -3.1588 -0.2096 -2.7769
11352SOL     OW35729   6.503   8.526   3.671 -0.1612 -0.0173 -0.0468
11352SOL    HW135730   6.556   8.570   3.604  2.1626 -0.2028  1.5521
11352SOL    HW235731   6.436   8.478   3.621  1.5543 -0.2793 -2.2639
11353SOL     OW35732   7.556   2.552   5.754  0.3306  0.3592  0.6168
11353SOL    HW135733   7.503   2.506   5.689 -1.4905 -0.4589  2.5643
11353SOL    HW235734   7.560   2.642   5.722 -0.8856  0.0887 -0.3793
11354SOL     OW35735   0.437   1.283   4.457 -0.0759 -0.3355 -0.2659
11354SOL    HW135736   0.530   1.296   4.436 -0.4643 -0.0053 -1.9113
11354SOL    HW235737   0.436   1.203   4.509  1.0663 -0.7071 -0.7742
11355SOL     OW35738   3.285   1.240   1.772  0.0526  0.0577  0.9742
11355SOL    HW135739   3.341   1.241   1.850  0.7393 -0.9893  0.5168
11355SOL    HW235740   3.299   1.153   1.734 -1.4752 -0.0348  0.5482
11356SOL     OW35741   3.255   3.483   3.047 -0.1344 -0.0550  0.0136
11356SOL    HW135742   3.320   3.480   3.117 -0.7844  1.3538  0.7231
11356SOL    HW235743   3.279   3.559   2.995 -1.1522  0.4347  0.2391
11357SOL     OW35744   8.861   8.883   4.246 -0.5267 -0.3584 -0.5078
11357SOL    HW135745   8.850   8.793   4.214 -2.5424 -0.0476 -0.8548
11357SOL    HW235746   8.950   8.886   4.280 -0.8421 -2.8889  0.8028
11358SOL     OW35747   7.180   8.403   8.511 -0.1431  0.0649  0.0767
11358SOL    HW135748   7.223   8.323   8.542 -1.0552 -0.2306  0.6218
11358SOL    HW235749   7.214   8.472   8.569  0.2416 -0.0188 -0.0491
11359SOL     OW35750   2.348   2.818   5.146 -0.1564 -0.1714  0.3889
11359SOL    HW135751   2.423   2.759   5.154  0.6104  0.6453 -0.5059
11359SOL    HW235752   2.384   2.904   5.166 -0.5331  0.4106 -1.3328
11360SOL     OW35753   7.508   8.385   3.068  0.5998 -0.4876  0.3658
11360SOL    HW135754   7.593   8.428   3.054 -0.4293  1.5760 -0.0630
11360SOL    HW235755   7.455   8.451   3.113 -0.3544 -2.2690  2.0210
11361SOL     OW35756   4.820   9.106   6.805 -0.4231  0.2380  0.9557
11361SOL    HW135757   4.820   9.170   6.735 -0.2565 -1.5647 -0.7930
11361SOL    HW235758   4.894   9.048   6.785  0.2124  0.1880  3.1649
11362SOL     OW35759   9.557   9.014   1.869 -0.2053 -0.2553 -0.4482
11362SOL    HW135760   9.474   9.055   1.846 -2.0217 -1.8292  2.6349
11362SOL    HW235761   9.601   9.078   1.925 -0.2704 -0.1917 -0.4701
11363SOL     OW35762   8.960   6.212   3.361 -0.4515  0.0740  0.1307
11363SOL    HW135763   8.903   6.283   3.388 -1.2675 -0.0712 -1.1438
11363SOL    HW235764   9.049   6.248   3.368 -0.7971  0.8747  0.4614
11364SOL     OW35765   4.776   1.308   1.101  0.1649 -0.4204 -0.7972
11364SOL    HW135766   4.836   1.237   1.078  0.4991 -0.9083  1.3456
11364SOL    HW235767   4.749   1.288   1.190 -0.0991  1.9060 -0.2932
11365SOL     OW35768   2.295   1.711   0.139  0.4017  0.2633  0.6180
11365SOL    HW135769   2.369   1.744   0.087 -0.1477  1.1953  0.4059
11365SOL    HW235770   2.233   1.678   0.074  0.6445 -0.5729  0.7988
11366SOL     OW35771   1.401   7.940   4.933 -0.1121 -0.2749 -0.3412
11366SOL    HW135772   1.483   7.987   4.929  1.1747 -2.4214 -2.0026
11366SOL    HW235773   1.400   7.899   5.020  0.5124 -0.1240 -0.2606
11367SOL     OW35774   4.246   7.323   3.840 -0.1492 -0.3939 -0.1632
11367SOL    HW135775   4.302   7.290   3.770 -0.4014 -0.6320 -0.2536
11367SOL    HW235776   4.158   7.327   3.801 -0.4260 -1.2077  0.3521
11368SOL     OW35777   1.570   4.083   5.899 -0.0762  0.3631  0.2912
11368SOL    HW135778   1.506   4.018   5.871  0.1373  0.3168 -0.0927
11368SOL    HW235779   1.566   4.080   5.995 -0.5216  0.2394  0.2716
11369SOL     OW35780   5.762   1.404   5.937  0.3231  0.0212 -0.5286
11369SOL    HW135781   5.682   1.352   5.945 -0.1221  0.8515  0.8623
11369SOL    HW235782   5.816   1.356   5.874 -0.7455 -1.2272 -0.5393
11370SOL     OW35783   6.769   4.119   8.298  0.2986  0.9651  0.5924
11370SOL    HW135784   6.714   4.101   8.374  2.3745  0.5452  2.0739
11370SOL    HW235785   6.852   4.076   8.317  1.5220  2.4212 -1.0605
11371SOL     OW35786   8.199   6.932   7.410 -0.5293 -0.1343  0.2481
11371SOL    HW135787   8.235   6.869   7.473 -0.1183  0.2495  0.4043
11371SOL    HW235788   8.111   6.900   7.391  0.3274 -1.8383 -1.1459
11372SOL     OW35789   7.072   4.496   0.897 -0.2753 -0.0030 -0.1001
11372SOL    HW135790   7.010   4.526   0.965 -2.0195 -0.3108 -1.4786
11372SOL    HW235791   7.141   4.562   0.898 -1.2086  1.0101  0.7135
11373SOL     OW35792   3.660   0.747   4.739 -0.0251  0.1854  0.1562
11373SOL    HW135793   3.697   0.813   4.680  0.0176  0.7211  0.7651
11373SOL    HW235794   3.628   0.678   4.681 -0.2456  0.8304 -0.5055
11374SOL     OW35795   9.438   2.793   5.309  0.6575 -0.1842 -0.0253
11374SOL    HW135796   9.381   2.865   5.281  0.9099 -0.4437 -1.2287
11374SOL    HW235797   9.379   2.718   5.316  0.5447 -0.0593  0.4538
11375SOL     OW35798   7.346   5.518   5.756  0.1225 -0.4372 -0.2525
11375SOL    HW135799   7.263   5.498   5.799  1.2778 -3.0263  0.9767
11375SOL    HW235800   7.391   5.577   5.817  0.6519 -1.9832  0.9147
11376SOL     OW35801   6.666   6.007   9.468 -0.5729  0.2279 -0.0879
11376SOL    HW135802   6.709   6.077   9.419  0.6396 -1.8360 -2.1711
11376SOL    HW235803   6.698   6.017   9.558  0.7393  1.4292 -0.6584
11377SOL     OW35804   3.763   0.008   0.857  0.3818 -0.0053 -0.0746
11377SOL    HW135805   3.695  -0.058   0.842 -0.1191  0.1849  1.1900
11377SOL    HW235806   3.717   0.092   0.848 -0.0654  0.1329  2.5776
11378SOL     OW35807   0.421   5.104   0.613 -0.3760 -0.2666 -0.0334
11378SOL    HW135808   0.464   5.127   0.530  0.9638  0.6201  0.8638
11378SOL    HW235809   0.391   5.188   0.648 -0.1853 -0.5249  0.7615
11379SOL     OW35810   8.576   3.035   9.467 -0.4491  0.1841 -0.1457
11379SOL    HW135811   8.532   2.958   9.430 -2.4112  1.0352  0.3225
11379SOL    HW235812   8.515   3.107   9.453  1.9995  2.0639 -2.0295
11380SOL     OW35813   4.593   5.579   8.150  0.3842 -0.1813 -0.1075
11380SOL    HW135814   4.523   5.515   8.144 -0.5549  0.8411 -0.2712
11380SOL    HW235815   4.625   5.590   8.060 -1.2917  1.5500 -0.5497
11381SOL     OW35816   7.695   8.860   0.746  0.0452  0.0389 -0.3193
11381SOL    HW135817   7.670   8.872   0.837  0.4372 -2.6538  0.2299
11381SOL    HW235818   7.652   8.932   0.699 -3.8607 -0.9271  1.3595
11382SOL     OW35819   9.632   0.257   5.687  0.1216 -0.0906  0.3335
11382SOL    HW135820   9.665   0.332   5.637 -1.9761  0.5045 -0.2574
11382SOL    HW235821   9.555   0.292   5.734 -0.1240 -1.5605  1.0862
11383SOL     OW35822   6.045   4.382   4.327 -0.1109  0.5380  0.0428
11383SOL    HW135823   6.000   4.331   4.259 -0.3012  1.0577 -0.2344
11383SOL    HW235824   5.981   4.448   4.353  0.5817  1.4994 -0.5927
11384SOL     OW35825   2.479   1.985   1.135 -0.0169 -0.6305  0.6906
11384SOL    HW135826   2.504   2.030   1.216  2.1074 -1.1572  0.3883
11384SOL    HW235827   2.486   2.052   1.067  0.6594 -0.7820  0.6034
11385SOL     OW35828   6.964   9.305   6.399 -0.5138  0.2864 -0.0862
11385SOL    HW135829   6.981   9.216   6.368 -1.3912  0.6258 -1.6715
11385SOL    HW235830   6.948   9.295   6.493 -0.4676 -1.2039 -0.2099
11386SOL     OW35831   3.993   1.195   8.980 -0.4647 -0.0026  0.9645
11386SOL    HW135832   3.982   1.102   8.962 -1.7392  0.1249  1.0389
11386SOL    HW235833   3.957   1.239   8.904  1.2338  0.4379  0.3753
11387SOL     OW35834   8.654   6.106   4.858  0.1658  0.4945  0.2004
11387SOL    HW135835   8.564   6.132   4.878 -0.2129 -0.0847 -0.6966
11387SOL    HW235836   8.649   6.012   4.842  0.9976  0.3925  0.4720
11388SOL     OW35837   1.144   7.924   5.166  0.8594 -0.0956  0.5451
11388SOL    HW135838   1.101   7.983   5.104 -1.0732 -0.8411  1.1014
11388SOL    HW235839   1.128   7.836   5.131 -1.6010 -0.6607  2.7416
11389SOL     OW35840   8.641   8.232   1.388 -0.2921  0.5633  0.1525
11389SOL    HW135841   8.588   8.295   1.437 -0.3539 -0.1416  1.0067
11389SOL    HW235842   8.591   8.216   1.308 -1.7642 -0.6338  1.2499
11390SOL     OW35843   3.488   4.702   8.183  0.8913  0.3977 -0.3940
11390SOL    HW135844   3.469   4.794   8.164 -0.2958 -0.1360 -1.9274
11390SOL    HW235845   3.549   4.675   8.114  0.0516 -0.3590 -0.8561
11391SOL     OW35846   1.201   9.252   1.802  0.1656  0.1718 -0.0026
11391SOL    HW135847   1.234   9.230   1.889 -1.9320 -0.5267  0.6822
11391SOL    HW235848   1.160   9.171   1.771 -2.6857  1.4663  0.1362
11392SOL     OW35849   1.746   9.620   2.705  0.2498  0.1694 -0.3877
11392SOL    HW135850   1.758   9.594   2.614 -1.5889  2.6152 -1.4494
11392SOL    HW235851   1.654   9.599   2.724  0.4390  0.2488  0.7134
11393SOL     OW35852   4.769   7.797   5.061  0.0368  0.2332  0.4866
11393SOL    HW135853   4.839   7.787   4.996  0.2374  0.7604  0.6221
11393SOL    HW235854   4.812   7.833   5.138 -0.4887  1.1680  0.3576
11394SOL     OW35855   2.868   6.477   7.799 -0.2486 -0.1891 -0.2574
11394SOL    HW135856   2.801   6.409   7.805 -0.7250  0.3264  0.4391
11394SOL    HW235857   2.884   6.488   7.705  0.3510 -1.7542 -0.3583
11395SOL     OW35858   8.256   9.182   7.771 -0.2249 -0.3043  0.0723
11395SOL    HW135859   8.331   9.236   7.797  1.8064 -2.5111 -0.9412
11395SOL    HW235860   8.204   9.240   7.715  1.6756  0.7478 -0.6987
11396SOL     OW35861   7.168   6.177   0.689 -0.7548  0.0643 -0.3907
11396SOL    HW135862   7.079   6.199   0.714  0.1656  2.4465  1.1588
11396SOL    HW235863   7.161   6.149   0.598 -3.2876 -1.6848  0.2559
11397SOL     OW35864   4.146   3.297   1.353  0.0255 -0.2303  0.2099
11397SOL    HW135865   4.242   3.298   1.350  0.0047  0.5031 -0.9907
11397SOL    HW235866   4.123   3.373   1.405  0.0943  0.4897 -0.7766
11398SOL     OW35867   6.839   6.415   6.783 -0.1328  0.0283 -0.2833
11398SOL    HW135868   6.773   6.484   6.769 -0.1399  0.2509  0.7838
11398SOL    HW235869   6.890   6.415   6.702 -1.1049  0.2213 -0.9193
11399SOL     OW35870   7.187   1.312   1.136 -0.2234 -0.5063  0.1120
11399SOL    HW135871   7.245   1.346   1.068  1.1427 -2.1790  0.3718
11399SOL    HW235872   7.167   1.388   1.190  0.8585  0.3254 -0.6075
11400SOL     OW35873   9.447   2.195   3.287 -0.1055  0.4668 -0.3678
11400SOL    HW135874   9.492   2.186   3.202  2.0401  0.0528  0.7366
11400SOL    HW235875   9.500   2.260   3.334 -1.5849  1.0950  0.4848
11401SOL     OW35876   7.362   2.686   1.127  0.2090 -0.0155  0.0759
11401SOL    HW135877   7.402   2.608   1.087 -0.7441  0.5636 -2.1778
11401SOL    HW235878   7.270   2.680   1.103  0.2236  2.1012 -0.7273
11402SOL     OW35879   7.228   2.703   0.776 -0.0554  0.6086  0.2836
11402SOL    HW135880   7.198   2.684   0.865 -0.0461 -0.6591  0.0429
11402SOL    HW235881   7.292   2.635   0.758  2.7435  2.9770  0.6092
11403SOL     OW35882   6.780   6.018   3.180 -0.4197  0.0061  0.0940
11403SOL    HW135883   6.735   6.020   3.096 -0.5087 -0.9481  0.1107
11403SOL    HW235884   6.852   5.956   3.167 -1.8138 -1.9616  1.3832
11404SOL     OW35885   5.797   5.804   2.890  0.2197  0.0742  0.1391
11404SOL    HW135886   5.891   5.815   2.876  0.6580 -1.9651  1.1902
11404SOL    HW235887   5.789   5.783   2.983 -0.9948 -2.2107 -0.4040
11405SOL     OW35888   6.648   5.745   4.951 -0.1742 -0.0736 -0.2442
11405SOL    HW135889   6.693   5.663   4.971  0.5258  0.5023  0.6040
11405SOL    HW235890   6.587   5.722   4.881  0.0553 -1.3006 -0.0636
11406SOL     OW35891   7.970   3.039   7.565 -0.0451  0.0367  0.2657
11406SOL    HW135892   7.974   3.131   7.538 -0.1006 -0.1484 -0.3760
11406SOL    HW235893   8.023   3.036   7.645 -0.3383  0.6968  0.4975
11407SOL     OW35894   0.594   5.296   6.788 -0.2250  0.1323 -0.1207
11407SOL    HW135895   0.603   5.217   6.841  0.0991 -0.2614 -0.7493
11407SOL    HW235896   0.654   5.359   6.828 -1.4330  0.5195  1.1763
11408SOL     OW35897   8.154   9.439   2.920 -0.3632 -0.2108 -0.4608
11408SOL    HW135898   8.105   9.484   2.851 -2.3475 -0.5472  0.6582
11408SOL    HW235899   8.109   9.463   3.001  2.9180  1.6145  1.0412
11409SOL     OW35900   5.743   5.601   8.070  0.0868  0.2121 -0.5673
11409SOL    HW135901   5.762   5.544   7.995 -0.5299 -1.5884  0.5642
11409SOL    HW235902   5.693   5.545   8.129 -0.3512  1.9128  0.7237
11410SOL     OW35903   4.863   3.518   1.808 -0.5802 -0.2263 -0.2053
11410SOL    HW135904   4.779   3.565   1.805  0.2462  1.2819 -0.8294
11410SOL    HW235905   4.929   3.586   1.794  0.6497 -1.6587 -1.8043
11411SOL     OW35906   2.633   2.391   4.007 -0.4921  0.4745 -0.3468
11411SOL    HW135907   2.552   2.417   3.962 -0.4831  1.0876 -0.0187
11411SOL    HW235908   2.626   2.296   4.015 -0.8363  0.4371 -0.9795
11412SOL     OW35909   3.222   6.683   0.273  0.1582  0.6104  0.9719
11412SOL    HW135910   3.223   6.594   0.236  0.2000  1.4087 -1.0964
11412SOL    HW235911   3.309   6.717   0.255  0.0141  1.2036  1.3976
11413SOL     OW35912   3.692   5.756   2.953 -0.3105  0.8684 -0.1291
11413SOL    HW135913   3.657   5.818   2.889 -0.1337  1.5018  0.3890
11413SOL    HW235914   3.736   5.689   2.900 -0.9672  0.8872 -0.7130
11414SOL     OW35915   0.810   8.843   7.626  0.1317 -0.5225 -0.4571
11414SOL    HW135916   0.845   8.932   7.627  1.2029 -0.8845 -1.6311
11414SOL    HW235917   0.853   8.802   7.551  0.5234 -2.3639  0.7034
11415SOL     OW35918   7.011   0.396   4.858  0.0026  0.6318  0.2801
11415SOL    HW135919   7.082   0.335   4.840 -1.5294 -0.9465 -0.7800
11415SOL    HW235920   7.017   0.463   4.790  1.3971  1.4257  1.1526
11416SOL     OW35921   4.098   1.378   0.984  0.1619  0.3137 -0.0048
11416SOL    HW135922   4.164   1.315   1.013  0.1566  0.5942  0.6189
11416SOL    HW235923   4.030   1.375   1.051  0.1102  0.9077 -0.0284
11417SOL     OW35924   4.177   4.127   7.768  0.6291 -0.0460 -0.0415
11417SOL    HW135925   4.217   4.070   7.834  3.4729 -0.2508 -1.8189
11417SOL    HW235926   4.211   4.214   7.787  1.3080 -0.0716 -1.0939
11418SOL     OW35927   9.393   7.734   5.744  0.2929 -0.2688 -0.2655
11418SOL    HW135928   9.403   7.822   5.709 -0.5583 -0.2516 -0.4966
11418SOL    HW235929   9.309   7.737   5.792  1.0872 -0.4722  1.2090
11419SOL     OW35930   0.851   9.441   3.589 -0.5549  0.3733 -0.1263
11419SOL    HW135931   0.939   9.426   3.556 -0.4020 -1.0349  0.8152
11419SOL    HW235932   0.794   9.399   3.525 -0.7432  2.8578 -1.7226
11420SOL     OW35933   5.957   9.306   8.119  0.4174  0.5546  0.0688
11420SOL    HW135934   6.015   9.232   8.101  0.5581  0.5544  0.5159
11420SOL    HW235935   5.982   9.372   8.054  0.8269  0.5060  0.1729
11421SOL     OW35936   3.666   5.924   3.990  0.0766 -0.2576  0.0162
11421SOL    HW135937   3.663   5.829   3.978 -1.9284 -0.1822 -0.5273
11421SOL    HW235938   3.750   5.940   4.032  0.8439 -2.1782 -0.6349
11422SOL     OW35939   5.271   3.039   5.005  0.6127  0.4368 -0.1782
11422SOL    HW135940   5.338   3.076   5.063  0.1557  2.5223 -0.9140
11422SOL    HW235941   5.320   2.998   4.934  1.1461 -1.0873  1.0053
11423SOL     OW35942   5.374   2.772   7.738  1.1589 -0.3049  0.3625
11423SOL    HW135943   5.371   2.827   7.659  1.7131  0.1847  0.6744
11423SOL    HW235944   5.286   2.734   7.744  1.2943 -0.8410 -0.8351
11424SOL     OW35945   5.611   0.851   0.462  0.1510 -0.0459  0.3732
11424SOL    HW135946   5.520   0.867   0.486  0.3379  0.5332  0.7242
11424SOL    HW235947   5.657   0.930   0.490  0.8573 -0.5656  0.6932
11425SOL     OW35948   9.038   8.814   2.093 -0.4352 -0.3478  0.2550
11425SOL    HW135949   9.035   8.726   2.130  0.0574 -0.3299  0.3483
11425SOL    HW235950   8.948   8.833   2.069 -0.4675 -1.1005 -0.2724
11426SOL     OW35951   6.506   0.822   9.076  0.1982  0.1472  0.0608
11426SOL    HW135952   6.541   0.733   9.077  0.8794  0.4129  0.2417
11426SOL    HW235953   6.500   0.847   9.168  1.2261  0.7532 -0.0278
11427SOL     OW35954   1.066   6.104   1.368  0.5252 -0.0830  0.4171
11427SOL    HW135955   1.101   6.040   1.305 -0.9857  1.0626 -1.7295
11427SOL    HW235956   1.024   6.051   1.435  3.2345 -1.3940  1.2237
11428SOL     OW35957   0.274   4.151   8.947  0.1421  0.1523 -0.2056
11428SOL    HW135958   0.247   4.097   8.872  0.8000 -0.5054  0.0186
11428SOL    HW235959   0.207   4.218   8.953  0.0381  0.1726 -1.3433
11429SOL     OW35960   7.089   1.819   7.251  0.5756  0.3611  0.2719
11429SOL    HW135961   7.138   1.842   7.171  0.5903 -0.2864  0.0891
11429SOL    HW235962   7.125   1.734   7.277  0.4038  0.4604  0.8348
11430SOL     OW35963   3.556   0.896   8.638  0.5300  0.3475 -0.3944
11430SOL    HW135964   3.491   0.940   8.693  0.0462  1.1402 -1.5605
11430SOL    HW235965   3.507   0.867   8.562  1.5254  0.9455 -1.2881
11431SOL     OW35966   3.548   1.978   0.194  0.2619  0.4284 -1.0260
11431SOL    HW135967   3.459   1.981   0.161 -0.0153 -0.0477 -0.3333
11431SOL    HW235968   3.583   1.894   0.164 -0.3165 -0.4645  0.6525
11432SOL     OW35969   1.386   8.827   5.414  0.1725 -0.2818 -0.4673
11432SOL    HW135970   1.316   8.763   5.430  1.3580 -1.3723  0.5406
11432SOL    HW235971   1.417   8.808   5.326  1.1367 -1.7637  0.1537
11433SOL     OW35972   4.949   1.656   1.390 -0.0015 -0.7327 -0.2542
11433SOL    HW135973   4.896   1.734   1.372  1.0534 -0.5822 -3.4389
11433SOL    HW235974   4.902   1.610   1.459 -1.2354  2.1484  1.0087
11434SOL     OW35975   3.846   5.917   5.746  0.1598  0.0856  0.0996
11434SOL    HW135976   3.869   5.993   5.800 -1.1232  0.1801  0.5556
11434SOL    HW235977   3.879   5.842   5.795  1.2671  0.3229 -0.2603
11435SOL     OW35978   9.564   6.072   8.034  0.1393 -0.0622 -0.2200
11435SOL    HW135979   9.531   6.161   8.051 -0.9027 -0.9450  3.0966
11435SOL    HW235980   9.503   6.036   7.969  0.1626  1.3864 -1.0884
11436SOL     OW35981   8.176   5.715   1.382 -0.6000 -0.0480  0.1597
11436SOL    HW135982   8.119   5.653   1.427 -1.3617  0.5607  0.0384
11436SOL    HW235983   8.125   5.796   1.377  0.8464  1.0173  1.4977
11437SOL     OW35984   8.595   3.902   8.908 -0.2579  0.7324  0.4316
11437SOL    HW135985   8.563   3.992   8.919 -0.7821  0.5035  0.8057
11437SOL    HW235986   8.559   3.854   8.982 -1.0783 -0.0955 -0.4796
11438SOL     OW35987   5.492   7.215   1.960 -0.4446 -0.3729  0.0980
11438SOL    HW135988   5.488   7.302   2.000 -1.7754 -1.2822  2.1711
11438SOL    HW235989   5.404   7.178   1.975 -0.3905 -1.5457 -2.0532
11439SOL     OW35990   0.618   0.418   0.459  0.0834 -0.3024 -0.2319
11439SOL    HW135991   0.566   0.443   0.535  0.7298  2.5071 -0.6146
11439SOL    HW235992   0.625   0.498   0.407  1.7686 -1.5058 -1.9986
11440SOL     OW35993   7.876   6.829   6.231 -0.2974 -0.1045 -0.1728
11440SOL    HW135994   7.876   6.915   6.189 -1.6453 -0.4595 -0.9550
11440SOL    HW235995   7.786   6.799   6.224 -0.6412 -0.1852  3.0287
11441SOL     OW35996   3.439   1.902   2.087  0.2309  0.4510 -0.0235
11441SOL    HW135997   3.367   1.960   2.112 -0.0718 -0.2905  0.9044
11441SOL    HW235998   3.500   1.958   2.039 -0.9208  1.1098 -0.7483
11442SOL     OW35999   6.064   7.774   7.823  0.7452 -0.2296 -0.2776
11442SOL    HW136000   5.984   7.768   7.874  0.5154 -2.9381 -0.8410
11442SOL    HW236001   6.128   7.816   7.882 -0.8645  1.4935  0.3490
11443SOL     OW36002   7.745   6.753   3.666 -0.1079  0.0532 -0.1070
11443SOL    HW136003   7.696   6.788   3.740 -1.5556 -1.6839 -0.1764
11443SOL    HW236004   7.783   6.671   3.699  0.9632  0.2957 -0.6953
11444SOL     OW36005   5.341   7.039   8.033 -0.0558  0.3096  0.2053
11444SOL    HW136006   5.402   6.973   8.066  1.0976  0.3390 -1.7108
11444SOL    HW236007   5.392   7.120   8.032 -0.9854  0.9206  1.0913
11445SOL     OW36008   8.500   3.915   6.605  0.2868 -0.1346 -0.5757
11445SOL    HW136009   8.501   3.869   6.689 -1.7444  0.4683 -0.1700
11445SOL    HW236010   8.585   3.894   6.566  1.0313 -0.9443  1.3302
11446SOL     OW36011   6.770   6.178   1.206 -0.0855  0.5893  0.1494
11446SOL    HW136012   6.859   6.152   1.180 -0.6009 -1.8463  0.5191
11446SOL    HW236013   6.783   6.248   1.270  1.4008  2.4082 -1.9974
11447SOL     OW36014   1.888   6.570   1.361  0.3372 -0.6331  0.0814
11447SOL    HW136015   1.815   6.621   1.396 -0.1177 -1.7731  0.8793
11447SOL    HW236016   1.927   6.528   1.437  0.5654 -1.6178 -0.5574
11448SOL     OW36017   8.709   3.254   9.676  0.1843  0.1074  0.0485
11448SOL    HW136018   8.698   3.164   9.647  0.2514 -0.1714  0.8604
11448SOL    HW236019   8.791   3.282   9.636  0.0723 -0.1218 -0.3565
11449SOL     OW36020   1.922   5.814   4.450 -0.5690 -0.1499 -0.8259
11449SOL    HW136021   2.012   5.831   4.478  0.0106 -1.6110 -1.6982
11449SOL    HW236022   1.908   5.872   4.375 -0.8024  0.9602  0.0438
11450SOL     OW36023   3.035   0.978   4.994  0.4528 -0.4450 -0.2025
11450SOL    HW136024   2.986   0.973   4.912  0.9742 -1.5794 -0.4646
11450SOL    HW236025   3.127   0.976   4.968  0.6290 -0.1820  0.3784
11451SOL     OW36026   4.680   4.443   4.189  0.2723  0.3673  0.2771
11451SOL    HW136027   4.655   4.419   4.278  3.1843  0.1555  1.1608
11451SOL    HW236028   4.670   4.363   4.138 -0.9318  0.3576  0.5093
11452SOL     OW36029   6.703   2.802   1.011  0.3888 -0.0670 -0.1172
11452SOL    HW136030   6.783   2.791   1.063  1.8318  2.8498 -1.4854
11452SOL    HW236031   6.640   2.840   1.072  1.8958  2.8404 -0.2049
11453SOL     OW36032   7.006   4.294   2.638  0.5790 -0.0047 -0.1115
11453SOL    HW136033   6.940   4.276   2.705 -0.2014  0.0715 -0.8466
11453SOL    HW236034   7.059   4.366   2.675  0.8697 -0.7045  0.8874
11454SOL     OW36035   0.128   2.709   0.589  0.4683  0.1374 -0.2185
11454SOL    HW136036   0.086   2.748   0.512  0.4630  0.5712  0.0009
11454SOL    HW236037   0.080   2.628   0.604  1.3950 -0.7011 -1.5408
11455SOL     OW36038   4.863   5.830   9.525 -0.2742  0.0188  0.0736
11455SOL    HW136039   4.802   5.827   9.598  2.7853 -0.3077  2.8505
11455SOL    HW236040   4.811   5.804   9.449 -2.8972 -3.2004  2.6696
11456SOL     OW36041   4.086   3.493   3.514  0.0816  0.5665  0.9320
11456SOL    HW136042   4.032   3.523   3.441 -0.8680  0.9313  1.7506
11456SOL    HW236043   4.171   3.535   3.501  0.8220 -1.4573 -1.3865
11457SOL     OW36044   1.387   8.242   6.967  0.3798 -0.0649  0.2895
11457SOL    HW136045   1.339   8.200   7.038  0.2021  1.2666  0.9810
11457SOL    HW236046   1.463   8.185   6.953 -0.2220 -0.9922  0.7038
11458SOL     OW36047   0.360   3.468   7.755 -0.1659  0.2226 -0.4341
11458SOL    HW136048   0.419   3.524   7.704 -0.6673  0.3625 -0.8686
11458SOL    HW236049   0.303   3.529   7.802  1.4886  0.1751  1.8309
11459SOL     OW36050   0.476   5.789   0.668  1.0480  0.3227  0.1036
11459SOL    HW136051   0.386   5.763   0.685  0.5638  1.6693 -0.3338
11459SOL    HW236052   0.477   5.813   0.576  1.3585  2.2320  0.5758
11460SOL     OW36053   0.263   5.639   4.324  0.2257 -0.4178 -0.9238
11460SOL    HW136054   0.231   5.714   4.274  0.4884 -0.4118 -1.0815
11460SOL    HW236055   0.289   5.575   4.258  1.2782 -0.1199 -0.8067
11461SOL     OW36056   5.058   3.846   2.700 -0.6481 -0.0101  0.3710
11461SOL    HW136057   5.036   3.935   2.725 -2.2695  0.1824 -1.4926
11461SOL    HW236058   5.010   3.791   2.762 -1.1412  0.4333  0.3928
11462SOL     OW36059   3.092   9.170   4.272  0.0503 -0.2585  0.9814
11462SOL    HW136060   3.007   9.198   4.240  0.1455 -1.1575 -0.1191
11462SOL    HW236061   3.145   9.249   4.271 -0.8093  0.3538  1.8745
11463SOL     OW36062   5.632   1.912   3.746 -0.6687  0.4367  0.2942
11463SOL    HW136063   5.603   1.953   3.665 -0.9194 -0.6248 -0.1703
11463SOL    HW236064   5.591   1.963   3.815 -0.0652  1.6548 -0.2145
11464SOL     OW36065   9.563   3.497   6.592 -0.0623  0.5990  0.0202
11464SOL    HW136066   9.516   3.504   6.676 -0.3867 -1.5161  0.0653
11464SOL    HW236067   9.650   3.464   6.616  0.5197  1.8296 -0.3259
11465SOL     OW36068   1.520   6.141   3.977  0.1844 -0.6509 -0.1621
11465SOL    HW136069   1.543   6.053   3.946 -0.1462  0.0345 -2.5999
11465SOL    HW236070   1.457   6.172   3.913 -0.6384  0.9228  1.3576
11466SOL     OW36071   2.122   2.854   5.370  0.0048 -0.0305 -0.2988
11466SOL    HW136072   2.182   2.817   5.305 -0.3364  0.7120 -1.0548
11466SOL    HW236073   2.167   2.842   5.454  0.7246 -0.4569 -0.7382
11467SOL     OW36074   9.124   7.905   8.812 -0.5937  0.0611  0.1999
11467SOL    HW136075   9.067   7.950   8.874 -1.1291 -1.7147  1.0567
11467SOL    HW236076   9.121   7.813   8.839  1.4405 -0.3217 -0.7072
11468SOL     OW36077   7.831   1.013   0.334  0.3762  0.0517 -0.2756
11468SOL    HW136078   7.875   1.031   0.417  0.6770 -0.1188 -0.3936
11468SOL    HW236079   7.800   1.098   0.304  0.2005  0.1016  0.0487
11469SOL     OW36080   0.862   3.869   3.619 -0.7709 -0.0611 -0.3302
11469SOL    HW136081   0.907   3.906   3.543  0.8144  0.0325  0.6151
11469SOL    HW236082   0.839   3.780   3.591 -0.3354  0.0157 -0.9687
11470SOL     OW36083   2.269   0.359   0.600 -0.1807  0.2435 -0.0940
11470SOL    HW136084   2.325   0.431   0.629  0.0313 -0.4146  1.2191
11470SOL    HW236085   2.275   0.361   0.505 -0.4558  2.1576 -0.1024
11471SOL     OW36086   5.546   6.563   9.408  0.3504 -0.3091  0.1681
11471SOL    HW136087   5.487   6.532   9.340 -0.6874  2.2982 -0.2522
11471SOL    HW236088   5.489   6.583   9.482  0.6898  1.8985 -0.1065
11472SOL     OW36089   8.551   8.250   5.433 -0.1337  0.3975  0.7737
11472SOL    HW136090   8.526   8.327   5.484  3.0762  1.1477  1.4224
11472SOL    HW236091   8.614   8.282   5.370 -0.2889 -1.3967 -0.3765
11473SOL     OW36092   0.513   7.569   1.517 -0.1248  0.0529 -0.1613
11473SOL    HW136093   0.459   7.500   1.480 -0.4483  0.0962  0.2246
11473SOL    HW236094   0.466   7.596   1.596  0.6208 -0.1258  0.3475
11474SOL     OW36095   6.717   6.207   8.973  0.4846  0.6500  0.3470
11474SOL    HW136096   6.632   6.216   9.016  0.5562  0.4709  0.5295
11474SOL    HW236097   6.781   6.219   9.043  0.6727  2.8538 -0.1408
11475SOL     OW36098   9.175   5.252   8.476 -0.3892 -0.3199 -0.1529
11475SOL    HW136099   9.139   5.167   8.448 -0.2356 -0.5141  0.2268
11475SOL    HW236100   9.098   5.307   8.490 -0.5752 -0.8554  1.0408
11476SOL     OW36101   3.533   3.687   4.239 -0.1531  0.1754 -0.1757
11476SOL    HW136102   3.464   3.686   4.306 -1.7961 -1.5851 -1.7656
11476SOL    HW236103   3.572   3.600   4.245  0.9055  0.6266 -0.3555
11477SOL     OW36104   5.086   4.967   1.354  0.0519  0.1140 -0.3162
11477SOL    HW136105   5.101   4.957   1.448 -3.0810  1.0512  0.4212
11477SOL    HW236106   5.074   5.061   1.342  0.3301 -0.0110 -1.6610
11478SOL     OW36107   8.750   8.744   8.487 -0.4237  0.1748  1.0324
11478SOL    HW136108   8.768   8.833   8.457 -0.3396 -0.0414  0.4189
11478SOL    HW236109   8.671   8.719   8.439  0.7398 -0.8410 -0.4450
11479SOL     OW36110   3.927   1.485   7.046 -0.3432 -0.0424  0.2377
11479SOL    HW136111   3.989   1.557   7.060  0.7637 -0.7174 -0.9632
11479SOL    HW236112   3.859   1.523   6.990 -0.6046  0.4955  0.9153
11480SOL     OW36113   6.416   3.557   8.353  0.1811  0.6286 -0.2303
11480SOL    HW136114   6.468   3.637   8.356  1.0432  0.0634  0.2240
11480SOL    HW236115   6.406   3.531   8.444  0.5165 -0.1577 -0.4074
11481SOL     OW36116   9.019   8.017   4.940  0.3867 -0.1213 -0.2877
11481SOL    HW136117   8.955   8.041   5.007  1.2419 -0.8201  0.8035
11481SOL    HW236118   8.982   8.052   4.858 -0.7026  0.6840  0.5206
11482SOL     OW36119   4.907   8.405   8.550 -0.3992  0.8073  0.1520
11482SOL    HW136120   4.839   8.373   8.609  0.6649  1.4789  1.7934
11482SOL    HW236121   4.955   8.469   8.602  1.1538  0.7510 -1.1640
11483SOL     OW36122   7.749   9.537   2.185  0.4938  0.1318  0.5677
11483SOL    HW136123   7.765   9.529   2.279 -0.3084  1.4943  0.8497
11483SOL    HW236124   7.784   9.623   2.162  1.0217 -0.3448 -0.4703
11484SOL     OW36125   3.698   5.017   8.041  0.3014  0.1095 -0.3877
11484SOL    HW136126   3.723   5.108   8.056  0.0263  0.0897  0.2239
11484SOL    HW236127   3.776   4.976   8.005  0.6358  0.4342 -0.0458
11485SOL     OW36128   4.621   8.849   5.744 -0.2551 -0.1067  0.6707
11485SOL    HW136129   4.566   8.785   5.790 -1.1024 -0.1053 -0.3008
11485SOL    HW236130   4.559   8.912   5.707  0.3687 -0.2807 -0.7275
11486SOL     OW36131   5.214   5.301   0.612 -0.3276  0.0536  0.3574
11486SOL    HW136132   5.165   5.278   0.533  0.0727  0.2069  0.0561
11486SOL    HW236133   5.172   5.252   0.682  0.5736 -1.7148 -0.2662
11487SOL     OW36134   4.005   5.944   6.332 -0.2633  0.2874  0.6043
11487SOL    HW136135   4.092   5.908   6.350 -0.6199 -1.0005 -0.1274
11487SOL    HW236136   4.012   6.037   6.356  1.4631  0.3317  0.0682
11488SOL     OW36137   8.354   3.696   4.478 -0.4025  0.3058  0.3513
11488SOL    HW136138   8.407   3.617   4.463 -1.6645 -0.4416 -0.3159
11488SOL    HW236139   8.417   3.768   4.476  0.5656 -0.5357 -0.6855
11489SOL     OW36140   4.079   1.626   8.679 -0.0969  0.0176 -0.2306
11489SOL    HW136141   4.071   1.587   8.767  1.7008  0.3159  0.1101
11489SOL    HW236142   4.165   1.666   8.679  0.0134 -0.1282 -2.2207
11490SOL     OW36143   9.055   2.472   3.417 -0.1112  0.4412 -0.2265
11490SOL    HW136144   9.070   2.394   3.470 -0.0684  1.1455  0.8202
11490SOL    HW236145   9.126   2.470   3.352 -0.0584 -0.3356 -0.1554
11491SOL     OW36146   0.135   5.212   4.386 -0.0688 -0.3393 -0.0482
11491SOL    HW136147   0.121   5.300   4.421  0.4094 -0.2774 -0.0028
11491SOL    HW236148   0.047   5.179   4.367 -0.2150  0.4656 -0.8409
11492SOL     OW36149   8.176   0.723   0.847 -0.2033  0.1062 -0.2150
11492SOL    HW136150   8.142   0.774   0.773 -0.2502  1.3311  0.6168
11492SOL    HW236151   8.107   0.659   0.866 -0.5319  0.3005 -0.7390
11493SOL     OW36152   9.398   4.300   0.329 -0.0371 -0.6291 -0.4917
11493SOL    HW136153   9.408   4.297   0.425  0.1316 -1.4376 -0.5316
11493SOL    HW236154   9.303   4.301   0.315 -0.0767  0.8803 -0.2880
11494SOL     OW36155   1.696   6.674   0.233  0.2363 -0.3950 -0.1570
11494SOL    HW136156   1.611   6.710   0.208  0.1527 -0.3147  0.2248
11494SOL    HW236157   1.760   6.724   0.183  0.0314 -0.8346 -0.8748
11495SOL     OW36158   4.581   6.145   6.148 -0.0390  0.3817 -0.5088
11495SOL    HW136159   4.583   6.050   6.161  2.6414  0.2666 -1.1439
11495SOL    HW236160   4.647   6.178   6.208 -0.5956  1.8254 -0.6608
11496SOL     OW36161   8.276   3.785   0.228 -0.9513 -0.0335 -0.0340
11496SOL    HW136162   8.286   3.820   0.317 -0.8324 -0.0581 -0.0384
11496SOL    HW236163   8.202   3.725   0.235 -0.5405 -0.5208  0.1914
11497SOL     OW36164   3.304   2.235   6.379 -0.2785  0.2236  0.2801
11497SOL    HW136165   3.364   2.269   6.313  1.1857  0.4884  1.6725
11497SOL    HW236166   3.313   2.140   6.373 -0.8299  0.2125 -0.4821
11498SOL     OW36167   6.355   0.965   7.857  0.7837  0.1355 -0.6524
11498SOL    HW136168   6.332   1.037   7.799 -0.3115 -0.2698 -0.7387
11498SOL    HW236169   6.395   0.900   7.799  1.8286  0.6804 -0.5647
11499SOL     OW36170   5.730   2.464   1.095 -0.2497  0.0478 -0.6591
11499SOL    HW136171   5.656   2.495   1.146  0.3534 -0.4952  0.5837
11499SOL    HW236172   5.742   2.531   1.027 -0.4940  1.2664  0.4608
11500SOL     OW36173   2.376   5.137   6.673  0.4668 -0.1355  0.6028
11500SOL    HW136174   2.463   5.110   6.703  0.2529 -0.8872  0.5713
11500SOL    HW236175   2.343   5.060   6.626 -0.5980 -0.1854  1.4191
11501SOL     OW36176   1.167   0.264   6.295  0.3139 -0.2391 -0.1440
11501SOL    HW136177   1.112   0.342   6.308 -0.6346 -0.9237  0.0385
11501SOL    HW236178   1.256   0.295   6.312  0.2163  1.3131 -2.0694
11502SOL     OW36179   6.784   5.509   7.575 -0.1915  0.2323 -0.1247
11502SOL    HW136180   6.826   5.428   7.605  1.3003 -0.2397 -3.1064
11502SOL    HW236181   6.692   5.485   7.563  0.2117 -1.0479 -0.8799
11503SOL     OW36182   4.619   2.646   0.150 -0.1627  0.2085  0.2795
11503SOL    HW136183   4.669   2.596   0.085 -0.6328 -0.0048  0.0734
11503SOL    HW236184   4.685   2.686   0.207  0.2485  0.3571 -0.3021
11504SOL     OW36185   5.062   0.798   1.355 -0.3193  0.5507  0.0142
11504SOL    HW136186   5.017   0.787   1.270 -0.6831  1.7583  0.0282
11504SOL    HW236187   5.138   0.741   1.349 -1.0095 -0.3489 -0.6331
11505SOL     OW36188   6.599   1.119   6.811 -0.4604 -0.1608  0.1183
11505SOL    HW136189   6.584   1.209   6.784 -2.6691 -0.2836  0.7313
11505SOL    HW236190   6.665   1.125   6.881 -2.5326  1.3508  2.0765
11506SOL     OW36191   5.868   3.005   1.221 -0.1642 -0.3212  0.2533
11506SOL    HW136192   5.939   2.958   1.266  1.4249  2.3837  0.7563
11506SOL    HW236193   5.912   3.059   1.156 -2.0686 -0.6318 -1.4217
11507SOL     OW36194   5.122   1.769   0.697 -0.4813 -0.0951  0.4593
11507SOL    HW136195   5.039   1.810   0.676 -0.8119 -0.1576  1.5616
11507SOL    HW236196   5.145   1.804   0.784  0.5948 -0.1461  0.2173
11508SOL     OW36197   8.026   0.687   5.984 -0.7637 -0.5915 -0.4333
11508SOL    HW136198   8.039   0.608   5.932  2.0398 -0.5852  0.1340
11508SOL    HW236199   8.099   0.744   5.960 -0.1756 -0.0044  2.4221
11509SOL     OW36200   8.883   3.708   0.569 -0.0241  0.0115 -0.5121
11509SOL    HW136201   8.957   3.749   0.524  1.1643 -1.5235 -0.0390
11509SOL    HW236202   8.829   3.672   0.499 -1.4674  2.8388 -0.9890
11510SOL     OW36203   7.282   3.912   0.325 -0.4575 -0.1486  0.5231
11510SOL    HW136204   7.308   3.985   0.268 -0.7665  2.0191  2.9426
11510SOL    HW236205   7.215   3.865   0.274  2.3104 -1.1050 -2.6062
11511SOL     OW36206   0.734   3.186   2.431  0.5652  0.1721 -0.1882
11511SOL    HW136207   0.783   3.265   2.455 -0.8215  0.4987  1.7728
11511SOL    HW236208   0.763   3.166   2.342  1.2849  2.6186 -0.5687
11512SOL     OW36209   6.782   2.616   4.674  0.1385  0.4462 -0.1639
11512SOL    HW136210   6.768   2.683   4.607 -1.4616  0.0889 -0.2299
11512SOL    HW236211   6.875   2.594   4.667  0.4248  1.7998 -0.9416
11513SOL     OW36212   7.440   8.659   0.057  0.0896 -0.0582  0.2367
11513SOL    HW136213   7.459   8.566   0.047 -0.7274 -0.1934 -0.1368
11513SOL    HW236214   7.525   8.700   0.071  0.6073 -0.7027 -0.8626
11514SOL     OW36215   5.302   4.850   9.419  0.2676  0.0851  0.6926
11514SOL    HW136216   5.385   4.825   9.380  0.1868  0.3655  0.3293
11514SOL    HW236217   5.282   4.936   9.380 -0.5043 -0.2682  0.2892
11515SOL     OW36218   4.526   6.778   2.002  0.3596 -0.5226  0.8754
11515SOL    HW136219   4.502   6.863   1.965  0.9315 -0.6325  0.2398
11515SOL    HW236220   4.442   6.739   2.028 -0.2661 -1.0252 -1.5831
11516SOL     OW36221   0.517   6.182   8.340  0.2386  0.1071 -0.7394
11516SOL    HW136222   0.493   6.120   8.409 -0.2753 -0.7586 -1.6659
11516SOL    HW236223   0.433   6.216   8.309  0.5450  2.3213  0.6507
11517SOL     OW36224   1.578   6.931   7.927 -0.4297 -0.4193 -0.6258
11517SOL    HW136225   1.657   6.975   7.960 -0.0907 -0.3286 -1.5086
11517SOL    HW236226   1.569   6.853   7.982  0.4500 -0.5860 -0.6959
11518SOL     OW36227   6.415   9.613   4.451 -0.5984  0.7789 -0.3210
11518SOL    HW136228   6.362   9.692   4.435  0.0068  0.9037 -1.8888
11518SOL    HW236229   6.489   9.622   4.391  0.9102  0.3173  1.3965
11519SOL     OW36230   2.313   4.898   6.558  0.2591 -0.3762 -0.1007
11519SOL    HW136231   2.313   4.902   6.462  0.9438 -0.6508 -0.1198
11519SOL    HW236232   2.242   4.838   6.579 -0.3107  0.1878 -0.4089
11520SOL     OW36233   6.975   7.421   7.594  0.1170  0.1915  0.0669
11520SOL    HW136234   7.047   7.480   7.573 -0.5755  0.9654 -0.1952
11520SOL    HW236235   6.927   7.411   7.511  1.0426 -1.9338 -0.2779
11521SOL     OW36236   8.250   5.877   3.738 -0.8373 -0.0443 -0.5165
11521SOL    HW136237   8.242   5.783   3.749  0.4817  0.0522  1.8905
11521SOL    HW236238   8.343   5.892   3.723 -1.1190  0.8606 -1.5411
11522SOL     OW36239   8.087   1.370   3.003  0.4070 -0.0878 -0.6827
11522SOL    HW136240   8.135   1.440   2.958 -1.6020  0.1286 -2.6349
11522SOL    HW236241   8.079   1.300   2.938  0.2985 -1.1612  0.4512
11523SOL     OW36242   1.337   6.552   4.450 -0.3871  1.0226  0.8470
11523SOL    HW136243   1.402   6.579   4.384  1.4451  0.3607  2.3148
11523SOL    HW236244   1.342   6.619   4.518  0.1509 -0.0300  1.8731
11524SOL     OW36245   6.663   0.922   5.687 -0.4793 -0.2489 -0.2631
11524SOL    HW136246   6.614   0.999   5.716  0.2916  0.3960 -0.6528
11524SOL    HW236247   6.682   0.939   5.594  0.2759 -0.5951 -0.1786
11525SOL     OW36248   0.598   2.024   0.796 -0.3084 -0.3986 -0.1453
11525SOL    HW136249   0.634   2.016   0.708  0.1448 -0.2275  0.0241
11525SOL    HW236250   0.532   2.094   0.789  0.9393  0.8423  0.0252
11526SOL     OW36251   7.606   0.738   4.674  0.3775  0.5962 -0.1399
11526SOL    HW136252   7.553   0.773   4.603  0.1325  0.6426  0.0687
11526SOL    HW236253   7.593   0.798   4.747  0.6838  0.5870 -0.0738
11527SOL     OW36254   9.373   8.986   5.818  0.4472  0.1031  0.0390
11527SOL    HW136255   9.306   8.930   5.856 -0.7277  0.7327 -1.0402
11527SOL    HW236256   9.439   8.995   5.887 -1.1001  0.3755  1.5424
11528SOL     OW36257   5.074   9.076   0.490 -0.3301 -0.1781  0.0575
11528SOL    HW136258   5.077   9.001   0.550 -1.5019 -0.1360  0.1881
11528SOL    HW236259   4.986   9.073   0.452  0.4755 -0.4113 -1.9503
11529SOL     OW36260   4.070   0.908   2.756 -0.3901 -0.7154 -1.0728
11529SOL    HW136261   4.094   0.864   2.674 -2.3084 -2.6739 -0.6583
11529SOL    HW236262   4.073   0.839   2.822 -1.1688  0.3076  0.0748
11530SOL     OW36263   7.144   7.349   6.333 -0.5427 -0.4226 -0.0528
11530SOL    HW136264   7.225   7.341   6.383  0.6744  0.8355 -1.6879
11530SOL    HW236265   7.163   7.306   6.250 -1.9902 -1.1710 -0.0139
11531SOL     OW36266   8.422   9.616   0.229 -0.0014 -0.0713 -0.0855
11531SOL    HW136267   8.388   9.559   0.160 -0.2786 -0.7722  0.6117
11531SOL    HW236268   8.427   9.703   0.189  0.2139 -0.5363 -1.1011
11532SOL     OW36269   5.037   0.084   4.119  0.2410 -0.1418  0.1991
11532SOL    HW136270   4.988   0.165   4.135  1.1216  0.6385 -0.9500
11532SOL    HW236271   5.123   0.100   4.159  0.3280 -0.6284  0.2143
11533SOL     OW36272   6.578   8.936   0.009 -0.3615  0.1660 -0.8848
11533SOL    HW136273   6.497   8.984  -0.009 -0.5283  0.3678  0.2957
11533SOL    HW236274   6.551   8.866   0.070  0.5746  1.1445  0.7287
11534SOL     OW36275   1.232   9.265   1.376 -0.2284 -0.2520 -0.2318
11534SOL    HW136276   1.280   9.197   1.423 -0.4528  0.1650  0.6124
11534SOL    HW236277   1.230   9.234   1.285  0.4102 -0.9522 -0.0187
11535SOL     OW36278   3.276   7.357   9.227 -0.4100 -0.1861 -0.3752
11535SOL    HW136279   3.289   7.262   9.224 -0.8448 -0.2852  0.4144
11535SOL    HW236280   3.221   7.371   9.305  0.0948  0.7649 -0.1735
11536SOL     OW36281   7.512   3.631   0.649 -0.3476  0.8404  0.6012
11536SOL    HW136282   7.525   3.722   0.676 -0.8129  1.0530  0.1339
11536SOL    HW236283   7.596   3.605   0.612 -0.4179  1.3076  0.1042
11537SOL     OW36284   8.500   4.770   4.624 -0.3998  0.5514  0.1611
11537SOL    HW136285   8.445   4.743   4.550 -1.9719  1.3655  0.9761
11537SOL    HW236286   8.470   4.716   4.697 -1.6351  2.4406  1.1198
11538SOL     OW36287   0.714   9.479   5.754 -0.1759  0.4767  0.3878
11538SOL    HW136288   0.741   9.569   5.774  1.4840  0.2879 -0.7597
11538SOL    HW236289   0.792   9.427   5.771 -1.5413 -1.0082  2.4743
11539SOL     OW36290   8.900   9.071   1.964 -0.4483 -0.3678 -0.2696
11539SOL    HW136291   8.966   9.006   1.938 -1.1574 -1.2483  0.0867
11539SOL    HW236292   8.947   9.127   2.026  0.4508  0.0771 -1.3179
11540SOL     OW36293   3.867   8.175   1.694 -0.6726  0.1617 -0.7550
11540SOL    HW136294   3.890   8.135   1.777 -1.7435  1.2622  0.1072
11540SOL    HW236295   3.884   8.107   1.629 -1.2326 -1.2344  0.5137
11541SOL     OW36296   9.199   6.224   1.544  0.0981  0.1532  0.3803
11541SOL    HW136297   9.280   6.240   1.593  0.9049 -0.0124 -0.8725
11541SOL    HW236298   9.171   6.137   1.574  1.6070 -0.7874 -0.7778
11542SOL     OW36299   5.472   8.147   0.157 -0.0833 -0.5519 -0.4044
11542SOL    HW136300   5.557   8.144   0.200 -1.0089 -2.9086  1.5278
11542SOL    HW236301   5.461   8.060   0.120 -1.1057  0.1505 -1.8251
11543SOL     OW36302   5.069   2.816   1.845  0.0338 -0.3559 -0.1466
11543SOL    HW136303   5.058   2.845   1.754 -0.0163  0.8119  0.2130
11543SOL    HW236304   4.997   2.754   1.859 -0.5082  0.1488 -0.6290
11544SOL     OW36305   4.553   2.229   5.046  0.6933 -0.3145  0.6016
11544SOL    HW136306   4.579   2.294   4.980 -0.7276  0.6077  0.9039
11544SOL    HW236307   4.534   2.281   5.124 -1.8246 -0.8676  0.4613
11545SOL     OW36308   4.660   9.197   3.344  0.4402  0.4111 -0.3259
11545SOL    HW136309   4.753   9.212   3.330  0.4415 -0.4157 -1.2922
11545SOL    HW236310   4.656   9.146   3.425  0.9386 -0.7520 -1.0123
11546SOL     OW36311   5.954   2.400   7.976 -0.5024  0.1496 -0.4637
11546SOL    HW136312   5.908   2.465   7.924  1.0619  0.9647 -0.9041
11546SOL    HW236313   5.885   2.354   8.024 -1.9479 -0.1370 -2.6495
11547SOL     OW36314   4.488   6.984   2.341  0.4089  0.0415 -0.2667
11547SOL    HW136315   4.393   6.988   2.345  0.3761  0.1483 -1.0562
11547SOL    HW236316   4.513   7.056   2.284  0.9169 -0.3898 -0.5998
11548SOL     OW36317   0.197   7.391   4.311  0.1858  0.2457  0.0195
11548SOL    HW136318   0.253   7.469   4.318  0.8385 -0.2715  0.7025
11548SOL    HW236319   0.257   7.320   4.290 -0.5525  0.0998 -1.7425
11549SOL     OW36320   5.200   4.346   2.816  0.5728 -0.3822  0.1893
11549SOL    HW136321   5.234   4.331   2.728  2.1498 -1.9755  0.9991
11549SOL    HW236322   5.225   4.437   2.836  0.0697  0.0425 -1.0229
11550SOL     OW36323   9.278   7.069   2.969  0.2857 -0.6660  0.3285
11550SOL    HW136324   9.257   7.029   2.884  0.6442  0.9383 -0.5532
11550SOL    HW236325   9.263   7.162   2.956 -0.1131 -0.4350  2.2027
11551SOL     OW36326   7.813   0.525   5.129 -0.1423 -0.3349  0.4935
11551SOL    HW136327   7.778   0.513   5.041 -0.2175 -1.9990  0.7218
11551SOL    HW236328   7.846   0.439   5.154 -1.9272 -0.4279  2.8896
11552SOL     OW36329   8.063   3.904   6.099 -0.2271 -0.4655  0.4490
11552SOL    HW136330   8.103   3.884   6.015 -0.5359  2.1896 -0.4166
11552SOL    HW236331   8.121   3.864   6.164  1.3631 -0.4586 -0.9198
11553SOL     OW36332   4.547   9.666   2.330 -0.1381  0.2928  0.4780
11553SOL    HW136333   4.590   9.721   2.264  0.7615 -0.5556  0.3422
11553SOL    HW236334   4.588   9.580   2.321 -0.0224  0.1422  2.1308
11554SOL     OW36335   8.528   6.973   1.597  0.2515  0.1916  0.0477
11554SOL    HW136336   8.516   7.065   1.573  1.4083  0.2575 -0.3603
11554SOL    HW236337   8.603   6.944   1.545  0.5455 -0.6996  0.9305
11555SOL     OW36338   6.764   3.520   2.351 -1.0791 -0.3697  0.1083
11555SOL    HW136339   6.707   3.443   2.344 -0.9566 -0.4165 -0.4079
11555SOL    HW236340   6.848   3.485   2.379 -0.2370 -0.8076 -2.6771
11556SOL     OW36341   9.221   3.317   5.511 -0.1735 -0.5190 -0.0678
11556SOL    HW136342   9.172   3.370   5.573  0.3946 -1.9250  1.6687
11556SOL    HW236343   9.283   3.377   5.471 -0.7085  0.4656  0.5433
11557SOL     OW36344   5.279   6.390   4.648  0.1369  0.1436 -0.2798
11557SOL    HW136345   5.215   6.452   4.683 -0.8130 -0.5465 -0.7493
11557SOL    HW236346   5.325   6.358   4.726 -0.8206 -0.1373  0.1926
11558SOL     OW36347   0.315   0.169   2.459  0.0854 -0.4405 -0.1325
11558SOL    HW136348   0.408   0.188   2.451  0.0871 -0.1924  0.4266
11558SOL    HW236349   0.307   0.077   2.435  0.5991 -0.6912  0.6160
11559SOL     OW36350   8.065   4.763   9.222  0.7094  0.1772  0.3382
11559SOL    HW136351   8.103   4.724   9.301  0.8251  0.4713  0.4287
11559SOL    HW236352   8.141   4.788   9.169  0.6383 -0.9873 -0.3529
11560SOL     OW36353   9.439   0.063   5.802  0.0636  0.4224  0.1251
11560SOL    HW136354   9.390   0.119   5.863 -0.6605  0.3083 -0.3470
11560SOL    HW236355   9.530   0.071   5.831 -0.1686  1.0024  0.7270
11561SOL     OW36356   0.630   5.080   8.752 -0.1724  0.1135 -0.3103
11561SOL    HW136357   0.650   5.122   8.668  1.2362  1.3314  0.5823
11561SOL    HW236358   0.703   5.104   8.809 -1.3710 -0.2080  1.4479
11562SOL     OW36359   3.789   0.121   9.143 -0.1628 -0.5416 -0.1405
11562SOL    HW136360   3.764   0.212   9.162 -1.3362 -0.9966  0.6352
11562SOL    HW236361   3.801   0.118   9.048  0.8208  0.6342 -0.0727
11563SOL     OW36362   1.084   0.408   7.149 -0.5022  0.5951 -0.0982
11563SOL    HW136363   1.080   0.499   7.119  1.3177  0.9291  0.5306
11563SOL    HW236364   1.177   0.387   7.147 -0.8168 -0.9710  0.6268
11564SOL     OW36365   3.354   8.354   2.566 -0.4236 -0.0175 -0.3374
11564SOL    HW136366   3.335   8.447   2.577  0.1432  0.1720 -0.9035
11564SOL    HW236367   3.298   8.327   2.493  0.6471  0.2875 -1.2921
11565SOL     OW36368   3.232   1.166   7.064  0.0223  0.2958  0.2677
11565SOL    HW136369   3.208   1.218   6.987  0.9944  0.9273  0.3851
11565SOL    HW236370   3.148   1.134   7.098 -0.3796 -0.7676 -1.5778
11566SOL     OW36371   4.004   1.040   3.299  0.1908  0.3606 -0.1104
11566SOL    HW136372   4.000   1.112   3.362  0.6673 -0.2531  0.6507
11566SOL    HW236373   3.986   0.962   3.352  3.0623 -0.4606 -0.1781
11567SOL     OW36374   0.986   3.799   4.762 -0.1807  0.0374 -0.3844
11567SOL    HW136375   0.977   3.874   4.821 -0.8058 -0.3277 -0.0075
11567SOL    HW236376   0.897   3.781   4.732  0.0510 -0.1636 -0.9692
11568SOL     OW36377   0.403   8.598   7.299 -0.7283  0.2828 -0.2611
11568SOL    HW136378   0.410   8.514   7.343  1.5400  0.7976  0.4958
11568SOL    HW236379   0.383   8.576   7.208  0.1780 -1.0960 -0.1503
11569SOL     OW36380   6.799   5.071   8.210  0.0267 -0.4780 -0.1543
11569SOL    HW136381   6.809   5.117   8.127  0.2274  0.5514  0.4215
11569SOL    HW236382   6.816   4.979   8.189  0.0603 -0.2364 -1.2445
11570SOL     OW36383   8.233   7.232   4.415 -0.2817  0.7956  0.3389
11570SOL    HW136384   8.259   7.204   4.327 -0.3155  0.3881  0.4580
11570SOL    HW236385   8.279   7.315   4.428  0.6939  0.2654  0.4083
11571SOL     OW36386   9.098   5.152   0.135 -0.0436  0.4285 -0.3646
11571SOL    HW136387   9.070   5.238   0.165  0.9223  0.4809  0.4618
11571SOL    HW236388   9.149   5.116   0.209  1.0819 -0.0976 -1.3566
11572SOL     OW36389   0.320   0.640   3.462  0.1916  0.4378  0.9944
11572SOL    HW136390   0.379   0.606   3.529 -0.1114 -0.8596  0.6250
11572SOL    HW236391   0.328   0.579   3.389  0.8579  2.0646 -0.3657
11573SOL     OW36392   4.765   0.647   1.978 -0.0633  0.2815  0.8446
11573SOL    HW136393   4.722   0.654   2.064  0.9398  1.2394  1.3038
11573SOL    HW236394   4.859   0.644   1.999  0.1494 -0.6461 -0.1827
11574SOL     OW36395   7.812   8.051   5.742 -0.4767  0.2524 -0.4289
11574SOL    HW136396   7.800   8.052   5.837 -0.1295 -1.4293 -0.3448
11574SOL    HW236397   7.905   8.033   5.730 -1.1038 -3.4201 -1.0066
11575SOL     OW36398   8.510   2.350   4.707  0.1931  0.1312  0.2604
11575SOL    HW136399   8.465   2.270   4.737  0.1732  0.1554  0.2949
11575SOL    HW236400   8.591   2.352   4.758  0.6391 -0.3632 -0.4045
11576SOL     OW36401   1.836   3.486   0.629  0.9573  0.2953 -0.2405
11576SOL    HW136402   1.897   3.420   0.661  0.9525 -0.0570 -0.9266
11576SOL    HW236403   1.832   3.552   0.698  1.2278 -0.2535  0.3011
11577SOL     OW36404   0.148   8.810   3.305 -0.1327 -0.5046 -0.0453
11577SOL    HW136405   0.138   8.745   3.375 -1.2818  2.5632  2.9400
11577SOL    HW236406   0.208   8.876   3.342 -0.8334  1.2907 -1.9144
11578SOL     OW36407   0.789   0.690   5.097 -0.0787  0.6454  0.0670
11578SOL    HW136408   0.818   0.609   5.138  0.9871  1.7415  1.5701
11578SOL    HW236409   0.700   0.671   5.066 -0.7300 -0.4354  2.3857
11579SOL     OW36410   0.516   5.301   4.376 -0.1054  0.0074 -0.3387
11579SOL    HW136411   0.461   5.253   4.314 -0.7811  1.1309 -0.6194
11579SOL    HW236412   0.478   5.388   4.380  0.6665  0.3112  0.7389
11580SOL     OW36413   5.223   3.443   1.828 -0.8505  0.1305  0.3762
11580SOL    HW136414   5.186   3.471   1.912 -1.6703 -0.5351  0.2590
11580SOL    HW236415   5.151   3.395   1.786 -0.0323 -0.6932 -0.1194
11581SOL     OW36416   9.183   8.066   9.319 -0.1924 -0.1467  0.5564
11581SOL    HW136417   9.176   8.147   9.269 -0.3453  0.0537  0.8997
11581SOL    HW236418   9.171   8.092   9.410  2.1942 -0.1748  0.9454
11582SOL     OW36419   6.551   2.927   1.495 -0.2038 -0.2886 -0.8374
11582SOL    HW136420   6.552   2.945   1.401 -1.0109  1.7828 -0.5060
11582SOL    HW236421   6.558   3.013   1.536  0.4872 -1.1751  1.0190
11583SOL     OW36422   2.550   5.952   5.279 -0.2923 -0.1983  0.6348
11583SOL    HW136423   2.474   5.924   5.330 -1.2845  2.2833  0.6455
11583SOL    HW236424   2.624   5.943   5.340 -0.4269 -2.9613  0.5179
11584SOL     OW36425   1.833   7.999   6.918  0.0723  0.2488  0.3514
11584SOL    HW136426   1.859   8.067   6.981  0.6808  1.8365 -1.5111
11584SOL    HW236427   1.752   8.033   6.878  1.3322  0.8391 -1.8780
11585SOL     OW36428   3.809   5.924   7.392  0.6909  0.0343  0.3573
11585SOL    HW136429   3.804   5.831   7.412  0.4426  0.1419  0.8143
11585SOL    HW236430   3.719   5.955   7.403  0.7888  0.3405  0.2890
11586SOL     OW36431   4.452   8.712   9.553 -0.4189  0.1295 -0.5244
11586SOL    HW136432   4.484   8.752   9.472 -0.0860  0.0655 -0.4281
11586SOL    HW236433   4.531   8.698   9.605 -0.6510  0.3691 -0.0980
11587SOL     OW36434   5.033   0.764   2.085  0.2436 -0.2299  0.0149
11587SOL    HW136435   5.024   0.857   2.107  1.6766  0.3138 -1.4002
11587SOL    HW236436   5.115   0.760   2.036 -0.9321 -1.8538 -1.9702
11588SOL     OW36437   6.726   6.355   5.986 -0.4439 -0.2656 -0.2760
11588SOL    HW136438   6.666   6.378   5.914  0.4624  0.3320 -0.8598
11588SOL    HW236439   6.715   6.427   6.049 -0.0997  0.0225 -0.5403
11589SOL     OW36440   0.069   8.013   4.454  0.2535 -0.3653 -0.2034
11589SOL    HW136441   0.133   7.967   4.400  1.2672  0.3848  0.3245
11589SOL    HW236442  -0.011   7.961   4.446  0.2831 -0.1821 -2.5765
11590SOL     OW36443   5.162   6.787   5.828  0.3852  0.1281  0.5183
11590SOL    HW136444   5.255   6.791   5.806  0.6392 -0.5359  1.4042
11590SOL    HW236445   5.142   6.875   5.860  1.0176 -0.0592  1.4659
11591SOL     OW36446   0.940   5.391   2.624 -0.1734  0.2806 -0.2033
11591SOL    HW136447   0.864   5.366   2.570  1.3113 -0.9425 -1.8286
11591SOL    HW236448   0.996   5.440   2.565  1.8470 -1.7137 -0.0632
11592SOL     OW36449   9.125   1.198   7.850  0.2426 -0.4305 -0.1518
11592SOL    HW136450   9.170   1.213   7.934 -1.4026  1.9432  0.4031
11592SOL    HW236451   9.122   1.103   7.841  0.3307 -0.7722  2.5778
11593SOL     OW36452   5.172   6.824   2.165 -0.8588  0.3210  0.6160
11593SOL    HW136453   5.241   6.798   2.226  0.4637 -0.2870 -1.0544
11593SOL    HW236454   5.091   6.802   2.210  0.0996 -2.5026  1.1892
11594SOL     OW36455   8.734   2.116   1.220 -0.6310  0.5206 -0.5753
11594SOL    HW136456   8.719   2.034   1.172  3.1274 -0.5948 -0.1528
11594SOL    HW236457   8.647   2.143   1.249 -2.1975 -2.5505 -1.9578
11595SOL     OW36458   8.325   4.149   4.284 -0.5556 -0.1760  0.8262
11595SOL    HW136459   8.239   4.193   4.286 -1.0703 -1.1349  0.3574
11595SOL    HW236460   8.364   4.177   4.202 -0.8580 -0.5430  0.5552
11596SOL     OW36461   8.446   9.577   5.233 -0.3789  0.3885  0.7580
11596SOL    HW136462   8.453   9.497   5.286  0.6174  0.6114  0.9869
11596SOL    HW236463   8.537   9.598   5.211 -0.7216  0.7163 -0.4209
11597SOL     OW36464   4.523   7.961   2.107 -0.0767  0.0277  0.2891
11597SOL    HW136465   4.560   7.878   2.077 -0.2900 -0.4887  1.3883
11597SOL    HW236466   4.597   8.022   2.105  0.2535 -0.3688  0.1568
11598SOL     OW36467   4.099   4.317   8.890 -0.2970  0.3531 -0.0500
11598SOL    HW136468   4.066   4.258   8.822  0.6947 -0.6117  0.2978
11598SOL    HW236469   4.098   4.403   8.848 -1.7636  0.1220 -0.5583
11599SOL     OW36470   5.298   7.934   5.362 -0.1388 -0.4643  0.6120
11599SOL    HW136471   5.326   7.868   5.426 -3.3240 -0.3445  2.3579
11599SOL    HW236472   5.224   7.978   5.405 -0.8920  1.2979 -2.2519
11600SOL     OW36473   1.403   8.741   2.697 -0.0300 -0.0770  0.0785
11600SOL    HW136474   1.400   8.820   2.752 -0.8383 -0.0519  0.0190
11600SOL    HW236475   1.435   8.672   2.755  0.3852  0.2326  0.2176
11601SOL     OW36476   7.377   7.677   7.505  0.7049 -0.7451  0.2903
11601SOL    HW136477   7.352   7.760   7.544  1.2946  0.1031 -1.0506
11601SOL    HW236478   7.366   7.612   7.575  0.1872  0.4457  1.3359
11602SOL     OW36479   2.274   8.601   4.923  0.0282  0.3629  0.2465
11602SOL    HW136480   2.323   8.524   4.895 -0.8426 -0.6086  1.2980
11602SOL    HW236481   2.205   8.567   4.979 -1.4858  1.7494 -0.6725
11603SOL     OW36482   2.899   3.526   5.589 -0.1382  0.0412 -0.2400
11603SOL    HW136483   2.890   3.620   5.602 -1.1191 -0.1669  0.7618
11603SOL    HW236484   2.905   3.489   5.678 -1.7723 -0.9899 -0.5032
11604SOL     OW36485   1.337   1.407   7.076  1.0564  0.1061  0.0363
11604SOL    HW136486   1.277   1.392   7.003  2.0864 -0.5351 -0.7065
11604SOL    HW236487   1.397   1.473   7.044  2.0195 -0.7753 -0.0161
11605SOL     OW36488   8.703   3.168   6.274 -0.0613  0.3416  0.0282
11605SOL    HW136489   8.696   3.204   6.185  0.4110  1.8264  0.5625
11605SOL    HW236490   8.755   3.088   6.263 -1.4233 -0.4185 -1.2507
11606SOL     OW36491   1.289   4.932   6.294 -0.1059  0.2754 -0.4402
11606SOL    HW136492   1.195   4.944   6.282 -0.1791 -0.3256 -0.5274
11606SOL    HW236493   1.302   4.837   6.284  0.1118 -0.0460  2.2335
11607SOL     OW36494   0.982   6.851   1.563  0.3981  0.1828 -0.2339
11607SOL    HW136495   0.981   6.811   1.476  1.0734 -0.2493 -0.0501
11607SOL    HW236496   1.072   6.839   1.594  0.2748  0.7137  0.3510
11608SOL     OW36497   7.022   7.012   8.730  0.5631 -0.0416  0.1235
11608SOL    HW136498   7.103   7.010   8.679  0.4838 -0.5790  0.0048
11608SOL    HW236499   6.963   6.953   8.683  0.5442 -0.6636  0.9088
11609SOL     OW36500   0.831   6.769   7.609  0.1835  0.0106 -0.4330
11609SOL    HW136501   0.808   6.677   7.597  0.0809 -0.4565  2.6607
11609SOL    HW236502   0.926   6.772   7.596  0.0627 -0.3061 -1.4973
11610SOL     OW36503   0.031   9.115   1.675 -0.6542 -0.1993 -0.1370
11610SOL    HW136504  -0.036   9.113   1.605 -0.0691  0.2800 -0.7236
11610SOL    HW236505  -0.008   9.065   1.746 -0.7858 -1.7477 -1.2433
11611SOL     OW36506   7.755   4.230   0.710 -0.2366  0.6025 -0.1437
11611SOL    HW136507   7.808   4.186   0.776  1.1398  1.5812 -0.5529
11611SOL    HW236508   7.798   4.315   0.698 -1.0361  0.8263 -1.5776
11612SOL     OW36509   4.286   9.542   7.136 -0.1844  0.1651  0.2557
11612SOL    HW136510   4.339   9.619   7.158  0.4037 -0.1305 -0.0895
11612SOL    HW236511   4.278   9.546   7.040 -0.4556 -0.0108  0.2715
11613SOL     OW36512   2.786   7.233   6.115 -0.3903  0.3380  0.3160
11613SOL    HW136513   2.793   7.194   6.202 -1.0501  0.3993  0.4010
11613SOL    HW236514   2.820   7.322   6.125  1.1482 -0.1982  0.1138
11614SOL     OW36515   6.464   5.766   0.316 -0.2731 -0.4917  0.6782
11614SOL    HW136516   6.553   5.768   0.281 -0.5307 -2.0865 -0.1963
11614SOL    HW236517   6.418   5.834   0.267  0.2506 -0.2571  0.5022
11615SOL     OW36518   8.997   3.408   3.678 -0.5150 -0.2343  0.0183
11615SOL    HW136519   9.069   3.427   3.618 -0.2821  0.4037  0.5026
11615SOL    HW236520   8.920   3.403   3.621 -0.0245 -1.4349 -0.5711
11616SOL     OW36521   9.340   4.960   8.569  0.4750 -0.1608 -0.6029
11616SOL    HW136522   9.250   4.968   8.602  0.9682 -0.2743  0.8278
11616SOL    HW236523   9.331   4.972   8.474 -0.8948  1.0015 -0.3735
11617SOL     OW36524   2.402   3.210   3.101  0.0415 -0.0868 -0.2412
11617SOL    HW136525   2.362   3.262   3.170 -1.9748  0.1122 -1.4902
11617SOL    HW236526   2.359   3.125   3.107  1.0659 -0.6193 -0.2094
11618SOL     OW36527   2.427   3.298   6.710 -0.0931  0.3512 -0.5451
11618SOL    HW136528   2.334   3.313   6.695 -0.2116 -1.6329 -2.2761
11618SOL    HW236529   2.431   3.247   6.791 -0.7436 -1.2862 -1.4870
11619SOL     OW36530   7.496   9.642   3.995 -0.5332  0.1179  0.2080
11619SOL    HW136531   7.583   9.602   3.999 -0.7520 -0.4084 -0.0698
11619SOL    HW236532   7.511   9.735   4.009  0.1249  0.0929 -0.2914
11620SOL     OW36533   0.555   3.373   3.299 -0.9284  0.0967 -0.2498
11620SOL    HW136534   0.586   3.463   3.299  0.5319 -0.3670 -1.0804
11620SOL    HW236535   0.491   3.369   3.228 -0.7979  0.4230 -0.3845
11621SOL     OW36536   1.484   4.594   2.236 -0.4487 -0.1863 -0.3972
11621SOL    HW136537   1.563   4.561   2.194  0.6363  0.1912  1.2275
11621SOL    HW236538   1.460   4.672   2.185  1.1636  0.6058 -0.0123
11622SOL     OW36539   5.441   7.926   4.301 -0.9119  0.8169 -0.4245
11622SOL    HW136540   5.534   7.943   4.318 -0.3403 -0.5967 -1.7857
11622SOL    HW236541   5.421   7.979   4.223 -0.5934 -0.5620 -1.4774
11623SOL     OW36542   1.314   1.205   8.290  0.4477 -0.6621 -0.9616
11623SOL    HW136543   1.244   1.177   8.231  0.2546  0.5019 -1.3151
11623SOL    HW236544   1.281   1.286   8.329  1.6628 -0.0059 -1.2632
11624SOL     OW36545   1.067   0.361   3.923  0.4718 -0.2273 -0.1109
11624SOL    HW136546   0.995   0.396   3.975  0.9212 -0.2590  0.5493
11624SOL    HW236547   1.124   0.436   3.907  0.0667 -0.1113 -1.0133
11625SOL     OW36548   7.209   9.608   3.168 -0.0941  0.1408 -0.2094
11625SOL    HW136549   7.168   9.679   3.119 -1.5586 -0.3873  0.1994
11625SOL    HW236550   7.140   9.542   3.177  1.7936 -2.4642 -2.6565
11626SOL     OW36551   3.932   4.053   1.184  0.1348  0.4872  0.5260
11626SOL    HW136552   3.946   3.995   1.259 -0.6685  1.2612  1.2944
11626SOL    HW236553   4.002   4.117   1.190  1.8726 -1.1189 -1.1123
11627SOL     OW36554   2.678   7.983   6.640 -0.0679  0.1682  0.8984
11627SOL    HW136555   2.635   7.901   6.664 -1.4968  0.1233 -1.4486
11627SOL    HW236556   2.755   7.955   6.590 -1.5013  0.1470 -1.4387
11628SOL     OW36557   3.337   6.744   9.257 -0.7028  0.2690  0.3264
11628SOL    HW136558   3.349   6.657   9.295  0.4973 -0.0101 -0.6151
11628SOL    HW236559   3.242   6.757   9.255 -0.8531 -0.4133  1.7816
11629SOL     OW36560   5.774   5.709   6.113 -0.8271  0.5090  0.4599
11629SOL    HW136561   5.841   5.683   6.175  0.8179  0.0035 -1.4380
11629SOL    HW236562   5.743   5.627   6.074  1.4897  0.9170 -2.6176
11630SOL     OW36563   5.070   5.260   3.284  0.0094  0.4815  0.5962
11630SOL    HW136564   5.080   5.356   3.287 -2.2790  0.7945 -0.0725
11630SOL    HW236565   4.998   5.242   3.345 -0.6779 -0.6172 -0.5111
11631SOL     OW36566   4.306   4.300   4.594  0.0014  0.6827 -0.2537
11631SOL    HW136567   4.238   4.342   4.647 -0.3676  1.1862 -1.1004
11631SOL    HW236568   4.273   4.212   4.577  0.9364 -0.1484  1.8317
11632SOL     OW36569   7.883   3.796   7.537  0.4798  0.0643 -0.2237
11632SOL    HW136570   7.888   3.733   7.608 -0.5156  0.6936  0.4386
11632SOL    HW236571   7.966   3.843   7.539 -0.0410  0.9846  1.4290
11633SOL     OW36572   1.692   6.560   2.366  0.1048  0.1390  0.2184
11633SOL    HW136573   1.676   6.584   2.275  1.0593 -1.2742 -0.3424
11633SOL    HW236574   1.767   6.614   2.392 -1.6929  2.4499  1.0397
11634SOL     OW36575   5.311   0.083   3.874  0.2089 -0.0859  0.5851
11634SOL    HW136576   5.305   0.178   3.869  2.0577  0.0209 -1.7503
11634SOL    HW236577   5.389   0.067   3.928  0.1910 -0.2386  0.5653
11635SOL     OW36578   0.452   3.934   1.489  0.2905  0.5639  0.0374
11635SOL    HW136579   0.453   3.898   1.401  1.1175  0.5169  0.0573
11635SOL    HW236580   0.408   3.867   1.542  0.8124  0.0710 -0.1349
11636SOL     OW36581   7.805   8.645   8.282  0.0137  0.1841  0.1552
11636SOL    HW136582   7.800   8.551   8.297 -0.2274  0.0062 -0.9026
11636SOL    HW236583   7.714   8.674   8.285 -0.3472 -0.2327 -2.8269
11637SOL     OW36584   0.682   5.863   4.580 -0.3967 -0.3240 -0.1479
11637SOL    HW136585   0.617   5.886   4.646 -0.5136 -0.9963 -0.0171
11637SOL    HW236586   0.631   5.842   4.502 -0.2439  0.7369 -0.5405
11638SOL     OW36587   9.444   3.962   8.878  0.1099 -0.5782 -0.6664
11638SOL    HW136588   9.465   4.046   8.836 -0.2111  0.8650  1.8454
11638SOL    HW236589   9.385   3.918   8.817  2.9593 -0.6076 -3.6672
11639SOL     OW36590   7.869   4.895   0.751  0.1026  0.2760 -0.6597
11639SOL    HW136591   7.897   4.966   0.808  0.7908  0.7656 -1.5861
11639SOL    HW236592   7.928   4.823   0.772 -1.5671 -0.6167  1.4002
11640SOL     OW36593   5.887   2.611   0.194  0.2702  0.1152  0.6282
11640SOL    HW136594   5.928   2.655   0.268  0.4953 -2.4363  2.1122
11640SOL    HW236595   5.793   2.623   0.207  0.3414  1.4863  0.0899
11641SOL     OW36596   7.954   7.425   2.817 -0.2571  0.3279  0.3080
11641SOL    HW136597   7.986   7.384   2.898  2.7996 -0.6193 -1.2526
11641SOL    HW236598   7.961   7.356   2.751 -0.7450  1.6629 -1.1961
11642SOL     OW36599   5.127   7.665   1.077  0.2336 -0.0459 -0.1857
11642SOL    HW136600   5.199   7.658   1.140  0.5476  0.1655 -0.5121
11642SOL    HW236601   5.072   7.589   1.094  0.1668  0.1617  0.5258
11643SOL     OW36602   3.239   1.615   1.434  0.0691 -0.0409 -0.6369
11643SOL    HW136603   3.258   1.533   1.478  2.4301  1.1239  0.7062
11643SOL    HW236604   3.205   1.672   1.504 -0.5590  0.4360 -1.3197
11644SOL     OW36605   4.253   9.391   8.686 -0.0174 -0.5232  0.1854
11644SOL    HW136606   4.335   9.440   8.685  0.2906 -0.9705  1.3912
11644SOL    HW236607   4.270   9.318   8.746 -1.7126  0.1099  1.5246
11645SOL     OW36608   1.228   2.105   3.714 -0.4932  0.7933  0.4761
11645SOL    HW136609   1.302   2.076   3.661  1.2264  2.5329  1.7620
11645SOL    HW236610   1.165   2.141   3.652  0.1529  0.1212 -0.5851
11646SOL     OW36611   0.014   9.503   1.449 -0.4357  0.4504 -0.4161
11646SOL    HW136612   0.071   9.438   1.491 -0.6429  0.3156 -0.3459
11646SOL    HW236613  -0.046   9.531   1.518 -0.4428  0.6087 -0.4863
11647SOL     OW36614   8.892   2.296   1.084  0.2552  0.2820 -0.1560
11647SOL    HW136615   8.966   2.294   1.145 -0.4319  1.0512  0.7196
11647SOL    HW236616   8.821   2.252   1.130  0.4359 -1.4752 -1.4317
11648SOL     OW36617   7.048   4.012   8.859  0.1654 -0.0632  0.0683
11648SOL    HW136618   6.969   3.958   8.866  0.9972 -1.1669  1.4455
11648SOL    HW236619   7.089   3.982   8.777  0.2392 -1.0301  0.4442
11649SOL     OW36620   8.651   2.456   3.847  0.5969  0.1451  0.0756
11649SOL    HW136621   8.741   2.472   3.819  0.3175  2.4898  0.3054
11649SOL    HW236622   8.601   2.448   3.766  0.7189  0.8636 -0.0750
11650SOL     OW36623   7.823   9.561   4.339  0.4242  0.2715  0.0723
11650SOL    HW136624   7.805   9.655   4.339  2.7073  0.7840  1.5319
11650SOL    HW236625   7.753   9.523   4.392 -1.0799  0.9469 -1.3339
11651SOL     OW36626   6.096   7.337   0.203  0.1391 -0.0831  0.0835
11651SOL    HW136627   6.167   7.402   0.201  0.7005 -0.6576  0.6627
11651SOL    HW236628   6.141   7.252   0.197 -0.6404 -0.4200 -1.6942
11652SOL     OW36629   0.922   9.225   9.638  0.1943 -0.8467 -0.5618
11652SOL    HW136630   0.903   9.212   9.731  0.5318  0.7636 -0.2399
11652SOL    HW236631   0.850   9.180   9.593  0.2750 -2.0483  0.4495
11653SOL     OW36632   4.799   3.354   2.552 -0.3013  0.3518 -0.1267
11653SOL    HW136633   4.894   3.357   2.540 -0.4153 -0.3364 -1.3564
11653SOL    HW236634   4.786   3.365   2.646  0.9780  0.7344  0.0185
11654SOL     OW36635   1.315   3.582   4.268  0.0180 -0.4839 -0.3000
11654SOL    HW136636   1.223   3.574   4.291  0.4645 -1.4701  1.3408
11654SOL    HW236637   1.318   3.649   4.200 -1.7729  0.3893  0.4310
11655SOL     OW36638   2.180   5.786   2.793  0.1936  1.0187  0.1399
11655SOL    HW136639   2.160   5.756   2.882 -1.2671  0.7125 -0.2658
11655SOL    HW236640   2.183   5.705   2.741  0.7131  1.2270 -0.1587
11656SOL     OW36641   1.967   8.337   6.529 -0.2049 -0.1604  0.3589
11656SOL    HW136642   1.994   8.328   6.620 -0.3261 -0.8884  0.3322
11656SOL    HW236643   2.036   8.388   6.488 -0.8612  1.4542  1.1733
11657SOL     OW36644   4.980   9.519   8.523  0.0697  0.3617  0.4852
11657SOL    HW136645   4.926   9.443   8.545 -1.0233  0.4608 -1.6039
11657SOL    HW236646   4.926   9.571   8.463  2.3880  0.4805 -1.6957
11658SOL     OW36647   3.833   8.302   6.803  0.6256 -0.3873  0.3511
11658SOL    HW136648   3.868   8.233   6.747 -0.9235 -1.4254  0.6002
11658SOL    HW236649   3.764   8.259   6.854 -0.1973  1.2868  0.7072
11659SOL     OW36650   0.105   5.094   6.679  0.0601  0.1211  1.2881
11659SOL    HW136651   0.137   5.113   6.767  1.2284  0.5636  0.7794
11659SOL    HW236652   0.017   5.059   6.694 -0.5260  1.9371  2.5283
11660SOL     OW36653   2.131   6.250   5.568 -0.0517  0.2639  0.0596
11660SOL    HW136654   2.174   6.179   5.615 -1.9287 -1.1538 -0.2289
11660SOL    HW236655   2.112   6.315   5.635  2.5015  0.9812  0.1764
11661SOL     OW36656   7.982   2.816   8.114  0.1171  0.0897 -0.0157
11661SOL    HW136657   8.065   2.847   8.078  1.2562 -0.7470  1.7537
11661SOL    HW236658   7.932   2.895   8.132  1.0033  0.6723 -0.0800
11662SOL     OW36659   2.180   5.902   0.628  0.0298 -0.1325 -0.2013
11662SOL    HW136660   2.089   5.873   0.642  0.0836 -0.5779 -0.7235
11662SOL    HW236661   2.210   5.931   0.714  0.0315 -1.8352  0.4104
11663SOL     OW36662   0.789   5.670   1.435  0.2066  0.4298  0.2808
11663SOL    HW136663   0.759   5.734   1.499 -2.0854 -0.0378 -0.2343
11663SOL    HW236664   0.712   5.616   1.417  1.2263 -0.4989 -1.6269
11664SOL     OW36665   7.360   2.774   6.269  0.0711 -0.4161  0.0569
11664SOL    HW136666   7.328   2.864   6.272 -1.8407 -1.0299 -0.7490
11664SOL    HW236667   7.440   2.776   6.322 -0.4394  1.5348  0.8540
11665SOL     OW36668   3.161   6.496   0.695 -0.5114 -0.1697  0.0203
11665SOL    HW136669   3.113   6.521   0.773 -1.8932  0.6840 -1.0442
11665SOL    HW236670   3.239   6.552   0.695 -0.4944 -0.1834  0.7619
11666SOL     OW36671   8.135   1.468   2.249  0.1982  0.0991  0.3291
11666SOL    HW136672   8.065   1.517   2.207  0.0956 -0.9183 -0.7306
11666SOL    HW236673   8.207   1.469   2.185 -0.3668 -2.4589 -0.4570
11667SOL     OW36674   1.170   0.792   5.686 -0.0189 -0.0358  0.2886
11667SOL    HW136675   1.253   0.798   5.733  0.7447  0.5465 -1.0664
11667SOL    HW236676   1.178   0.713   5.632 -0.6310 -0.3503  0.6388
11668SOL     OW36677   8.770   8.523   5.966  0.4065 -0.1425 -0.5653
11668SOL    HW136678   8.840   8.513   5.902  1.0659 -2.1508  0.4073
11668SOL    HW236679   8.815   8.551   6.046 -0.1907  0.5507 -0.4555
11669SOL     OW36680   0.854   1.844   6.955 -0.1234 -0.0291  0.1256
11669SOL    HW136681   0.890   1.930   6.980  1.7507 -0.5056 -0.7515
11669SOL    HW236682   0.868   1.839   6.860 -0.5299 -1.1604  0.1114
11670SOL     OW36683   8.549   0.325   2.604 -0.4627  0.2245 -0.1934
11670SOL    HW136684   8.557   0.398   2.543  1.4738 -1.2530 -1.8322
11670SOL    HW236685   8.465   0.284   2.582 -0.1420  0.1749 -1.3335
11671SOL     OW36686   7.219   8.866   8.141  0.5911 -0.8422 -0.1204
11671SOL    HW136687   7.210   8.777   8.108  0.7608 -0.8261 -0.2122
11671SOL    HW236688   7.309   8.891   8.118 -0.3112  0.4091 -2.7070
11672SOL     OW36689   7.157   6.556   5.962 -0.0662  0.1586  0.3788
11672SOL    HW136690   7.120   6.502   6.032 -0.7086 -2.1728 -1.6062
11672SOL    HW236691   7.223   6.499   5.921  0.9362  1.7766 -0.3530
11673SOL     OW36692   2.881   7.080   1.075  0.1994 -0.1575  0.2651
11673SOL    HW136693   2.974   7.071   1.098  0.4245 -1.0685 -0.9408
11673SOL    HW236694   2.854   6.992   1.049 -1.2889 -0.1236  1.5438
11674SOL     OW36695   9.240   3.107   3.249  0.0366  0.4011  0.2322
11674SOL    HW136696   9.216   3.197   3.269 -0.1530  0.4015  0.0109
11674SOL    HW236697   9.169   3.075   3.194 -0.1026 -0.0163  0.6535
11675SOL     OW36698   0.698   9.211   2.089  0.6071  0.1410  0.4254
11675SOL    HW136699   0.766   9.269   2.056 -1.1011  2.6699  0.9985
11675SOL    HW236700   0.666   9.164   2.012  1.1720  0.9211 -0.2978
11676SOL     OW36701   6.857   1.687   9.163 -0.4131  0.2454 -0.2129
11676SOL    HW136702   6.894   1.701   9.075  0.2832 -1.6460 -0.2745
11676SOL    HW236703   6.895   1.604   9.191 -1.3467  0.3711  1.5255
11677SOL     OW36704   4.658   7.644   9.384  0.0150  0.1111 -0.5464
11677SOL    HW136705   4.693   7.559   9.412 -1.6831  0.5086  3.4869
11677SOL    HW236706   4.702   7.708   9.441 -1.1958  1.5108 -1.1366
11678SOL     OW36707   2.288   6.419   3.925 -0.5123 -0.3003  0.7031
11678SOL    HW136708   2.358   6.418   3.990 -0.3932  1.8378  0.6734
11678SOL    HW236709   2.214   6.378   3.970  0.0624 -0.3951  1.5963
11679SOL     OW36710   0.976   6.674   4.797  0.2104  0.1113 -0.0059
11679SOL    HW136711   1.025   6.629   4.866  1.2671  0.1082 -0.7336
11679SOL    HW236712   0.894   6.700   4.839  0.0159 -1.5602  0.7245
11680SOL     OW36713   6.559   2.542   9.661 -0.4143  0.1386 -0.1745
11680SOL    HW136714   6.625   2.608   9.637 -1.2318  0.6979 -0.9592
11680SOL    HW236715   6.478   2.575   9.622 -0.9541 -1.0576 -0.0812
11681SOL     OW36716   1.575   9.480   7.130 -0.0700  0.0438 -0.6053
11681SOL    HW136717   1.577   9.385   7.143 -1.5428  0.0459 -0.0844
11681SOL    HW236718   1.489   9.506   7.163 -0.2506  1.3759 -2.0240
11682SOL     OW36719   1.611   3.738   0.974  0.0481  0.3934  0.0675
11682SOL    HW136720   1.639   3.650   1.000 -3.0062 -0.4695  0.7784
11682SOL    HW236721   1.613   3.789   1.056  1.7267  1.0339 -0.3271
11683SOL     OW36722   4.880   6.141   8.143 -0.5047 -0.6724  0.5502
11683SOL    HW136723   4.831   6.060   8.126  0.4552 -1.3567  0.9186
11683SOL    HW236724   4.875   6.153   8.238 -0.1244 -0.6583  0.5722
11684SOL     OW36725   2.350   0.227   7.529 -0.1756  0.2226 -0.1898
11684SOL    HW136726   2.299   0.247   7.607 -0.0417 -1.6667  0.4444
11684SOL    HW236727   2.428   0.183   7.563 -0.1503 -0.7012 -1.3890
11685SOL     OW36728   2.020   2.364   7.934  0.3700 -0.4516 -0.1251
11685SOL    HW136729   2.056   2.395   7.851 -0.9188  1.3293 -0.0938
11685SOL    HW236730   2.081   2.297   7.964  1.8773  0.2100 -1.5814
11686SOL     OW36731   6.806   8.386   0.968  0.0421  0.0406 -0.1250
11686SOL    HW136732   6.810   8.450   1.039 -0.4157 -0.0655 -0.0026
11686SOL    HW236733   6.717   8.391   0.935  0.1544 -0.1587 -0.4673
11687SOL     OW36734   8.460   9.251   6.626 -1.0452  0.5213  0.3933
11687SOL    HW136735   8.377   9.232   6.582 -1.5295  1.1768  0.9986
11687SOL    HW236736   8.526   9.208   6.572 -1.8780 -0.9786  0.5091
11688SOL     OW36737   6.203   9.310   2.359 -0.1469 -0.2859  0.2050
11688SOL    HW136738   6.125   9.355   2.325  0.1747  1.1014  1.2015
11688SOL    HW236739   6.200   9.223   2.320  0.1145  1.1033 -3.2221
11689SOL     OW36740   3.737   2.735   0.274 -0.0300  0.4842 -0.2403
11689SOL    HW136741   3.659   2.772   0.233 -0.1494  0.6153  0.1040
11689SOL    HW236742   3.767   2.803   0.334 -0.0421  0.1645  0.1294
11690SOL     OW36743   0.443   2.413   0.479 -0.6395 -0.5841  0.1244
11690SOL    HW136744   0.415   2.420   0.387 -1.2035  0.4022  0.3589
11690SOL    HW236745   0.366   2.376   0.524 -0.0630 -1.9046  0.0690
11691SOL     OW36746   4.334   3.139   1.538 -0.2923 -0.4706  0.3507
11691SOL    HW136747   4.339   3.233   1.554 -1.3189 -0.2512 -0.4771
11691SOL    HW236748   4.412   3.103   1.579 -0.3171  0.6344  1.4053
11692SOL     OW36749   8.357   1.642   3.583  0.1241 -0.3316  0.0101
11692SOL    HW136750   8.302   1.617   3.508 -0.1105  0.7625 -0.1931
11692SOL    HW236751   8.446   1.627   3.554  0.0769  0.7942 -0.7791
11693SOL     OW36752   4.459   5.237   0.435  0.1925  0.0795 -0.1063
11693SOL    HW136753   4.552   5.217   0.448  0.0200  0.2882  1.6564
11693SOL    HW236754   4.426   5.253   0.523 -1.5013  0.1204 -0.7272
11694SOL     OW36755   2.527   1.043   7.776  0.0061 -0.0321 -0.7111
11694SOL    HW136756   2.593   1.035   7.846  0.8048  3.4120 -0.8899
11694SOL    HW236757   2.491   0.955   7.768  3.1397 -1.6549  0.8269
11695SOL     OW36758   2.402   7.594   7.344  0.5873 -0.1835  0.1755
11695SOL    HW136759   2.493   7.572   7.363  0.6399 -0.1500 -0.0431
11695SOL    HW236760   2.352   7.518   7.373  0.5632  0.2998  1.4991
11696SOL     OW36761   0.406   8.790   5.824 -0.0413  0.3221  0.6170
11696SOL    HW136762   0.356   8.871   5.819 -1.1633 -0.1484  2.7672
11696SOL    HW236763   0.487   8.814   5.868  0.0930  0.4668  0.2906
11697SOL     OW36764   2.570   3.166   5.483  0.1471 -0.6548 -0.0108
11697SOL    HW136765   2.632   3.234   5.510 -3.2575  2.7422  0.1905
11697SOL    HW236766   2.514   3.154   5.560 -1.2242 -1.3511 -1.0814
11698SOL     OW36767   0.235   5.665   0.471 -0.1911  0.4115 -0.0937
11698SOL    HW136768   0.165   5.718   0.434 -0.4832 -0.0563 -0.2251
11698SOL    HW236769   0.316   5.708   0.443 -0.4180  1.4931  0.8463
11699SOL     OW36770   0.208   7.936   2.451  0.5056 -0.1395  0.5651
11699SOL    HW136771   0.226   7.889   2.370  0.7742 -0.4807  0.8184
11699SOL    HW236772   0.117   7.962   2.444  0.3721 -0.6377  0.3912
11700SOL     OW36773   1.551   2.028   5.813  0.1181 -0.2961  0.4225
11700SOL    HW136774   1.499   2.100   5.778  0.0123 -0.3136  0.5432
11700SOL    HW236775   1.582   2.059   5.898  3.0149  1.0165 -0.9473
11701SOL     OW36776   3.650   4.595   5.636 -0.1929  0.5778  0.3777
11701SOL    HW136777   3.699   4.670   5.671  1.6899  0.2111 -1.2929
11701SOL    HW236778   3.593   4.633   5.569  1.0843  0.5123 -0.7819
11702SOL     OW36779   1.193   2.265   4.468 -0.1806 -0.4240  0.0644
11702SOL    HW136780   1.153   2.222   4.543  1.8634 -1.9698  0.3320
11702SOL    HW236781   1.283   2.282   4.494  0.3326 -0.1731 -1.6999
11703SOL     OW36782   3.570   9.167   0.224 -0.3064 -0.1789  0.7528
11703SOL    HW136783   3.479   9.139   0.216 -0.6047  0.2535  2.2495
11703SOL    HW236784   3.565   9.258   0.255  0.6348  1.2997 -2.9031
11704SOL     OW36785   4.474   3.695   3.042 -0.0442  0.2703  0.0803
11704SOL    HW136786   4.384   3.662   3.042 -0.6805  1.9064 -0.6200
11704SOL    HW236787   4.526   3.622   3.076 -1.6157 -0.7330  0.4496
11705SOL     OW36788   1.290   2.777   3.202 -0.7190  0.2618 -0.5605
11705SOL    HW136789   1.342   2.822   3.136  1.0408 -1.6031 -0.5536
11705SOL    HW236790   1.309   2.824   3.283  2.4388 -1.3236 -0.2350
11706SOL     OW36791   2.532   3.540   4.358  0.1700 -0.6495  0.3581
11706SOL    HW136792   2.521   3.525   4.264  2.2487 -0.4437  0.0343
11706SOL    HW236793   2.465   3.485   4.399  0.0122 -1.6866 -1.1949
11707SOL     OW36794   8.509   3.068   8.439  0.4001 -0.1144 -0.3723
11707SOL    HW136795   8.515   3.010   8.363 -2.7108 -0.4578 -0.4553
11707SOL    HW236796   8.561   3.025   8.507 -0.1954 -1.9655 -1.0552
11708SOL     OW36797   7.323   1.542   7.725  0.4490 -0.3534 -0.0250
11708SOL    HW136798   7.248   1.562   7.669  1.3393 -1.5918 -1.7232
11708SOL    HW236799   7.323   1.447   7.732  0.7344 -0.2633  1.6158
11709SOL     OW36800   7.520   9.042   1.458 -0.0114  0.6825 -0.5797
11709SOL    HW136801   7.500   8.969   1.399  0.9703  1.4318 -1.8947
11709SOL    HW236802   7.560   9.001   1.534 -1.3489 -0.3133 -0.3651
11710SOL     OW36803   2.240   7.031   1.991 -0.6363 -0.5747 -0.1424
11710SOL    HW136804   2.251   6.964   1.923  1.7608 -0.6011  0.1982
11710SOL    HW236805   2.170   7.087   1.957  1.0656 -0.0228 -3.1584
11711SOL     OW36806   9.578   6.155   8.724 -0.0833  0.0722  0.2089
11711SOL    HW136807   9.572   6.204   8.806 -2.4891 -0.1603  0.2220
11711SOL    HW236808   9.546   6.067   8.746 -2.4358  0.4819 -1.3051
11712SOL     OW36809   5.964   5.612   5.454 -0.0212  0.6715  0.5493
11712SOL    HW136810   5.907   5.538   5.434 -0.6343  1.3899 -0.4465
11712SOL    HW236811   6.044   5.595   5.405  0.8057 -0.4920  2.1867
11713SOL     OW36812   8.694   1.249   5.052 -0.3179  0.3504  0.1124
11713SOL    HW136813   8.777   1.279   5.091 -0.1652  2.1340 -1.4401
11713SOL    HW236814   8.627   1.303   5.094 -0.2540  1.5576 -1.2396
11714SOL     OW36815   5.470   0.587   0.193  0.1524 -0.2263 -0.3362
11714SOL    HW136816   5.465   0.500   0.155  0.4299  0.1512 -1.2730
11714SOL    HW236817   5.564   0.601   0.211  0.2519  0.2892 -1.2087
11715SOL     OW36818   1.878   5.027   6.568 -0.6778 -0.1246  0.6421
11715SOL    HW136819   1.893   5.062   6.656  0.5880 -0.4858  0.5914
11715SOL    HW236820   1.952   4.969   6.552 -1.5859 -1.1049 -0.1537
11716SOL     OW36821   7.652   7.359   8.051  0.0710  0.4292  0.2593
11716SOL    HW136822   7.592   7.417   8.099 -0.4107 -0.3599  0.6217
11716SOL    HW236823   7.723   7.342   8.113 -0.7559 -0.9257  0.8829
11717SOL     OW36824   3.304   6.138   3.281 -0.0151  0.1642  0.3259
11717SOL    HW136825   3.334   6.096   3.362 -1.0688 -3.8306 -1.1139
11717SOL    HW236826   3.380   6.133   3.222 -0.0525  0.5926  0.2426
11718SOL     OW36827   6.426   1.897   0.162  0.0900  0.5935  0.3364
11718SOL    HW136828   6.380   1.858   0.088 -0.2019  1.2914  0.1429
11718SOL    HW236829   6.496   1.835   0.182  0.6605  0.7564 -1.0363
11719SOL     OW36830   1.693   4.590   8.176  0.5679  0.5838  0.3590
11719SOL    HW136831   1.678   4.507   8.221 -0.3768  0.4625 -0.1386
11719SOL    HW236832   1.625   4.648   8.210 -1.1263  0.0664 -1.8907
11720SOL     OW36833   4.093   8.447   0.751 -0.2585 -0.3748 -0.2523
11720SOL    HW136834   4.093   8.356   0.720 -0.8775 -0.3229 -0.4184
11720SOL    HW236835   4.005   8.479   0.732 -0.0947  0.2139 -0.0488
11721SOL     OW36836   6.284   4.141   5.239 -0.4329  0.1608 -0.0854
11721SOL    HW136837   6.350   4.124   5.172 -1.1608 -1.1476 -0.5071
11721SOL    HW236838   6.332   4.142   5.321  0.1093 -0.8577 -0.3825
11722SOL     OW36839   7.213   6.255   6.212 -0.1414 -0.1904  0.0754
11722SOL    HW136840   7.253   6.173   6.182 -0.8298  0.4838 -3.1122
11722SOL    HW236841   7.284   6.320   6.207 -0.2803 -0.0596 -0.2703
11723SOL     OW36842   4.854   5.469   8.897  0.0371  0.0347  0.7440
11723SOL    HW136843   4.766   5.458   8.862 -0.0613  0.0062  1.0021
11723SOL    HW236844   4.902   5.393   8.864 -0.2489 -0.3802  1.2814
11724SOL     OW36845   2.191   8.612   0.079  0.3944  0.1719 -0.2834
11724SOL    HW136846   2.132   8.684   0.058  1.2193  0.6347 -1.0773
11724SOL    HW236847   2.278   8.652   0.085  0.6453 -0.4932  0.8992
11725SOL     OW36848   0.523   7.080   8.904  0.2296 -0.1243  0.6149
11725SOL    HW136849   0.526   7.114   8.814  2.0215  0.1753  0.7449
11725SOL    HW236850   0.430   7.079   8.926 -0.2663 -0.3363 -1.2826
11726SOL     OW36851   0.830   7.703   7.153  0.0192  0.2457  0.2542
11726SOL    HW136852   0.861   7.627   7.203  1.6031 -0.9006 -2.2893
11726SOL    HW236853   0.907   7.761   7.149 -0.0474  0.2663 -0.8919
11727SOL     OW36854   3.108   4.138   5.065 -0.1870 -0.1598  0.0744
11727SOL    HW136855   3.077   4.051   5.090 -2.7291  0.8086  0.5798
11727SOL    HW236856   3.113   4.186   5.148  0.4674  0.4120 -0.2873
11728SOL     OW36857   0.089   4.965   7.247 -0.5622  0.0131  0.4339
11728SOL    HW136858   0.062   5.051   7.279 -0.2556 -0.3597  1.7754
11728SOL    HW236859   0.052   4.959   7.160 -1.8702  0.8957  0.8980
11729SOL     OW36860   0.352   7.717   6.930  0.2211 -0.6650 -0.2816
11729SOL    HW136861   0.299   7.730   7.009 -1.2817 -1.2195 -1.1504
11729SOL    HW236862   0.429   7.668   6.959  0.9043  1.1764  1.2308
11730SOL     OW36863   2.710   0.372   9.397 -0.2100  0.1728 -0.6732
11730SOL    HW136864   2.632   0.364   9.451 -0.4716 -0.1906 -1.0991
11730SOL    HW236865   2.686   0.333   9.313  0.4519 -0.0130 -0.7869
11731SOL     OW36866   4.755   0.311   9.674  0.0301  0.6087  0.6549
11731SOL    HW136867   4.739   0.364   9.596  0.5084 -0.9567 -0.5639
11731SOL    HW236868   4.753   0.373   9.747  2.3972  2.6353 -0.8472
11732SOL     OW36869   0.891   4.651   1.787 -0.1364 -0.1300  0.1096
11732SOL    HW136870   0.958   4.632   1.722 -0.0208  1.3996 -0.2675
11732SOL    HW236871   0.913   4.739   1.819 -1.3681 -0.0200  0.7283
11733SOL     OW36872   8.171   8.369   3.627 -0.3474 -0.2144 -0.3352
11733SOL    HW136873   8.266   8.363   3.641 -0.6057  0.8640  2.3171
11733SOL    HW236874   8.138   8.284   3.653 -0.3101  0.1717  1.0388
11734SOL     OW36875   7.126   2.354   5.390 -0.2121  0.8271  0.2959
11734SOL    HW136876   7.039   2.391   5.405 -0.7662 -0.5296  0.5718
11734SOL    HW236877   7.139   2.359   5.295 -1.0899 -0.0189  0.1232
11735SOL     OW36878   6.562   4.182   0.254  0.3833  0.0781  0.2861
11735SOL    HW136879   6.514   4.217   0.179 -0.6649 -0.9991  0.4320
11735SOL    HW236880   6.654   4.186   0.227 -0.0514 -4.0513 -2.8641
11736SOL     OW36881   6.043   7.635   5.664 -0.0392  0.3835  0.4629
11736SOL    HW136882   6.046   7.708   5.726  0.1970  0.4260  0.4013
11736SOL    HW236883   6.077   7.561   5.714  1.6100  0.7444 -0.0657
11737SOL     OW36884   0.562   5.995   7.792 -0.0780 -0.1181  0.2184
11737SOL    HW136885   0.488   5.949   7.752 -0.4696  1.1329 -0.5574
11737SOL    HW236886   0.525   6.042   7.866  0.1681 -0.4013  0.5250
11738SOL     OW36887   9.012   0.464   0.789  0.0595  0.7667 -0.0852
11738SOL    HW136888   9.034   0.380   0.748 -0.2799  1.6907 -2.3035
11738SOL    HW236889   9.086   0.482   0.848  0.2488 -0.9491  0.2361
11739SOL     OW36890   1.450   2.070   6.188 -0.0946 -0.1107 -0.2831
11739SOL    HW136891   1.478   2.146   6.137 -1.1166  0.3839 -0.1420
11739SOL    HW236892   1.531   2.033   6.223  0.5689 -0.0492 -1.6839
11740SOL     OW36893   7.893   1.752   3.869  0.0658 -0.3118 -0.4528
11740SOL    HW136894   7.959   1.787   3.809 -0.7414 -0.9320 -1.7548
11740SOL    HW236895   7.904   1.657   3.863  0.2505 -0.3743  0.7304
11741SOL     OW36896   3.682   7.852   2.518 -0.2056  0.0675 -0.3983
11741SOL    HW136897   3.662   7.776   2.463 -2.1373  0.6007 -0.5178
11741SOL    HW236898   3.692   7.816   2.606 -1.8591 -0.3022 -0.3156
11742SOL     OW36899   2.095   8.910   7.844 -0.1361  0.1025 -0.5799
11742SOL    HW136900   2.109   8.828   7.797 -0.1611 -0.6353  0.6733
11742SOL    HW236901   2.003   8.931   7.828 -0.5124 -0.8629  0.2282
11743SOL     OW36902   7.636   1.765   1.356 -0.3189  0.1810 -0.0607
11743SOL    HW136903   7.727   1.747   1.379  0.0461  1.9353 -0.0316
11743SOL    HW236904   7.611   1.839   1.411 -1.5965  0.0589 -0.4486
11744SOL     OW36905   0.378   8.160   8.807  0.6130 -0.0077 -0.0814
11744SOL    HW136906   0.434   8.177   8.883  0.9306  0.3825 -0.3990
11744SOL    HW236907   0.292   8.142   8.844  0.1727  2.5532  0.2714
11745SOL     OW36908   3.081   9.499   9.448 -0.3856  0.0623 -0.2769
11745SOL    HW136909   3.129   9.443   9.387  0.1543  0.7322 -0.4943
11745SOL    HW236910   3.126   9.488   9.531 -0.7561 -0.4052 -0.1378
11746SOL     OW36911   1.057   5.433   8.766  0.3177 -0.1502  0.7793
11746SOL    HW136912   1.108   5.429   8.847  0.5431  0.6165  0.6834
11746SOL    HW236913   1.109   5.486   8.707  0.3268 -1.0167 -0.0118
11747SOL     OW36914   6.779   9.217   2.048 -0.0225 -0.1199  0.5209
11747SOL    HW136915   6.714   9.273   2.091 -0.8759  0.6156 -1.5403
11747SOL    HW236916   6.862   9.264   2.058 -0.1525 -0.0888  1.5296
11748SOL     OW36917   2.020   7.092   4.755 -0.1574  0.1882  0.1359
11748SOL    HW136918   2.059   7.016   4.711  0.4536  0.3157  0.4522
11748SOL    HW236919   2.054   7.088   4.845 -0.9678  0.2351  0.4635
11749SOL     OW36920   8.186   7.117   9.470  0.3972  0.4901  0.3864
11749SOL    HW136921   8.171   7.031   9.509  0.7349  0.1683 -0.1661
11749SOL    HW236922   8.147   7.179   9.531 -0.4165 -0.0973  0.4759
11750SOL     OW36923   8.592   2.348   3.426  0.4989  0.3013  0.8184
11750SOL    HW136924   8.640   2.293   3.364 -0.1618  0.3083  0.2837
11750SOL    HW236925   8.603   2.306   3.511  0.2076 -0.5236  0.4524
11751SOL     OW36926   2.825   8.709   6.135  0.0529  0.0689  0.7536
11751SOL    HW136927   2.793   8.626   6.169 -0.4174  0.4237  1.2102
11751SOL    HW236928   2.893   8.686   6.072 -1.6379 -0.7671 -0.8800
11752SOL     OW36929   5.059   4.214   9.289 -0.0706 -0.2327  0.4166
11752SOL    HW136930   5.028   4.206   9.199  0.9009  0.1098  0.0457
11752SOL    HW236931   5.067   4.124   9.320 -0.2920 -0.3543  0.1237
11753SOL     OW36932   2.938   3.680   5.967 -0.1181 -0.2958  1.1387
11753SOL    HW136933   2.881   3.749   5.932  0.7348 -0.3490 -0.4733
11753SOL    HW236934   2.994   3.725   6.031  0.4256  0.5525  0.1101
11754SOL     OW36935   8.294   9.208   7.197 -0.4831  0.2555 -0.1713
11754SOL    HW136936   8.204   9.183   7.176  0.0818 -3.0713  0.8692
11754SOL    HW236937   8.346   9.170   7.127  0.2308  1.4382 -0.3073
11755SOL     OW36938   7.845   0.477   1.943 -0.3627 -0.3433 -0.0987
11755SOL    HW136939   7.760   0.449   1.907 -0.3945 -0.0978 -0.2196
11755SOL    HW236940   7.832   0.569   1.965 -0.6651 -0.7413  1.5304
11756SOL     OW36941   9.334   8.425   1.199  0.5710 -0.0219  0.5007
11756SOL    HW136942   9.316   8.411   1.292 -3.3998 -2.0471 -0.3281
11756SOL    HW236943   9.279   8.499   1.174 -0.3085 -1.0236 -0.6526
11757SOL     OW36944   3.755   6.902   8.940 -0.1642 -0.1024 -0.1697
11757SOL    HW136945   3.808   6.899   8.860  1.6954  1.0592  0.9401
11757SOL    HW236946   3.690   6.971   8.923  0.6417  0.6033 -0.4769
11758SOL     OW36947   0.155   7.821   0.807 -0.2865 -0.7274 -0.1266
11758SOL    HW136948   0.123   7.774   0.884 -0.6024 -0.9981 -0.4189
11758SOL    HW236949   0.106   7.903   0.806  0.0818 -0.4975  0.2412
11759SOL     OW36950   3.821   3.554   9.483 -0.2149  0.1613  0.2892
11759SOL    HW136951   3.779   3.498   9.418 -2.0262  0.6034  1.0311
11759SOL    HW236952   3.845   3.633   9.435 -2.2059  0.7927  0.2402
11760SOL     OW36953   4.909   2.128   8.095  0.3257  0.4487 -0.2773
11760SOL    HW136954   5.000   2.123   8.066  0.0189  0.9263 -1.3972
11760SOL    HW236955   4.866   2.055   8.050  0.6777 -1.6121  2.4876
11761SOL     OW36956   1.511   2.612   7.283 -0.0967 -0.4565  0.0973
11761SOL    HW136957   1.589   2.558   7.284  0.2482  0.0150 -0.7749
11761SOL    HW236958   1.455   2.574   7.215 -0.2605 -0.2767  0.1288
11762SOL     OW36959   3.154   2.096   9.585 -0.0906 -0.1821  0.0494
11762SOL    HW136960   3.074   2.074   9.536 -0.9953  1.1667  0.8725
11762SOL    HW236961   3.223   2.044   9.543 -1.5192 -1.9990 -0.1869
11763SOL     OW36962   3.035   5.951   8.522  0.0559  0.2183  0.1648
11763SOL    HW136963   3.001   5.948   8.611  1.5121 -1.6806  0.7210
11763SOL    HW236964   3.046   6.045   8.504 -2.0975  0.7317  1.1954
11764SOL     OW36965   2.225   5.583   4.443  0.5352  0.0996 -0.2406
11764SOL    HW136966   2.320   5.575   4.443  0.5092 -0.2264 -0.0500
11764SOL    HW236967   2.206   5.645   4.514  0.5712 -0.3144  0.1381
11765SOL     OW36968   9.640   8.943   4.500 -0.0996 -0.1408 -0.2601
11765SOL    HW136969   9.639   8.881   4.427 -1.0308 -1.1345  0.5759
11765SOL    HW236970   9.567   8.916   4.556 -0.8114  1.9775 -0.0867
11766SOL     OW36971   1.538   3.872   8.902 -0.5910 -0.6170  0.3613
11766SOL    HW136972   1.588   3.940   8.948 -0.3844 -1.1445  0.9144
11766SOL    HW236973   1.449   3.907   8.897 -0.6449 -0.6162  1.2810
11767SOL     OW36974   9.066   2.724   1.864  0.0237  0.3296 -0.3679
11767SOL    HW136975   9.086   2.818   1.857  1.7952  0.0016 -0.0965
11767SOL    HW236976   9.010   2.717   1.942  1.3117  0.9777  0.6436
11768SOL     OW36977   1.040   2.751   2.065  0.7118  0.5670 -0.2900
11768SOL    HW136978   0.952   2.726   2.036  1.1044  0.2902 -1.2812
11768SOL    HW236979   1.071   2.813   1.998  2.4934 -1.7509 -1.7587
11769SOL     OW36980   8.026   8.185   0.957 -0.5486  0.2654  0.9708
11769SOL    HW136981   8.023   8.107   0.901 -0.4992  1.3320 -0.5908
11769SOL    HW236982   7.935   8.216   0.958 -0.6373 -0.0072  1.8937
11770SOL     OW36983   8.863   6.807   1.150  0.4190  0.2729  0.5931
11770SOL    HW136984   8.827   6.757   1.223  2.4988 -2.7047 -0.1917
11770SOL    HW236985   8.797   6.800   1.081 -0.0932  0.1110  1.0965
11771SOL     OW36986   4.565   4.885   3.170 -0.9857 -0.1477 -0.7276
11771SOL    HW136987   4.558   4.950   3.240  1.7101  0.6126 -1.0578
11771SOL    HW236988   4.544   4.802   3.211  0.6947  0.2609  1.0678
11772SOL     OW36989   5.675   7.198   6.077  0.2739  0.0052  0.0606
11772SOL    HW136990   5.641   7.269   6.023  0.3272  0.1948  0.2738
11772SOL    HW236991   5.729   7.146   6.018 -2.7474 -2.1134 -1.1518
11773SOL     OW36992   6.084   9.669   5.479  0.4193 -0.5554  0.2750
11773SOL    HW136993   6.008   9.639   5.528 -0.2829  1.7233  0.6892
11773SOL    HW236994   6.157   9.619   5.515 -0.3096 -0.0620  2.5952
11774SOL     OW36995   8.920   6.337   6.205  0.4887  0.1243  0.9768
11774SOL    HW136996   8.894   6.364   6.117  0.3006 -1.5680  0.4769
11774SOL    HW236997   8.882   6.403   6.263  0.3059  1.0559 -0.1778
11775SOL     OW36998   7.389   9.557   1.062 -0.5431 -0.0143  0.0084
11775SOL    HW136999   7.390   9.595   0.974  1.9092 -1.6135 -0.7536
11775SOL    HW237000   7.326   9.485   1.056 -0.9819  0.3747 -0.1759
11776SOL     OW37001   5.560   4.256   4.816  0.0512  0.1139 -0.1373
11776SOL    HW137002   5.509   4.184   4.854 -3.0703  1.7772 -0.7825
11776SOL    HW237003   5.632   4.213   4.770 -0.8794 -2.4726  0.6319
11777SOL     OW37004   5.713   3.258   4.658  0.3717  0.4053 -0.4548
11777SOL    HW137005   5.770   3.323   4.700 -0.8122  1.0442  0.2079
11777SOL    HW237006   5.666   3.217   4.730 -0.4447  0.3102 -1.0281
11778SOL     OW37007   4.352   5.242   8.666  0.0075  0.1182  0.0787
11778SOL    HW137008   4.325   5.312   8.607 -0.0645 -1.5721 -1.9827
11778SOL    HW237009   4.274   5.188   8.677  0.3643 -0.2790  0.7525
11779SOL     OW37010   3.990   7.353   3.729 -0.2703 -0.4457 -0.3827
11779SOL    HW137011   4.026   7.302   3.656 -1.7330 -0.2970 -1.2479
11779SOL    HW237012   3.967   7.437   3.690 -1.1301 -0.3860  0.2273
11780SOL     OW37013   7.052   7.754   3.979 -0.4272  0.3344 -0.1186
11780SOL    HW137014   7.031   7.845   3.999  0.4982  0.7129 -0.7763
11780SOL    HW237015   7.126   7.733   4.036 -0.5718  0.0220 -0.0411
11781SOL     OW37016   0.297   3.418   5.778 -0.0682 -0.1109 -0.2233
11781SOL    HW137017   0.352   3.462   5.713 -0.3705 -1.6724 -1.6053
11781SOL    HW237018   0.225   3.382   5.727  0.1301 -2.1391  0.8390
11782SOL     OW37019   6.784   6.527   4.039  0.1332 -0.0158 -0.5885
11782SOL    HW137020   6.743   6.533   4.125  0.2265 -1.1648 -0.4478
11782SOL    HW237021   6.750   6.445   4.001 -0.9233  1.1041 -2.1938
11783SOL     OW37022   0.175   3.036   8.639 -0.4570  1.0408 -0.0730
11783SOL    HW137023   0.206   3.125   8.623  0.2830  0.6619 -0.8479
11783SOL    HW237024   0.132   3.040   8.724 -0.9330  2.2587 -0.3529
11784SOL     OW37025   7.463   5.009   3.412  0.1959 -0.3152 -0.4587
11784SOL    HW137026   7.481   5.087   3.360 -0.1194  0.0440 -0.0412
11784SOL    HW237027   7.370   4.993   3.401 -0.0955  0.3667  0.7789
11785SOL     OW37028   8.498   6.557   4.372  0.1703 -0.0595  0.0542
11785SOL    HW137029   8.453   6.474   4.358  1.6046 -0.5380 -2.1347
11785SOL    HW237030   8.465   6.614   4.303  0.3161  0.7431  0.6254
11786SOL     OW37031   3.450   5.190   4.916  0.1144  0.0698  0.0136
11786SOL    HW137032   3.531   5.140   4.905  0.6040  0.4460  1.6443
11786SOL    HW237033   3.473   5.259   4.978 -0.5949  2.2739 -2.0058
11787SOL     OW37034   7.319   8.494   6.852  0.2194  0.1187  0.2677
11787SOL    HW137035   7.299   8.465   6.941  0.6597  0.9409  0.6448
11787SOL    HW237036   7.325   8.589   6.859 -0.0070  0.2132 -0.7001
11788SOL     OW37037   3.986   8.070   0.505  0.2211 -0.2881 -0.1132
11788SOL    HW137038   3.912   8.018   0.473  0.9994 -0.7381 -1.2756
11788SOL    HW237039   3.960   8.161   0.491 -0.4404 -0.4144  0.2695
11789SOL     OW37040   1.276   4.737   3.930 -0.0328 -0.3946 -0.0327
11789SOL    HW137041   1.287   4.643   3.919  1.9399 -0.4626  1.8635
11789SOL    HW237042   1.230   4.746   4.014 -1.8472  0.3560 -1.0348
11790SOL     OW37043   6.306   8.471   1.325 -0.7743  0.2025  0.4129
11790SOL    HW137044   6.216   8.442   1.312 -1.9757  3.4485  0.4558
11790SOL    HW237045   6.298   8.556   1.369  2.3375  0.3871  0.8674
11791SOL     OW37046   4.475   5.991   8.467 -0.0321 -0.1032 -0.1123
11791SOL    HW137047   4.451   5.949   8.550  1.2339 -0.7043 -0.0361
11791SOL    HW237048   4.565   5.963   8.451 -0.4184 -0.3958 -1.9424
11792SOL     OW37049   1.947   8.407   0.650  0.1327 -0.4830 -0.4246
11792SOL    HW137050   2.041   8.421   0.656  0.0686  0.0055 -0.4826
11792SOL    HW237051   1.933   8.380   0.559  0.3265 -1.5309 -0.1615
11793SOL     OW37052   8.386   7.283   0.097  0.7417 -0.5718  0.2651
11793SOL    HW137053   8.342   7.367   0.093  0.7841 -0.5664 -0.0579
11793SOL    HW237054   8.479   7.304   0.097  0.7523 -0.6185  0.1930
11794SOL     OW37055   9.274   5.587   1.591  0.2811 -0.6083 -0.3181
11794SOL    HW137056   9.258   5.580   1.497  1.5542 -0.7165 -0.5534
11794SOL    HW237057   9.302   5.499   1.617 -1.6566 -1.0184  0.5181
11795SOL     OW37058   6.312   6.963   9.464 -0.8862 -0.4117  0.4677
11795SOL    HW137059   6.378   6.938   9.529  0.1036 -1.3209 -0.8204
11795SOL    HW237060   6.342   6.922   9.382 -3.1993 -1.0714 -0.1267
11796SOL     OW37061   3.168   5.228   5.874 -0.9929  0.2077 -0.4782
11796SOL    HW137062   3.120   5.201   5.796  1.3154 -0.4344 -1.7522
11796SOL    HW237063   3.193   5.318   5.858 -0.1566 -0.0548 -0.6785
11797SOL     OW37064   1.310   4.399   6.135  0.2980  0.4711  0.2684
11797SOL    HW137065   1.376   4.468   6.136  0.4347  0.3404  0.3309
11797SOL    HW237066   1.226   4.445   6.128  0.4926  0.5685 -2.5146
11798SOL     OW37067   8.103   8.994   6.023  0.1318 -0.0433  0.1312
11798SOL    HW137068   8.065   8.907   6.015  1.3979 -0.6212  0.1994
11798SOL    HW237069   8.188   8.980   6.064 -0.5473  1.4703  2.1941
11799SOL     OW37070   4.270   6.500   7.036  0.2127  0.0683 -0.5255
11799SOL    HW137071   4.228   6.417   7.015  0.2832 -0.3824  1.0095
11799SOL    HW237072   4.221   6.535   7.110  1.0714  0.6805 -0.2158
11800SOL     OW37073   6.357   4.066   6.534 -0.4678  0.2977 -0.1623
11800SOL    HW137074   6.399   4.152   6.528 -0.3320  0.1940 -0.6723
11800SOL    HW237075   6.429   4.003   6.529 -0.7703  0.0397 -2.9240
11801SOL     OW37076   2.863   2.422   3.487 -0.2157  0.9026  0.6044
11801SOL    HW137077   2.779   2.450   3.523  1.7130  1.5358  5.2871
11801SOL    HW237078   2.867   2.329   3.507 -0.3493  0.5360 -0.9820
11802SOL     OW37079   1.688   7.145   1.559 -0.3036  0.3141 -0.2102
11802SOL    HW137080   1.636   7.197   1.498 -0.6768  1.6587  1.1854
11802SOL    HW237081   1.624   7.104   1.617  0.1218  1.5888  1.2191
11803SOL     OW37082   2.891   6.819   0.972 -0.2426  0.2121 -0.3305
11803SOL    HW137083   2.960   6.833   0.908 -1.6906 -2.9560 -2.8482
11803SOL    HW237084   2.914   6.737   1.015 -2.2445 -0.8024 -1.0839
11804SOL     OW37085   1.844   0.771   4.043  0.2479 -0.4726 -0.0156
11804SOL    HW137086   1.838   0.865   4.060  0.2884 -0.6245  0.8854
11804SOL    HW237087   1.931   0.759   4.006 -0.3622  0.0623 -1.7617
11805SOL     OW37088   8.823   3.423   4.853 -0.5111 -0.1297  0.0277
11805SOL    HW137089   8.821   3.515   4.827  0.2821 -0.2642 -0.5317
11805SOL    HW237090   8.758   3.381   4.797 -0.3078 -0.0475 -0.2704
11806SOL     OW37091   0.594   4.507   2.580 -0.2260 -0.3433  0.0893
11806SOL    HW137092   0.619   4.415   2.585  3.5689  0.4703 -0.5398
11806SOL    HW237093   0.580   4.534   2.670  0.7286 -1.1155  0.4873
11807SOL     OW37094   1.465   7.959   3.155  0.7669 -0.2608  0.5541
11807SOL    HW137095   1.449   7.949   3.249 -0.8470 -2.2057  0.1399
11807SOL    HW237096   1.443   7.874   3.117  1.7048  0.3597 -1.5734
11808SOL     OW37097   6.135   8.707   1.179 -0.2122 -0.6878 -0.1872
11808SOL    HW137098   6.107   8.702   1.270 -1.1274  1.4110 -0.2766
11808SOL    HW237099   6.224   8.742   1.183  0.4842 -2.3969 -0.0727
11809SOL     OW37100   0.364   6.667   3.559  0.1189 -0.2055  0.1469
11809SOL    HW137101   0.313   6.684   3.479  0.4624  0.0569 -0.0169
11809SOL    HW237102   0.452   6.699   3.539 -0.4408  2.6152  1.6018
11810SOL     OW37103   1.173   7.670   3.235 -0.0626 -0.4142  0.4979
11810SOL    HW137104   1.174   7.753   3.187  0.5002 -0.4036  0.5321
11810SOL    HW237105   1.245   7.677   3.297  0.0034 -0.9446  0.4812
11811SOL     OW37106   2.003   4.174   3.131  0.2916 -0.5444  0.3761
11811SOL    HW137107   1.962   4.171   3.044  1.8469  0.8666 -0.4546
11811SOL    HW237108   1.930   4.161   3.192 -1.4206  1.6727 -1.0279
11812SOL     OW37109   0.733   1.582   2.189  0.1255 -0.5473 -0.4895
11812SOL    HW137110   0.822   1.588   2.154  1.0407  0.9421  1.8728
11812SOL    HW237111   0.683   1.646   2.138  0.1080 -2.0395 -2.4582
11813SOL     OW37112   4.666   0.748   1.742 -0.0651 -0.0670 -0.5130
11813SOL    HW137113   4.706   0.704   1.816 -2.0627 -0.5018  0.3880
11813SOL    HW237114   4.594   0.799   1.781 -1.2021 -0.3503 -2.1409
11814SOL     OW37115   7.560   5.846   7.425 -0.3299  0.1018 -0.0119
11814SOL    HW137116   7.625   5.897   7.377 -0.2844  1.2568  1.2171
11814SOL    HW237117   7.604   5.822   7.507 -0.0705 -2.6382 -0.8464
11815SOL     OW37118   4.620   4.663   4.900 -0.4988 -0.4224  0.3832
11815SOL    HW137119   4.654   4.582   4.861  6.3965  2.2001 -0.5089
11815SOL    HW237120   4.601   4.720   4.826  0.6483  0.6178  0.8551
11816SOL     OW37121   7.303   6.190   3.473  0.2303 -0.0455  0.8215
11816SOL    HW137122   7.233   6.140   3.431  1.8919 -1.2405 -0.6694
11816SOL    HW237123   7.304   6.274   3.429  0.4289 -0.4400  0.0536
11817SOL     OW37124   4.197   5.737   6.113  0.2047 -0.0123 -0.1382
11817SOL    HW137125   4.224   5.769   6.027  1.6014  3.1757  1.2864
11817SOL    HW237126   4.101   5.744   6.112  0.2033  0.0105 -1.4216
11818SOL     OW37127   3.502   0.796   3.734 -0.5607  0.0441 -0.2300
11818SOL    HW137128   3.411   0.822   3.749 -0.9972 -1.6475  0.2619
11818SOL    HW237129   3.551   0.879   3.733 -1.9455  0.9117  0.5649
11819SOL     OW37130   4.816   6.399   1.328 -0.2188 -0.1969 -0.0698
11819SOL    HW137131   4.810   6.430   1.419  2.1567 -1.1860  0.5009
11819SOL    HW237132   4.901   6.430   1.298 -0.2779 -1.2727 -1.4150
11820SOL     OW37133   1.850   4.445   6.965  0.0969 -0.1160 -0.0370
11820SOL    HW137134   1.922   4.458   7.028 -0.9155  3.4304  0.6139
11820SOL    HW237135   1.792   4.382   7.007  0.3953  0.7476  1.7679
11821SOL     OW37136   6.529   0.534   6.505  0.2369  0.4864 -0.1571
11821SOL    HW137137   6.601   0.572   6.455 -0.6769  1.6763 -0.6022
11821SOL    HW237138   6.453   0.589   6.485 -1.3688 -1.9753 -1.4528
11822SOL     OW37139   5.148   1.728   7.436  0.3099 -0.1113 -0.1858
11822SOL    HW137140   5.196   1.808   7.417 -2.1809  0.9990 -2.4783
11822SOL    HW237141   5.149   1.680   7.353  0.8591 -2.0042  0.8571
11823SOL     OW37142   6.265   9.174   4.368 -0.2112  0.2371 -0.4352
11823SOL    HW137143   6.276   9.223   4.286 -0.2874  1.6092  0.3411
11823SOL    HW237144   6.179   9.201   4.400  0.3072  0.6410  0.6756
11824SOL     OW37145   7.766   8.377   8.323 -0.4401  0.3723 -0.2684
11824SOL    HW137146   7.715   8.303   8.290  1.1121 -0.7617 -0.2228
11824SOL    HW237147   7.850   8.339   8.349  0.7017  2.2605 -0.9688
11825SOL     OW37148   8.725   9.081   3.667  0.5433 -0.2202 -0.7845
11825SOL    HW137149   8.789   9.012   3.646  0.5651 -0.4302 -0.0389
11825SOL    HW237150   8.697   9.061   3.756 -1.5431 -0.8828 -1.5310
11826SOL     OW37151   3.475   1.229   2.981 -0.0930 -0.5194  0.7953
11826SOL    HW137152   3.452   1.268   2.896 -0.9869 -0.4961  1.0340
11826SOL    HW237153   3.472   1.135   2.966 -0.9215 -0.5266  0.9573
11827SOL     OW37154   9.385   6.397   0.607  0.7034 -0.3317 -0.2557
11827SOL    HW137155   9.341   6.466   0.658 -0.6777 -0.1042 -1.6755
11827SOL    HW237156   9.432   6.444   0.539 -0.0448 -0.7522 -1.0841
11828SOL     OW37157   3.017   0.258   4.234  0.4269 -0.1168 -0.4554
11828SOL    HW137158   2.988   0.340   4.273 -0.9792 -0.9028  0.2436
11828SOL    HW237159   3.111   0.255   4.249  0.6742  1.8097 -1.3721
11829SOL     OW37160   3.002   2.243   6.036  0.5813 -0.7727  0.5564
11829SOL    HW137161   2.951   2.190   5.976 -3.0811  0.4947  2.2339
11829SOL    HW237162   3.053   2.301   5.980 -2.6272  0.3371 -1.4866
11830SOL     OW37163   5.340   3.227   5.748  0.0688  1.1288 -0.4346
11830SOL    HW137164   5.292   3.144   5.739  0.6682  0.6401  0.6381
11830SOL    HW237165   5.346   3.261   5.659  2.3028 -1.4258 -1.4444
11831SOL     OW37166   1.302   9.374   7.748  0.1783  0.4390 -0.4447
11831SOL    HW137167   1.376   9.316   7.763  0.0498  0.3262 -0.2354
11831SOL    HW237168   1.245   9.361   7.825  0.5214  1.4196 -0.0065
11832SOL     OW37169   4.682   2.128   0.697 -0.2827 -0.0775 -0.6184
11832SOL    HW137170   4.688   2.186   0.774  0.4238 -1.2486  0.2427
11832SOL    HW237171   4.656   2.186   0.626  0.2554  1.2747  0.2377
11833SOL     OW37172   1.846   5.339   5.083 -0.0368 -1.2643  0.0515
11833SOL    HW137173   1.874   5.394   5.156 -0.1756 -1.3308  0.1562
11833SOL    HW237174   1.928   5.307   5.044  0.0611 -0.4244 -0.4492
11834SOL     OW37175   2.815   8.992   7.540  0.4799 -0.5773  0.2998
11834SOL    HW137176   2.820   9.073   7.591  0.3766 -0.5445  0.2578
11834SOL    HW237177   2.900   8.985   7.497  0.3546 -0.2871 -0.0040
11835SOL     OW37178   0.689   5.383   7.677  0.0492  0.3517  0.2466
11835SOL    HW137179   0.638   5.403   7.755 -0.7799 -1.7559  0.2960
11835SOL    HW237180   0.737   5.464   7.659  1.0704  0.6249  3.5123
11836SOL     OW37181   7.084   0.792   5.658  0.4220  0.0927  0.0968
11836SOL    HW137182   7.063   0.715   5.604 -1.9885  1.1671 -0.6180
11836SOL    HW237183   7.006   0.805   5.712  1.0986  1.6169  0.7473
11837SOL     OW37184   7.260   8.495   2.624  0.2847  0.0979 -0.1714
11837SOL    HW137185   7.274   8.577   2.671 -2.7643  0.8024 -0.3005
11837SOL    HW237186   7.170   8.470   2.645  0.6080 -2.4243 -1.3776
11838SOL     OW37187   3.588   7.342   5.463 -0.3672  0.3908 -0.1608
11838SOL    HW137188   3.589   7.392   5.381  0.7247  2.3665  0.9982
11838SOL    HW237189   3.496   7.345   5.491 -0.2606  2.2310  0.1151
11839SOL     OW37190   2.420   2.759   1.216 -0.0765  0.2240  0.0908
11839SOL    HW137191   2.402   2.758   1.122 -1.4158 -0.1808  0.3352
11839SOL    HW237192   2.474   2.681   1.231 -1.2271 -0.6353 -0.1029
11840SOL     OW37193   4.289   0.013   1.717 -0.2382 -0.1750  0.4265
11840SOL    HW137194   4.369  -0.039   1.717  0.3082  0.6455  0.7994
11840SOL    HW237195   4.240  -0.017   1.793  0.4461  0.3786  1.1158
11841SOL     OW37196   6.179   9.280   7.233 -0.1098  0.2883  0.0111
11841SOL    HW137197   6.111   9.347   7.230 -1.2099 -0.8069 -0.6024
11841SOL    HW237198   6.258   9.325   7.205 -0.6042  1.5584  0.5910
11842SOL     OW37199   1.066   4.747   9.381 -0.4730 -0.2723  0.2812
11842SOL    HW137200   1.010   4.675   9.349  0.1504 -0.2880 -0.8201
11842SOL    HW237201   1.155   4.714   9.372 -0.2539 -0.1254  1.7406
11843SOL     OW37202   8.309   6.740   1.073 -0.2876  0.0844  0.4311
11843SOL    HW137203   8.343   6.690   0.998 -0.6138  1.3057 -0.5607
11843SOL    HW237204   8.387   6.774   1.116 -0.1314  0.5914 -0.2305
11844SOL     OW37205   7.788   8.510   4.627  0.1443  0.0700  0.7158
11844SOL    HW137206   7.752   8.565   4.558 -0.5573 -1.8975 -0.5583
11844SOL    HW237207   7.725   8.517   4.699 -1.3859 -1.1616 -0.4529
11845SOL     OW37208   0.392   4.803   6.344 -0.3776  0.2305 -0.6935
11845SOL    HW137209   0.315   4.855   6.366 -0.7862  0.4860 -2.5824
11845SOL    HW237210   0.398   4.806   6.249  0.1812 -2.3474 -0.8379
11846SOL     OW37211   0.694   5.566   6.863 -0.3115 -0.1870 -0.5062
11846SOL    HW137212   0.613   5.615   6.881  0.0013  0.1094  0.1299
11846SOL    HW237213   0.743   5.621   6.803 -0.3031 -0.0685 -0.3923
11847SOL     OW37214   7.127   5.397   7.669 -0.0257  0.2490 -0.0191
11847SOL    HW137215   7.222   5.407   7.672 -0.1692  1.7517  0.3799
11847SOL    HW237216   7.099   5.407   7.760 -0.6032  0.4219 -0.2111
11848SOL     OW37217   4.500   8.620   2.049  0.2165  0.5138  0.0033
11848SOL    HW137218   4.508   8.533   2.089  0.6147 -0.6060 -2.3445
11848SOL    HW237219   4.577   8.667   2.079  1.2081 -0.7434 -0.4776
11849SOL     OW37220   5.967   4.102   4.533  0.3144 -0.5190  0.1869
11849SOL    HW137221   6.004   4.121   4.447 -1.3864  1.0796 -0.2581
11849SOL    HW237222   6.003   4.171   4.590  1.6104 -1.6950  0.8738
11850SOL     OW37223   0.330   7.629   0.231  0.1294  0.2103  0.2939
11850SOL    HW137224   0.425   7.621   0.223  0.1192  0.5663 -0.2473
11850SOL    HW237225   0.316   7.723   0.247  0.0989 -0.2721  3.9028
11851SOL     OW37226   5.888   8.996   1.883  0.3841  0.3563 -0.7223
11851SOL    HW137227   5.898   8.971   1.791  2.3063  0.3962 -0.5758
11851SOL    HW237228   5.945   8.935   1.930 -1.3984 -0.3838  0.6006
11852SOL     OW37229   9.639   3.750   7.572 -0.2274 -0.3245 -0.0858
11852SOL    HW137230   9.617   3.765   7.480 -2.1036 -0.7235  0.2633
11852SOL    HW237231   9.637   3.655   7.582 -0.7107 -0.2525  0.5220
11853SOL     OW37232   9.289   3.627   9.500 -0.0019 -0.1355  0.0518
11853SOL    HW137233   9.241   3.658   9.423 -0.4306  0.0333  0.3804
11853SOL    HW237234   9.326   3.706   9.539 -2.6777  0.3013  1.9650
11854SOL     OW37235   4.713   0.414   4.156 -0.2193 -0.1388  0.7085
11854SOL    HW137236   4.648   0.344   4.160  1.7594 -2.0806  0.6317
11854SOL    HW237237   4.792   0.376   4.195  0.7644  2.2774  1.2464
11855SOL     OW37238   0.155   9.351   1.889  0.3250  0.0442 -0.1846
11855SOL    HW137239   0.131   9.327   1.979 -0.1908 -2.0457 -0.8205
11855SOL    HW237240   0.094   9.302   1.834 -0.3730  2.4583 -1.6961
11856SOL     OW37241   4.340   6.278   6.448 -0.5428  0.5201  1.3053
11856SOL    HW137242   4.303   6.323   6.372  0.1199  0.2656  0.8118
11856SOL    HW237243   4.415   6.333   6.473  1.0650 -0.9037 -0.0980
11857SOL     OW37244   7.821   7.084   2.519 -0.4477  0.6562 -0.3496
11857SOL    HW137245   7.837   7.152   2.455  2.4719  0.6255  0.2440
11857SOL    HW237246   7.808   7.004   2.467 -0.9308  1.1157 -0.9434
11858SOL     OW37247   0.901   6.170   1.117 -0.2133  0.1725 -0.3858
11858SOL    HW137248   0.981   6.219   1.136 -0.3347  0.2003  0.0749
11858SOL    HW237249   0.867   6.145   1.203 -1.3258  1.1599 -0.5168
11859SOL     OW37250   6.445   6.518   2.065  0.7794 -0.0479  0.1282
11859SOL    HW137251   6.445   6.426   2.090  0.9578 -0.4208 -1.1836
11859SOL    HW237252   6.461   6.518   1.971  0.4532  1.3101  0.0440
11860SOL     OW37253   3.246   2.876   7.565 -0.3318  0.9617  0.5078
11860SOL    HW137254   3.159   2.884   7.525  0.3919  0.0287 -1.3494
11860SOL    HW237255   3.286   2.962   7.553 -0.6281  1.0991  0.4872
11861SOL     OW37256   4.411   6.169   8.771 -0.2197 -0.5337  0.4006
11861SOL    HW137257   4.361   6.236   8.726 -0.3581 -0.6678  0.3558
11861SOL    HW237258   4.380   6.086   8.735  0.4014 -0.5963 -0.0107
11862SOL     OW37259   4.232   9.093   9.544  0.4375 -0.1846 -0.3449
11862SOL    HW137260   4.252   9.008   9.584  2.2831  1.1083  1.6724
11862SOL    HW237261   4.140   9.108   9.566  0.6425 -0.7887  1.0338
11863SOL     OW37262   4.266   2.778   2.050  0.2386  0.5658 -0.2289
11863SOL    HW137263   4.342   2.799   1.995  1.1089  2.0147  1.4172
11863SOL    HW237264   4.191   2.784   1.990  1.3711 -0.7688 -1.8571
11864SOL     OW37265   4.826   7.885   0.766  0.3857  0.6547 -0.6635
11864SOL    HW137266   4.881   7.930   0.702  0.2923  0.9960 -0.5066
11864SOL    HW237267   4.887   7.835   0.820  0.3821 -0.5029 -1.6869
11865SOL     OW37268   8.576   3.346   3.666 -0.3962  0.6573  0.4222
11865SOL    HW137269   8.583   3.434   3.703  0.7220  0.6895  0.1781
11865SOL    HW237270   8.667   3.317   3.658 -0.7907 -1.0963  1.8622
11866SOL     OW37271   7.346   3.154   7.608  0.0255 -0.3950  0.1787
11866SOL    HW137272   7.328   3.179   7.518  0.6960  0.1088  0.1794
11866SOL    HW237273   7.314   3.064   7.615  0.5370 -0.6566 -0.7342
11867SOL     OW37274   9.526   7.091   0.564  0.0836 -0.2664 -0.3010
11867SOL    HW137275   9.488   7.007   0.588 -0.4883  0.1242  0.1885
11867SOL    HW237276   9.621   7.075   0.561 -0.0060 -0.8719  0.0033
11868SOL     OW37277   9.619   0.281   9.200  0.0081  0.6899 -0.0312
11868SOL    HW137278   9.660   0.207   9.157 -0.1055  0.1133  0.8312
11868SOL    HW237279   9.583   0.334   9.129 -0.8109 -0.6118 -0.6040
11869SOL     OW37280   8.507   4.836   8.163  0.5425  0.3944  0.6789
11869SOL    HW137281   8.589   4.828   8.212  0.9201  2.7775  0.5283
11869SOL    HW237282   8.466   4.916   8.196 -1.9374 -0.9059  0.9874
11870SOL     OW37283   0.022   4.396   3.351  0.6571 -0.2537 -0.2008
11870SOL    HW137284   0.098   4.344   3.377  2.0685  1.3249 -0.9578
11870SOL    HW237285   0.057   4.461   3.290 -0.9396  1.7802  0.9003
11871SOL     OW37286   0.447   2.876   8.464 -0.0536  0.4472 -0.5619
11871SOL    HW137287   0.362   2.921   8.462 -0.2585  0.0423 -1.7852
11871SOL    HW237288   0.486   2.895   8.379  0.3705 -0.7172 -0.6469
11872SOL     OW37289   4.994   5.203   5.925  0.1767  0.3076  0.1911
11872SOL    HW137290   4.957   5.222   6.012  0.7320  2.6866 -0.0297
11872SOL    HW237291   4.934   5.245   5.864  0.6101 -0.0443 -0.4805
11873SOL     OW37292   1.493   2.231   7.735  0.0803 -0.0340  0.2118
11873SOL    HW137293   1.459   2.166   7.797  1.9172 -0.8919  0.3684
11873SOL    HW237294   1.587   2.236   7.754  0.5078  0.4532 -1.8120
11874SOL     OW37295   3.683   4.621   9.094  0.0245  0.6731 -0.3532
11874SOL    HW137296   3.767   4.636   9.139  0.2104 -0.5148 -0.2726
11874SOL    HW237297   3.618   4.627   9.164  0.3494 -1.5802  0.2114
11875SOL     OW37298   2.043   3.425   4.907 -0.3088  0.1963  0.0830
11875SOL    HW137299   1.973   3.444   4.844 -0.4930  0.2092  0.2923
11875SOL    HW237300   2.108   3.493   4.892 -0.4628  0.3407  0.0724
11876SOL     OW37301   1.961   8.088   0.508 -0.7353 -0.1764  0.0857
11876SOL    HW137302   1.872   8.065   0.534 -1.0815 -0.8435 -1.5630
11876SOL    HW237303   1.952   8.173   0.464 -0.6701 -0.5373 -0.6392
11877SOL     OW37304   4.156   9.319   2.837 -0.6772 -0.2964 -0.4594
11877SOL    HW137305   4.079   9.375   2.822  0.2161  1.3596  0.8438
11877SOL    HW237306   4.230   9.373   2.810  0.0908 -1.7879 -1.4639
11878SOL     OW37307   6.665   6.331   6.452 -0.2405  0.6758  0.0292
11878SOL    HW137308   6.656   6.366   6.363 -2.3221  3.2938  1.1521
11878SOL    HW237309   6.736   6.267   6.445  1.6250  2.8110 -2.9312
11879SOL     OW37310   1.090   8.051   9.126 -0.1588 -0.0317  0.4811
11879SOL    HW137311   1.061   8.063   9.216 -2.6610 -1.0328 -0.0919
11879SOL    HW237312   1.017   8.085   9.073 -0.9911 -3.7923 -1.1051
11880SOL     OW37313   5.700   3.628   4.845 -0.5302 -0.1545  0.2421
11880SOL    HW137314   5.643   3.665   4.777  0.4843  0.9067 -0.0734
11880SOL    HW237315   5.646   3.627   4.924 -1.2589  0.0129 -0.2428
11881SOL     OW37316   2.772   6.928   5.543  0.1561  0.4655 -0.4714
11881SOL    HW137317   2.766   6.855   5.483  0.2421 -1.2372  1.4815
11881SOL    HW237318   2.681   6.953   5.560  0.0034 -0.7593  0.6287
11882SOL     OW37319   2.971   7.464   7.824 -0.1146  0.1037  0.4661
11882SOL    HW137320   3.003   7.460   7.914 -0.3712  0.2095  0.5625
11882SOL    HW237321   2.878   7.442   7.830 -0.5778  1.8622  0.4757
11883SOL     OW37322   5.924   5.160   6.315 -0.4550  0.4424  0.7220
11883SOL    HW137323   5.940   5.216   6.239 -0.0833  0.2226  0.6315
11883SOL    HW237324   5.832   5.174   6.337 -0.5613  0.5199  0.2406
11884SOL     OW37325   6.498   6.322   9.155 -0.3580 -0.1740 -0.0773
11884SOL    HW137326   6.476   6.229   9.150  1.5003 -0.6197 -0.3504
11884SOL    HW237327   6.422   6.362   9.199 -0.5281 -2.0459  1.4440
11885SOL     OW37328   2.356   2.235   3.795  0.5232 -0.5692 -0.1874
11885SOL    HW137329   2.374   2.322   3.832  0.2822 -1.1326  1.3417
11885SOL    HW237330   2.426   2.180   3.828  1.6316 -0.6470 -2.5249
11886SOL     OW37331   6.591   3.292   1.303 -0.1497 -0.0530  0.1573
11886SOL    HW137332   6.501   3.321   1.321 -0.1999  1.4313 -2.1256
11886SOL    HW237333   6.581   3.202   1.273 -1.2604  0.8384 -2.4345
11887SOL     OW37334   1.162   9.001   1.714 -0.5744 -0.4089  0.2323
11887SOL    HW137335   1.244   9.024   1.671 -0.1259  0.9678  1.7644
11887SOL    HW237336   1.173   8.910   1.740  0.5491 -0.1730  0.6036
11888SOL     OW37337   5.952   6.808   9.400  0.5584 -0.5688  0.4044
11888SOL    HW137338   6.001   6.747   9.345  0.9885  0.4395 -0.3589
11888SOL    HW237339   5.969   6.894   9.362 -2.0746 -0.1973 -0.1126
11889SOL     OW37340   1.142   6.787   4.528 -0.0396  0.6083  0.5690
11889SOL    HW137341   1.079   6.722   4.499  1.7829 -0.5104 -1.1504
11889SOL    HW237342   1.089   6.855   4.569 -2.7043  1.0039 -2.9793
11890SOL     OW37343   8.249   2.705   1.046 -0.0397 -0.0952  0.3814
11890SOL    HW137344   8.263   2.797   1.069  1.3495 -0.8222  2.8413
11890SOL    HW237345   8.157   2.701   1.018 -0.2884  1.9336  0.7915
11891SOL     OW37346   0.053   7.293   2.013  0.1817 -0.6062  0.0455
11891SOL    HW137347  -0.040   7.297   2.038  0.2012  1.1569 -0.0611
11891SOL    HW237348   0.093   7.238   2.081 -0.5282  0.5928  1.5108
11892SOL     OW37349   2.226   3.522   2.832 -1.0206 -0.1818 -0.0806
11892SOL    HW137350   2.203   3.597   2.886  0.0464 -2.0205  3.2282
11892SOL    HW237351   2.322   3.525   2.827 -0.7617 -2.3172  1.9071
11893SOL     OW37352   0.885   8.328   5.789  0.0675  0.1243  0.7250
11893SOL    HW137353   0.938   8.251   5.812  0.6443 -0.2758 -1.5940
11893SOL    HW237354   0.903   8.391   5.858  2.9775 -0.3201  0.5237
11894SOL     OW37355   7.950   1.884   4.247  0.0913  0.1037 -0.4555
11894SOL    HW137356   7.978   1.878   4.338  2.9056  1.5380 -1.1090
11894SOL    HW237357   7.869   1.934   4.250  0.9119  1.4475  1.1899
11895SOL     OW37358   3.282   5.367   3.076 -0.3051  0.2149 -0.1503
11895SOL    HW137359   3.354   5.372   3.139 -1.4675  1.0301  1.1795
11895SOL    HW237360   3.212   5.419   3.116 -1.6111 -0.4954 -1.4299
11896SOL     OW37361   1.939   4.738   5.292  0.0424 -0.1102  0.0347
11896SOL    HW137362   1.862   4.765   5.242  1.3234 -0.8742 -2.5150
11896SOL    HW237363   1.915   4.652   5.328 -0.7098  0.2024  0.2871
11897SOL     OW37364   1.392   3.782   6.422 -0.3902  0.2814 -0.0529
11897SOL    HW137365   1.302   3.754   6.436  0.5340 -2.8778  0.1889
11897SOL    HW237366   1.396   3.801   6.328 -1.3071  0.6151 -0.0381
11898SOL     OW37367   0.161   6.836   6.977 -1.0854 -0.0790 -0.2193
11898SOL    HW137368   0.111   6.842   7.058  0.1534  0.1974  0.5464
11898SOL    HW237369   0.234   6.778   6.997 -0.4009  0.5119 -0.9335
11899SOL     OW37370   4.110   2.068   3.983  0.2145 -0.1940 -0.7552
11899SOL    HW137371   4.034   2.048   4.038  1.2080 -0.6476  0.4932
11899SOL    HW237372   4.178   2.009   4.013  2.6016  3.3530  1.5062
11900SOL     OW37373   7.237   2.750   5.501 -0.1149  0.4338 -0.1585
11900SOL    HW137374   7.197   2.668   5.528 -0.5484  0.5011 -0.5780
11900SOL    HW237375   7.244   2.742   5.405 -0.9112  1.2127 -0.2906
11901SOL     OW37376   8.372   5.497   1.342  0.5504  0.1570 -0.5931
11901SOL    HW137377   8.352   5.459   1.428  2.3590 -0.0125 -0.2235
11901SOL    HW237378   8.320   5.578   1.340 -1.2825 -0.9368 -0.3096
11902SOL     OW37379   7.359   2.868   2.992  0.1524 -0.2507 -0.1274
11902SOL    HW137380   7.414   2.945   2.981 -0.7990  0.7464  1.6544
11902SOL    HW237381   7.406   2.798   2.947  0.3655  1.6231 -3.0640
11903SOL     OW37382   1.629   2.102   6.439 -0.5755  0.0529 -0.1939
11903SOL    HW137383   1.586   2.076   6.521 -0.2785  0.0088 -0.0531
11903SOL    HW237384   1.599   2.192   6.425  0.9314  0.7823  1.0155
11904SOL     OW37385   9.270   7.243   1.370  0.3291 -0.6803 -0.7972
11904SOL    HW137386   9.181   7.258   1.400  0.6716 -0.5874  0.2053
11904SOL    HW237387   9.281   7.302   1.296  0.3971  1.2301  0.6815
11905SOL     OW37388   5.461   7.146   4.055 -0.0000  0.2856  0.3607
11905SOL    HW137389   5.454   7.214   4.122  0.7937  1.2647 -0.5229
11905SOL    HW237390   5.388   7.164   3.995 -0.6429 -0.5215  0.8733
11906SOL     OW37391   1.940   3.985   1.724  0.1913 -0.3924 -0.1329
11906SOL    HW137392   1.884   4.025   1.657  1.2382  1.0679 -0.1724
11906SOL    HW237393   1.881   3.966   1.796 -0.5879 -0.1032 -0.6817
11907SOL     OW37394   0.838   1.944   0.917 -0.4079 -0.3843  0.5938
11907SOL    HW137395   0.823   1.968   1.008 -1.4272  0.1380  0.2977
11907SOL    HW237396   0.751   1.936   0.879 -0.0447 -2.2839  0.0700
11908SOL     OW37397   2.928   5.574   1.061 -0.0252 -0.0606  0.0345
11908SOL    HW137398   2.859   5.589   0.997 -2.8314 -3.6701  1.8687
11908SOL    HW237399   2.997   5.531   1.013 -0.8591 -0.1783 -1.0863
11909SOL     OW37400   4.784   6.530   4.943  0.2537 -0.2436 -0.1997
11909SOL    HW137401   4.776   6.623   4.963 -1.0931 -0.2916 -0.4427
11909SOL    HW237402   4.878   6.514   4.939  0.5077  1.4330 -1.6934
11910SOL     OW37403   6.465   1.310   0.573  0.6030 -0.5111 -0.3495
11910SOL    HW137404   6.514   1.355   0.642  0.5805 -1.8541  0.5855
11910SOL    HW237405   6.400   1.374   0.545  2.3599  1.0170 -1.0671
11911SOL     OW37406   4.583   2.767   8.414  0.1292 -0.4905  0.8020
11911SOL    HW137407   4.608   2.845   8.464  0.7509 -0.5144  0.5396
11911SOL    HW237408   4.488   2.769   8.412  0.0683 -0.6564  2.2567
11912SOL     OW37409   9.019   3.516   2.998  0.0807 -0.1361 -0.5189
11912SOL    HW137410   9.026   3.611   2.982 -0.6854  0.0430  0.1196
11912SOL    HW237411   9.108   3.488   3.017  0.2308  0.5646 -0.1658
11913SOL     OW37412   4.256   9.062   2.802 -0.5659  0.1986 -0.2702
11913SOL    HW137413   4.172   9.064   2.757 -0.3235  0.3525 -0.7240
11913SOL    HW237414   4.264   9.149   2.842 -2.1240 -0.8648  2.6141
11914SOL     OW37415   8.042   0.935   9.172 -0.3851 -0.1328  0.3529
11914SOL    HW137416   8.027   0.921   9.079 -0.1675  0.1367  0.2761
11914SOL    HW237417   7.984   0.873   9.216  1.1429 -1.8508  0.0251
11915SOL     OW37418   1.293   6.486   7.889 -0.0235  0.2442 -0.2016
11915SOL    HW137419   1.245   6.445   7.961  2.5851 -1.2364  0.8152
11915SOL    HW237420   1.233   6.481   7.814 -2.3999  0.8571  1.5308
11916SOL     OW37421   3.970   8.159   4.234 -0.0340 -0.1063 -0.2301
11916SOL    HW137422   3.918   8.238   4.221 -0.9585 -0.8564 -1.2508
11916SOL    HW237423   3.932   8.118   4.312  1.6855  1.3698  1.5069
11917SOL     OW37424   2.655   9.543   1.590  0.4444  0.3376  0.2915
11917SOL    HW137425   2.679   9.530   1.681 -0.6341  1.1599  0.7118
11917SOL    HW237426   2.590   9.475   1.572 -0.8809  1.4382  0.7726
11918SOL     OW37427   8.321   3.499   5.912  0.2300 -0.0183 -0.7876
11918SOL    HW137428   8.276   3.568   5.960  1.7133 -0.1704  0.9322
11918SOL    HW237429   8.377   3.545   5.849  3.5919  0.7184  2.3925
11919SOL     OW37430   3.512   4.169   3.561  0.5132  0.0241  0.3577
11919SOL    HW137431   3.429   4.183   3.606 -0.6434 -0.9318 -1.4019
11919SOL    HW237432   3.493   4.186   3.469  2.0473 -1.1130 -0.2029
11920SOL     OW37433   0.987   9.503   5.306  0.5757 -0.0908  0.3078
11920SOL    HW137434   0.978   9.491   5.211  1.1412  1.4185  0.0216
11920SOL    HW237435   1.055   9.571   5.315 -2.4355  3.0742  1.5686
11921SOL     OW37436   5.376   8.951   2.549  0.7741 -0.1311 -0.1880
11921SOL    HW137437   5.447   8.891   2.526  1.4608  0.6214 -0.0367
11921SOL    HW237438   5.340   8.980   2.465  2.3257  1.4751 -0.3352
11922SOL     OW37439   7.868   4.507   0.491 -0.0309  0.5612 -0.1347
11922SOL    HW137440   7.838   4.546   0.573 -0.4172  1.9629 -0.9077
11922SOL    HW237441   7.936   4.445   0.518 -0.4746  0.6373  1.2708
11923SOL     OW37442   6.462   9.202   4.002 -0.6270  0.4684 -0.1096
11923SOL    HW137443   6.440   9.249   4.082 -2.0530 -0.9004  0.3403
11923SOL    HW237444   6.394   9.136   3.993 -0.7272  0.8451 -2.6962
11924SOL     OW37445   2.086   1.832   3.518 -0.1113 -0.6040  0.2763
11924SOL    HW137446   2.131   1.897   3.571  2.5844 -0.8703 -1.4908
11924SOL    HW237447   2.083   1.754   3.574  1.2358 -0.4257  0.6296
11925SOL     OW37448   0.493   2.205   3.630  0.4498  0.8192  0.4608
11925SOL    HW137449   0.456   2.137   3.687  0.1407 -0.1069 -0.7928
11925SOL    HW237450   0.568   2.162   3.589 -0.5320  0.7456 -1.3600
11926SOL     OW37451   0.933   5.949   7.774  0.2647  0.1949  0.1330
11926SOL    HW137452   0.907   5.983   7.688 -3.0402  1.5957  1.5159
11926SOL    HW237453   0.914   6.021   7.834 -1.1541 -1.9805  2.4641
11927SOL     OW37454   1.952   3.383   5.444  0.1333  0.7143 -0.1095
11927SOL    HW137455   1.861   3.360   5.459  0.0085  0.9452 -0.4917
11927SOL    HW237456   1.957   3.403   5.350 -0.4317  4.9063  0.5348
11928SOL     OW37457   6.029   4.630   7.904  0.2918 -0.3253  0.1103
11928SOL    HW137458   6.118   4.596   7.909 -0.4661 -2.6304 -0.8080
11928SOL    HW237459   5.983   4.589   7.978 -0.0531  0.7663  0.5262
11929SOL     OW37460   0.969   7.304   3.354 -0.1576 -0.3888 -0.5932
11929SOL    HW137461   0.929   7.351   3.280 -1.5321  0.7747  0.8321
11929SOL    HW237462   0.896   7.259   3.396  0.0919  1.0284  1.5327
11930SOL     OW37463   7.242   7.787   9.123  0.5556 -0.2797 -0.2206
11930SOL    HW137464   7.197   7.708   9.154  1.2975 -0.6559 -0.0760
11930SOL    HW237465   7.325   7.755   9.088  1.2586  0.5247  0.6572
11931SOL     OW37466   6.387   4.299   6.156  0.0104 -0.1119 -0.6557
11931SOL    HW137467   6.304   4.346   6.142 -2.0706 -3.6016 -1.1422
11931SOL    HW237468   6.428   4.299   6.069 -0.5136 -0.1607 -0.9096
11932SOL     OW37469   4.034   2.132   7.965  0.1303  0.3016 -0.4168
11932SOL    HW137470   4.063   2.056   8.016 -1.3151 -0.8111 -1.2052
11932SOL    HW237471   4.099   2.141   7.896  1.7399  1.4112  1.1454
11933SOL     OW37472   1.759   8.384   1.612 -0.2368 -0.1054  0.2661
11933SOL    HW137473   1.757   8.477   1.592 -0.2687  0.2195  1.6485
11933SOL    HW237474   1.852   8.361   1.612 -0.2067  0.0145  0.2854
11934SOL     OW37475   3.779   2.459   5.416 -0.4817  0.1220  0.1733
11934SOL    HW137476   3.804   2.394   5.482 -0.9520 -0.5200 -0.2679
11934SOL    HW237477   3.697   2.497   5.449 -0.7190 -0.2018 -0.0397
11935SOL     OW37478   7.466   4.648   4.773  0.4266 -0.1511  0.3045
11935SOL    HW137479   7.460   4.731   4.819  0.2973 -0.1268  0.2435
11935SOL    HW237480   7.492   4.585   4.840 -2.2911 -0.6424  1.0002
11936SOL     OW37481   4.269   3.784   7.277  0.2912 -0.1229 -0.3708
11936SOL    HW137482   4.252   3.690   7.273 -0.2478 -0.3014  3.0671
11936SOL    HW237483   4.360   3.793   7.251  0.0102 -1.4210 -1.9162
11937SOL     OW37484   3.586   7.875   5.191 -0.5741  0.4431 -0.7693
11937SOL    HW137485   3.681   7.877   5.185 -0.5549  1.4675 -0.2757
11937SOL    HW237486   3.557   7.958   5.151 -1.2536  0.1742 -0.8553
11938SOL     OW37487   4.425   9.011   4.129 -0.5177  0.1424 -0.0181
11938SOL    HW137488   4.380   9.048   4.054  0.4738 -0.9097 -1.1800
11938SOL    HW237489   4.389   8.923   4.139 -2.3557  1.0448  2.2791
11939SOL     OW37490   1.645   8.979   2.767  0.0652 -0.4467 -0.4426
11939SOL    HW137491   1.629   8.888   2.742 -1.0064 -0.0781 -1.1834
11939SOL    HW237492   1.695   8.974   2.848  3.6599 -1.7235 -2.5339
11940SOL     OW37493   7.442   0.935   3.585 -0.0186  0.2381 -0.0579
11940SOL    HW137494   7.383   0.882   3.532 -1.1098  1.6331 -0.3074
11940SOL    HW237495   7.524   0.937   3.536 -0.6796  0.6305 -1.1925
11941SOL     OW37496   8.520   5.432   9.097 -0.1081 -0.5118  0.3227
11941SOL    HW137497   8.460   5.407   9.167  0.2493  0.5997  1.0732
11941SOL    HW237498   8.607   5.427   9.138  0.0730  0.5591  0.1149
11942SOL     OW37499   4.416   1.290   6.587  0.1635  0.2894 -0.3118
11942SOL    HW137500   4.396   1.198   6.570  1.6112 -0.4932  1.7685
11942SOL    HW237501   4.331   1.333   6.593 -0.8135 -1.7214  2.4619
11943SOL     OW37502   4.503   5.288   3.459 -0.0156  0.9100 -0.2694
11943SOL    HW137503   4.589   5.313   3.425 -0.2480  1.6827 -0.3043
11943SOL    HW237504   4.502   5.320   3.550  0.1946 -0.1879  0.1302
11944SOL     OW37505   7.542   0.256   4.097 -0.6443 -0.3649 -0.8581
11944SOL    HW137506   7.461   0.306   4.110 -1.8934 -1.9567 -2.1120
11944SOL    HW237507   7.578   0.289   4.015 -1.0949 -1.0412 -1.3270
11945SOL     OW37508   0.341   7.907   4.957  0.0230  0.8156  0.1834
11945SOL    HW137509   0.317   7.973   4.891 -0.0084 -2.0890 -2.9962
11945SOL    HW237510   0.424   7.872   4.925  0.2946 -0.3544  2.0534
11946SOL     OW37511   4.133   0.757   0.405  0.1287 -0.0316 -0.0779
11946SOL    HW137512   4.100   0.827   0.462  0.4303 -0.9778  1.2932
11946SOL    HW237513   4.054   0.715   0.371 -0.0591  0.9705 -0.9539
11947SOL     OW37514   7.863   0.768   9.280  0.1879  0.4028 -0.0248
11947SOL    HW137515   7.885   0.675   9.275  0.8720  0.6021 -0.8779
11947SOL    HW237516   7.769   0.769   9.297  0.6130 -0.4842  3.0480
11948SOL     OW37517   2.071   0.648   2.470  0.0223  0.2144 -0.0779
11948SOL    HW137518   2.002   0.581   2.477 -1.3035  1.5969  0.8160
11948SOL    HW237519   2.152   0.598   2.464 -1.0382 -1.4841 -1.1894
11949SOL     OW37520   3.026   1.081   1.854  0.4954  0.2371  0.0854
11949SOL    HW137521   2.962   1.145   1.822  0.8267  1.5766  1.9374
11949SOL    HW237522   3.110   1.111   1.818  0.6205  0.7685  0.7914
11950SOL     OW37523   2.467   2.545   2.449  0.1373  0.3554 -0.3309
11950SOL    HW137524   2.389   2.511   2.405  0.3518 -0.6424  0.0324
11950SOL    HW237525   2.473   2.494   2.530  0.3388  1.4342  0.3607
11951SOL     OW37526   0.788   4.154   8.152 -0.3638  0.1645  0.1385
11951SOL    HW137527   0.784   4.244   8.119  1.8704 -0.1349 -1.1405
11951SOL    HW237528   0.846   4.109   8.091  0.5988 -1.5114  2.1790
11952SOL     OW37529   8.798   9.589   5.207  0.3605 -0.7160  0.2169
11952SOL    HW137530   8.893   9.580   5.211  0.6835  2.0018  3.7385
11952SOL    HW237531   8.764   9.514   5.256  0.9738  0.0381  1.8640
11953SOL     OW37532   8.667   9.305   1.378 -0.2685  0.3320 -0.4029
11953SOL    HW137533   8.617   9.229   1.404  0.4679 -0.6175 -1.6481
11953SOL    HW237534   8.615   9.347   1.309 -0.0019  0.1341 -0.7260
11954SOL     OW37535   8.482   5.386   3.320  0.2195 -0.4542  0.5356
11954SOL    HW137536   8.466   5.472   3.360 -1.1380  0.5435 -1.9030
11954SOL    HW237537   8.402   5.337   3.335 -0.1291 -0.2270 -0.4845
11955SOL     OW37538   9.051   4.056   7.289 -0.3962 -0.0813 -0.2217
11955SOL    HW137539   9.124   4.093   7.240 -0.5010  1.8245  0.9661
11955SOL    HW237540   9.090   4.024   7.371 -0.8204  0.6138  0.2608
11956SOL     OW37541   6.422   0.765   7.705 -0.2428 -0.1827  0.4006
11956SOL    HW137542   6.444   0.767   7.611  0.0639 -0.2943  0.4668
11956SOL    HW237543   6.375   0.683   7.716  2.6201 -1.8921  0.9414
11957SOL     OW37544   4.203   4.294   2.972 -0.3857 -0.0304  0.5166
11957SOL    HW137545   4.148   4.362   2.933 -1.9377 -2.1948 -1.3803
11957SOL    HW237546   4.194   4.306   3.067 -2.3698  1.0697  0.2292
11958SOL     OW37547   8.347   0.026   6.221  0.3098  0.1557 -0.5496
11958SOL    HW137548   8.344  -0.064   6.255 -0.9779  1.0287  1.8655
11958SOL    HW237549   8.421   0.066   6.267 -0.9695  1.1277  0.7783
11959SOL     OW37550   3.422   2.776   0.720  0.8076 -0.3229  0.0065
11959SOL    HW137551   3.350   2.718   0.743  0.5062  0.4119  0.9966
11959SOL    HW237552   3.401   2.806   0.631 -1.4867  1.8049  1.1311
11960SOL     OW37553   6.137   0.287   1.469 -0.4093 -0.0705  0.2445
11960SOL    HW137554   6.173   0.292   1.557 -0.1812  2.9083  0.0543
11960SOL    HW237555   6.043   0.304   1.480 -0.2253  1.2690 -0.1596
11961SOL     OW37556   4.081   5.457   4.608 -0.9257  0.0177 -0.2814
11961SOL    HW137557   3.991   5.479   4.631 -0.2172  2.0671  0.8248
11961SOL    HW237558   4.131   5.536   4.629  0.9077 -0.4708 -2.4117
11962SOL     OW37559   4.043   5.111   6.697 -0.6475 -0.1290 -0.6058
11962SOL    HW137560   4.097   5.178   6.739  2.0115 -1.2839 -1.9534
11962SOL    HW237561   3.970   5.159   6.659  0.4335  1.8141 -0.3370
11963SOL     OW37562   6.329   3.154   7.200 -0.1666  0.6919  0.4995
11963SOL    HW137563   6.270   3.221   7.167 -1.1513 -0.8023 -0.9390
11963SOL    HW237564   6.365   3.191   7.281 -1.3566  2.5448  0.2347
11964SOL     OW37565   6.980   5.678   1.909  0.2462 -0.5057 -0.2552
11964SOL    HW137566   7.048   5.632   1.861  2.7214  1.8590  0.7399
11964SOL    HW237567   6.967   5.760   1.862 -0.4809 -0.0526  0.6816
11965SOL     OW37568   1.299   1.631   2.046 -0.2639  0.0794  0.2710
11965SOL    HW137569   1.259   1.608   1.962  1.1839 -0.3418 -0.3378
11965SOL    HW237570   1.287   1.725   2.053 -0.9516  0.0249 -0.1185
11966SOL     OW37571   0.727   7.785   7.883  0.3009 -0.7171 -0.3253
11966SOL    HW137572   0.675   7.735   7.820  0.3190 -0.4512 -0.5569
11966SOL    HW237573   0.784   7.840   7.828 -0.7694  0.6679 -0.1244
11967SOL     OW37574   7.121   3.316   1.794 -0.0620 -0.6376  0.0218
11967SOL    HW137575   7.086   3.257   1.727 -0.1654 -0.6864  0.1180
11967SOL    HW237576   7.090   3.403   1.770  2.1311 -0.1929 -1.5472
11968SOL     OW37577   8.903   5.937   5.314 -0.0743  0.4372 -0.0890
11968SOL    HW137578   8.963   5.865   5.295 -2.6765 -1.6529 -1.0850
11968SOL    HW237579   8.949   5.990   5.379  2.9766 -0.7092 -1.1297
11969SOL     OW37580   0.755   2.656   2.798  0.0287  0.0415 -0.3213
11969SOL    HW137581   0.708   2.587   2.846  0.4816  0.4097  0.6676
11969SOL    HW237582   0.785   2.613   2.718 -1.9072 -0.2371 -0.9575
11970SOL     OW37583   3.130   4.042   6.865 -0.1571  0.0187 -0.3779
11970SOL    HW137584   3.149   3.965   6.920 -3.3296 -0.7848 -0.2544
11970SOL    HW237585   3.102   4.109   6.928  0.9101  0.7687 -0.6608
11971SOL     OW37586   5.580   8.263   1.412 -0.3503  0.3723 -0.3019
11971SOL    HW137587   5.505   8.209   1.437  1.8647 -1.4784  3.2271
11971SOL    HW237588   5.637   8.204   1.362 -0.2354  1.0710 -1.0122
11972SOL     OW37589   4.872   4.803   2.695  0.1569  0.2246 -0.1893
11972SOL    HW137590   4.869   4.862   2.771 -0.9180  0.1298 -0.1398
11972SOL    HW237591   4.902   4.858   2.623 -0.7187  0.8126 -0.1179
11973SOL     OW37592   5.722   8.335   1.750  0.5132 -0.2088 -0.0486
11973SOL    HW137593   5.730   8.405   1.685  0.7992  0.9246  1.1724
11973SOL    HW237594   5.784   8.268   1.721  0.4954  0.1839 -1.0336
11974SOL     OW37595   1.011   3.559   9.596  0.1105 -0.5011  0.6238
11974SOL    HW137596   1.038   3.650   9.606  0.1793 -0.3647 -0.5879
11974SOL    HW237597   0.938   3.548   9.657 -1.1677  0.9415 -0.5626
11975SOL     OW37598   2.593   5.957   4.905  0.5981 -0.3156 -0.0692
11975SOL    HW137599   2.639   6.014   4.843  0.4409  0.0780  0.1687
11975SOL    HW237600   2.503   5.954   4.871  0.0511  1.3810  1.1205
11976SOL     OW37601   1.877   6.650   6.048 -0.1398 -0.6471 -0.2976
11976SOL    HW137602   1.902   6.738   6.077 -0.5857  0.0422 -1.8450
11976SOL    HW237603   1.958   6.611   6.016  0.0390 -0.7650  0.2887
11977SOL     OW37604   3.252   2.464   0.444  0.2292  0.3825 -0.0001
11977SOL    HW137605   3.339   2.452   0.407 -0.6348 -0.5531 -1.8301
11977SOL    HW237606   3.192   2.457   0.370 -1.4195  1.2599  1.1589
11978SOL     OW37607   5.958   3.531   3.569 -0.3104 -0.2498  0.6838
11978SOL    HW137608   6.012   3.603   3.538  1.4257 -1.9969 -0.5427
11978SOL    HW237609   5.887   3.523   3.504 -0.1150 -0.0784  0.4515
11979SOL     OW37610   9.327   2.412   0.952  0.0806  0.2112 -0.2393
11979SOL    HW137611   9.354   2.482   0.892 -0.0653  0.4072 -0.0816
11979SOL    HW237612   9.277   2.352   0.897 -0.0035  0.3601 -0.3277
11980SOL     OW37613   4.028   2.449   8.375  0.5600  0.0740  0.2320
11980SOL    HW137614   3.956   2.407   8.421 -0.1546  1.6512  0.6365
11980SOL    HW237615   4.063   2.381   8.317 -0.6758 -0.9725  0.6685
11981SOL     OW37616   8.986   6.044   2.493  0.2518  0.3312 -0.0210
11981SOL    HW137617   9.042   6.036   2.416 -3.0916 -0.8359 -2.5744
11981SOL    HW237618   8.947   6.131   2.486 -0.8510 -0.1678 -0.2772
11982SOL     OW37619   7.392   2.988   9.215  0.0478 -0.3948  0.4005
11982SOL    HW137620   7.338   3.065   9.196  0.5612  0.1333  1.0251
11982SOL    HW237621   7.477   3.009   9.175 -0.2227 -1.2650 -0.6712
11983SOL     OW37622   7.877   2.183   9.028  0.8493  0.5273 -0.8246
11983SOL    HW137623   7.786   2.208   9.012  0.8647  0.8925 -0.3773
11983SOL    HW237624   7.927   2.260   9.002  1.1268 -0.0740 -2.1379
11984SOL     OW37625   9.450   1.470   5.582  0.1290  0.0082 -0.4193
11984SOL    HW137626   9.541   1.494   5.564  0.0004  0.7131 -0.1663
11984SOL    HW237627   9.419   1.430   5.501  1.2163 -2.0134  0.0803
11985SOL     OW37628   7.329   4.501   6.472  0.2173 -0.1467  0.0915
11985SOL    HW137629   7.416   4.514   6.432  1.1715 -0.9750  1.8009
11985SOL    HW237630   7.276   4.573   6.436  1.3068 -0.1853 -1.7446
11986SOL     OW37631   1.958   3.041   5.267  0.7410  0.2789 -0.5098
11986SOL    HW137632   2.033   2.990   5.299  1.5246  0.1724 -2.3521
11986SOL    HW237633   1.903   3.055   5.344  1.1399 -2.2308  0.3286
11987SOL     OW37634   5.399   8.603   1.748 -0.3677  0.4626 -0.0263
11987SOL    HW137635   5.490   8.620   1.772  0.3730 -3.6305  0.8045
11987SOL    HW237636   5.405   8.552   1.667 -1.9644  0.2903 -0.0644
11988SOL     OW37637   5.346   8.962   0.404 -0.3914  0.4112  0.1547
11988SOL    HW137638   5.253   8.987   0.408 -0.6526  0.0849 -2.3622
11988SOL    HW237639   5.344   8.867   0.389  0.2611  0.6025 -1.3088
11989SOL     OW37640   8.941   7.652   5.376 -0.1117 -0.9746  0.2815
11989SOL    HW137641   9.024   7.679   5.416  0.4974 -0.1018 -1.4274
11989SOL    HW237642   8.887   7.622   5.449  1.0887  0.0522  1.6516
11990SOL     OW37643   2.792   0.055   0.597 -0.3400  0.1198  0.9147
11990SOL    HW137644   2.844   0.099   0.530 -0.4813  1.0421  1.4029
11990SOL    HW237645   2.732  -0.001   0.549 -0.2148  0.5215  0.2899
11991SOL     OW37646   1.097   2.995   5.151  0.1176  0.1018  0.1753
11991SOL    HW137647   1.071   2.951   5.069 -2.0489  1.4875  0.0250
11991SOL    HW237648   1.014   3.009   5.197  0.8756  2.5322  0.9318
11992SOL     OW37649   4.148   0.748   7.105  0.0067  0.0958  0.1923
11992SOL    HW137650   4.079   0.766   7.168  0.9704  1.4519  0.9349
11992SOL    HW237651   4.115   0.781   7.022 -0.1201  1.0468  0.6107
11993SOL     OW37652   0.689   0.672   5.857  0.6032  0.6078  0.1274
11993SOL    HW137653   0.750   0.635   5.793  0.8762  0.5903  0.3930
11993SOL    HW237654   0.602   0.644   5.827  0.8543 -1.0066  0.8023
11994SOL     OW37655   1.913   0.722   7.788  0.5418 -0.5656  0.9024
11994SOL    HW137656   1.983   0.748   7.729  0.0424 -0.4551  0.3480
11994SOL    HW237657   1.932   0.630   7.809  0.7629 -0.5842  0.6312
11995SOL     OW37658   7.055   1.316   0.578  0.0896  0.2415 -0.3692
11995SOL    HW137659   7.101   1.310   0.494 -0.8519  3.2530 -1.2274
11995SOL    HW237660   6.962   1.306   0.554 -0.0740 -0.8765  0.6433
11996SOL     OW37661   1.649   7.630   3.498  0.1813  0.1087 -0.0215
11996SOL    HW137662   1.676   7.538   3.489 -0.6642 -0.1246 -0.2655
11996SOL    HW237663   1.669   7.651   3.589 -1.2530 -0.8907  0.5672
11997SOL     OW37664   6.341   5.542   0.399  0.3061  0.3623 -0.2726
11997SOL    HW137665   6.396   5.610   0.361  0.0110  0.7243 -0.0615
11997SOL    HW237666   6.282   5.515   0.328  0.1626  0.6064 -0.2475
11998SOL     OW37667   8.573   7.721   0.482  0.6597  0.1648 -0.9736
11998SOL    HW137668   8.484   7.744   0.510  0.7744 -0.0099 -0.4569
11998SOL    HW237669   8.628   7.741   0.558  1.2785  1.6312 -1.7596
11999SOL     OW37670   5.756   2.007   0.077 -0.1546  0.9206 -0.2217
11999SOL    HW137671   5.707   2.090   0.074 -0.1096  0.9303 -2.3443
11999SOL    HW237672   5.725   1.964   0.156 -0.0566  3.0355  1.0442
12000SOL     OW37673   5.395   3.105   8.805  0.4737  0.1036  0.1265
12000SOL    HW137674   5.470   3.047   8.789  0.1369  0.0423 -1.4915
12000SOL    HW237675   5.388   3.158   8.725 -0.3445  1.0971  0.8272
12001SOL     OW37676   5.982   0.370   7.793  0.1235 -0.2923  0.9184
12001SOL    HW137677   5.938   0.402   7.715 -1.0950 -0.8952  1.3458
12001SOL    HW237678   5.923   0.390   7.866  0.9234 -0.3557  1.6146
12002SOL     OW37679   4.956   1.151   9.095 -0.5740 -0.0960 -0.2432
12002SOL    HW137680   5.028   1.140   9.157 -0.7810  0.5882  0.1318
12002SOL    HW237681   4.907   1.226   9.129 -1.2468 -0.3220 -0.6999
12003SOL     OW37682   8.737   6.183   3.667  0.7568 -0.1622 -0.0547
12003SOL    HW137683   8.743   6.261   3.612  0.7314 -0.2747 -0.2176
12003SOL    HW237684   8.760   6.110   3.609 -1.3054 -0.5247 -0.4885
12004SOL     OW37685   9.637   2.084   0.769 -0.2695  0.1572 -0.2289
12004SOL    HW137686   9.669   2.174   0.770 -1.8685  0.7767 -0.9745
12004SOL    HW237687   9.584   2.076   0.848 -1.0769  0.2676 -0.7429
12005SOL     OW37688   7.510   1.222   8.491  0.5535 -0.4486  0.0025
12005SOL    HW137689   7.565   1.271   8.553 -1.1792  1.4260  0.1749
12005SOL    HW237690   7.434   1.194   8.543  0.4634 -1.4297 -0.6284
12006SOL     OW37691   7.035   7.680   1.460 -0.2999 -0.0395  0.3142
12006SOL    HW137692   7.060   7.591   1.435 -0.8699  0.0062 -0.4754
12006SOL    HW237693   6.980   7.711   1.387  0.6067  1.2846  0.1474
12007SOL     OW37694   3.607   6.433   8.098 -0.1871  0.2971  0.5177
12007SOL    HW137695   3.681   6.373   8.110 -1.1835 -0.8816  1.1499
12007SOL    HW237696   3.530   6.377   8.109 -1.1784  1.8231  1.7803
12008SOL     OW37697   9.580   6.085   0.172  0.0997  0.2049  0.1360
12008SOL    HW137698   9.587   6.176   0.143  1.0549 -0.5099 -2.0806
12008SOL    HW237699   9.662   6.067   0.217  0.7350 -0.0827 -1.1063
12009SOL     OW37700   3.519   1.687   7.478  0.3834 -0.6928 -0.0208
12009SOL    HW137701   3.589   1.639   7.433  1.4964  0.0808  0.8393
12009SOL    HW237702   3.492   1.628   7.549  1.3788 -0.2931  0.7066
12010SOL     OW37703   8.883   6.278   4.950  0.0173 -0.1960  0.8160
12010SOL    HW137704   8.813   6.276   4.885  1.4179  1.1594 -0.8226
12010SOL    HW237705   8.897   6.186   4.973 -1.1918 -0.6085 -0.0116
12011SOL     OW37706   2.184   6.194   8.518  0.3380 -0.0134  0.3054
12011SOL    HW137707   2.159   6.282   8.546 -1.0296  0.4914 -2.2104
12011SOL    HW237708   2.117   6.137   8.554 -1.2663  0.5977 -1.5230
12012SOL     OW37709   9.376   4.723   7.469 -0.3140 -0.2560 -0.4621
12012SOL    HW137710   9.375   4.783   7.543  0.5956  0.1134 -0.7324
12012SOL    HW237711   9.443   4.759   7.410 -0.4792 -0.9682 -1.0980
12013SOL     OW37712   4.259   1.433   5.466 -0.5051 -0.2376  0.0136
12013SOL    HW137713   4.247   1.504   5.529  0.5708 -0.3004  0.3184
12013SOL    HW237714   4.345   1.450   5.427 -1.9015  0.8890 -2.9030
12014SOL     OW37715   2.578   3.312   4.628 -0.2485  0.2142 -0.4687
12014SOL    HW137716   2.604   3.221   4.609  0.1787  0.5531 -1.5783
12014SOL    HW237717   2.517   3.304   4.701 -0.8866 -1.0527 -1.0954
12015SOL     OW37718   1.746   0.776   0.440 -0.6768 -0.3863 -0.6129
12015SOL    HW137719   1.776   0.689   0.465 -1.9760 -0.8185 -0.4620
12015SOL    HW237720   1.780   0.788   0.351  1.4001 -0.0860  0.1696
12016SOL     OW37721   4.618   2.072   2.697  0.2181  0.6983 -0.2970
12016SOL    HW137722   4.708   2.039   2.704  0.2806  1.1748  1.8174
12016SOL    HW237723   4.565   2.002   2.736  0.1067  1.9324  1.9341
12017SOL     OW37724   0.609   3.509   6.617 -0.2905  0.1325  0.7732
12017SOL    HW137725   0.579   3.419   6.622 -1.0574  0.1494 -1.9078
12017SOL    HW237726   0.704   3.503   6.619 -0.3433 -0.6889  1.1542
12018SOL     OW37727   2.643   9.538   2.139 -0.1030 -0.1996  0.5444
12018SOL    HW137728   2.673   9.537   2.048  1.1995 -1.1204  0.9700
12018SOL    HW237729   2.707   9.486   2.187 -1.8415 -1.3931  1.6661
12019SOL     OW37730   0.469   4.720   9.284  0.0906  0.2501  0.5746
12019SOL    HW137731   0.502   4.654   9.345  0.2744 -0.0679  0.1411
12019SOL    HW237732   0.387   4.683   9.251  0.1560  0.2695  0.3873
12020SOL     OW37733   2.816   7.830   1.537 -0.7585  0.2190  0.1202
12020SOL    HW137734   2.746   7.811   1.599 -1.6123  0.0481 -0.8616
12020SOL    HW237735   2.847   7.744   1.508 -1.7126  0.2732 -1.1398
12021SOL     OW37736   3.031   3.316   6.206  0.1329  0.1503  0.1716
12021SOL    HW137737   3.114   3.291   6.246  0.9711  1.9498 -0.3331
12021SOL    HW237738   3.031   3.273   6.120 -0.3919 -1.4363  0.9277
12022SOL     OW37739   2.403   3.051   3.715  0.5382 -0.0555  0.2219
12022SOL    HW137740   2.327   3.002   3.749  0.8621 -0.2445  0.6766
12022SOL    HW237741   2.466   3.051   3.787  0.5001  1.1369  0.2656
12023SOL     OW37742   1.008   3.581   2.993  0.0508 -0.1142 -0.4157
12023SOL    HW137743   0.938   3.531   3.037 -0.1170 -0.6426 -1.2697
12023SOL    HW237744   1.055   3.516   2.941  0.8636  0.3389 -0.2630
12024SOL     OW37745   4.344   4.005   7.421  0.5637 -0.3201  0.7281
12024SOL    HW137746   4.426   3.975   7.460  0.8179 -0.2615  0.2581
12024SOL    HW237747   4.311   3.929   7.373  0.9569 -0.0166 -0.0561
12025SOL     OW37748   2.790   7.906   0.156  0.1256  0.2721 -0.4102
12025SOL    HW137749   2.717   7.912   0.218  0.1783  2.1945 -0.4826
12025SOL    HW237750   2.771   7.828   0.104 -0.4435 -0.8122  1.3301
12026SOL     OW37751   7.151   4.265   8.869  0.7602 -0.1744  0.4367
12026SOL    HW137752   7.098   4.192   8.901 -1.4214  1.1890  0.1462
12026SOL    HW237753   7.230   4.224   8.834 -0.2613 -2.3514  0.5295
12027SOL     OW37754   4.669   0.472   5.099  0.2537  0.7307 -0.0618
12027SOL    HW137755   4.621   0.519   5.031  0.5109 -0.1301 -0.8558
12027SOL    HW237756   4.747   0.439   5.055  1.1527  1.3863  1.0078
12028SOL     OW37757   8.752   9.533   0.222  0.1789  0.1528  0.1528
12028SOL    HW137758   8.740   9.512   0.129  0.7076 -0.0851  0.1371
12028SOL    HW237759   8.749   9.448   0.266 -1.3207  0.3478  0.5094
12029SOL     OW37760   5.341   2.323   4.697 -0.0569 -0.2698 -0.4475
12029SOL    HW137761   5.391   2.370   4.630 -0.8981  0.3966 -0.6175
12029SOL    HW237762   5.316   2.391   4.760  0.5239 -0.8481  0.4299
12030SOL     OW37763   5.211   7.451   7.246  0.2434 -0.0415 -0.0292
12030SOL    HW137764   5.137   7.433   7.305 -0.1231  2.4406  0.3857
12030SOL    HW237765   5.182   7.526   7.194  2.7692  1.6157  0.7804
12031SOL     OW37766   5.515   5.737   9.400  0.3234  0.2621 -0.2882
12031SOL    HW137767   5.544   5.790   9.474 -0.5950  0.9876 -0.4324
12031SOL    HW237768   5.523   5.646   9.431 -0.9783  0.5796  1.0668
12032SOL     OW37769   7.897   3.936   2.455  0.3903 -0.2188 -0.0005
12032SOL    HW137770   7.951   3.859   2.439  0.5154  0.0401 -0.9159
12032SOL    HW237771   7.809   3.909   2.429  0.2379 -0.3652  0.6510
12033SOL     OW37772   3.656   7.233   0.517 -0.6249 -0.1564 -0.0537
12033SOL    HW137773   3.649   7.218   0.612 -0.3669  0.6688  0.1068
12033SOL    HW237774   3.750   7.228   0.499 -0.7045 -0.7061 -0.3439
12034SOL     OW37775   6.109   1.557   0.652  0.2046  0.2921 -0.1596
12034SOL    HW137776   6.099   1.509   0.734  0.4600 -0.5941 -0.6387
12034SOL    HW237777   6.028   1.608   0.644 -0.3620 -0.5532  0.0492
12035SOL     OW37778   1.638   1.125   0.026  0.1362 -0.2354 -0.1352
12035SOL    HW137779   1.610   1.124   0.117 -1.1537 -0.9716 -0.5014
12035SOL    HW237780   1.603   1.207  -0.009  1.0950  0.3063  0.1510
12036SOL     OW37781   2.516   8.317   9.645 -0.3447 -0.1267  0.3228
12036SOL    HW137782   2.496   8.315   9.739 -0.2450 -0.5938  0.3375
12036SOL    HW237783   2.593   8.261   9.636  2.8829  3.7222  0.7064
12037SOL     OW37784   0.515   3.241   7.367 -0.2677 -0.5319 -0.6987
12037SOL    HW137785   0.498   3.325   7.324  0.2122  0.0015  0.1160
12037SOL    HW237786   0.574   3.195   7.307 -2.2528 -1.2384 -2.2055
12038SOL     OW37787   3.451   1.362   2.715 -0.1362  0.0187 -0.6549
12038SOL    HW137788   3.497   1.442   2.688 -0.0124 -0.2267 -1.1911
12038SOL    HW237789   3.475   1.297   2.649 -0.3126 -0.4383 -0.2745
12039SOL     OW37790   3.442   8.658   1.508 -0.2423  0.0447 -0.1321
12039SOL    HW137791   3.454   8.714   1.585 -1.8612 -1.3819  1.2438
12039SOL    HW237792   3.519   8.676   1.453 -0.2241  2.8752  0.6504
12040SOL     OW37793   2.874   4.657   9.555 -0.0519 -0.8991  0.3386
12040SOL    HW137794   2.952   4.612   9.589 -0.4100 -1.4583  0.4245
12040SOL    HW237795   2.866   4.735   9.611  2.0563  0.6893 -1.4112
12041SOL     OW37796   1.003   4.992   7.829  0.2271 -0.2726 -0.6351
12041SOL    HW137797   0.923   4.958   7.869 -0.4651 -1.4884 -2.8631
12041SOL    HW237798   1.063   4.917   7.827  2.2421  1.0449  2.6354
12042SOL     OW37799   1.625   0.583   0.618 -0.2941 -0.0619  0.6535
12042SOL    HW137800   1.670   0.592   0.702 -0.2172  0.2807  0.5782
12042SOL    HW237801   1.545   0.634   0.629  0.0896  0.6418  0.2580
12043SOL     OW37802   9.539   2.028   3.977  0.1387 -0.5274  0.1012
12043SOL    HW137803   9.627   2.055   4.001 -0.2264  0.2074  0.6797
12043SOL    HW237804   9.527   1.943   4.019  0.8852 -1.0701 -0.7484
12044SOL     OW37805   3.825   3.656   2.130  0.2674 -0.6646 -0.2466
12044SOL    HW137806   3.740   3.641   2.090  0.7243 -2.0219 -0.7662
12044SOL    HW237807   3.888   3.616   2.070  1.0277 -2.1957  1.4769
12045SOL     OW37808   8.228   4.604   7.658  0.4791  0.4416  0.0072
12045SOL    HW137809   8.311   4.638   7.626  1.3085 -0.2840  1.2955
12045SOL    HW237810   8.218   4.641   7.745 -0.0050 -0.3362  0.2978
12046SOL     OW37811   4.810   8.792   0.518  0.0714  0.0986 -0.2109
12046SOL    HW137812   4.763   8.716   0.551 -0.8599  0.8967  0.3437
12046SOL    HW237813   4.875   8.811   0.586 -1.1904  1.1422  0.7512
12047SOL     OW37814   9.494   8.241   2.996 -0.2450  0.8410  0.3975
12047SOL    HW137815   9.482   8.278   3.084 -1.3692 -0.8213  0.9936
12047SOL    HW237816   9.588   8.243   2.983  0.2951 -1.5634  2.9410
12048SOL     OW37817   7.791   4.330   1.276 -0.2037  0.4303  0.5519
12048SOL    HW137818   7.852   4.283   1.334 -0.0607 -1.0620 -0.7289
12048SOL    HW237819   7.787   4.418   1.312  1.6593  0.1940  1.4958
12049SOL     OW37820   0.741   2.791   3.462 -0.0128  0.3375  0.2987
12049SOL    HW137821   0.767   2.784   3.370 -0.2957 -1.8938  0.3335
12049SOL    HW237822   0.782   2.872   3.493 -1.0281  1.8935 -2.1165
12050SOL     OW37823   1.188   0.631   2.284  0.2163  0.1208 -0.4233
12050SOL    HW137824   1.170   0.575   2.208 -0.6275  0.9429 -0.8470
12050SOL    HW237825   1.149   0.715   2.261  0.3298  0.5035  0.7543
12051SOL     OW37826   1.443   7.483   3.881 -0.5428 -0.0240  0.3113
12051SOL    HW137827   1.412   7.394   3.896 -0.3848 -0.3857 -1.2884
12051SOL    HW237828   1.407   7.506   3.795  0.3955  1.0029  0.1755
12052SOL     OW37829   2.252   1.989   6.006  0.4851  0.0688 -0.2649
12052SOL    HW137830   2.330   1.990   6.061 -0.2900 -1.0821  0.9008
12052SOL    HW237831   2.196   1.921   6.044 -0.1986 -0.6057 -2.3096
12053SOL     OW37832   8.382   2.914   1.446 -0.2192 -0.5296  0.4409
12053SOL    HW137833   8.457   2.974   1.442  0.1518 -0.7961  2.5054
12053SOL    HW237834   8.335   2.940   1.525 -0.2503 -2.6987  1.1810
12054SOL     OW37835   4.800   4.011   3.993 -0.4817 -0.1361 -0.2859
12054SOL    HW137836   4.790   3.924   4.029  0.0003 -0.0974 -0.0426
12054SOL    HW237837   4.877   4.047   4.037 -0.1366  0.0720 -1.0336
12055SOL     OW37838   9.223   3.347   9.153  0.0861 -0.1598 -0.4011
12055SOL    HW137839   9.204   3.278   9.090  0.0282 -1.8522  1.3835
12055SOL    HW237840   9.317   3.340   9.169 -0.2240 -1.1798  1.2203
12056SOL     OW37841   6.135   0.059   8.096 -0.1836  0.0493  0.2679
12056SOL    HW137842   6.143   0.008   8.176  0.8735  0.8834  0.7177
12056SOL    HW237843   6.060   0.116   8.111  0.7167  1.0451  1.1797
12057SOL     OW37844   4.104   6.992   5.975 -0.3072  0.0608  0.2211
12057SOL    HW137845   4.152   6.911   5.962 -0.4575  0.3707 -2.8745
12057SOL    HW237846   4.052   6.977   6.054  1.5075 -1.8786  1.1289
12058SOL     OW37847   2.706   5.226   2.470 -0.0961  0.4381  0.0278
12058SOL    HW137848   2.615   5.197   2.480 -0.0698  0.0378 -0.7668
12058SOL    HW237849   2.703   5.321   2.480 -0.6282  0.4420 -0.1663
12059SOL     OW37850   9.115   4.416   1.341  0.0721  0.7923 -0.4894
12059SOL    HW137851   9.089   4.505   1.318 -2.1801  0.4614  0.5439
12059SOL    HW237852   9.135   4.421   1.435  0.9834  0.4132 -0.6513
12060SOL     OW37853   7.873   8.791   3.235  0.2967 -0.3314 -0.3291
12060SOL    HW137854   7.817   8.719   3.267 -1.1199  0.6943 -0.4085
12060SOL    HW237855   7.904   8.834   3.315 -0.7470  0.3646 -0.2847
12061SOL     OW37856   7.751   6.716   1.894  0.6724  0.0634  0.2438
12061SOL    HW137857   7.803   6.693   1.971  0.5748 -0.4837  0.1540
12061SOL    HW237858   7.777   6.806   1.873 -0.1348  0.6450  1.5986
12062SOL     OW37859   5.995   2.607   1.565  0.1695 -0.2597 -0.0484
12062SOL    HW137860   5.940   2.546   1.614  0.1407 -0.6618 -0.5810
12062SOL    HW237861   5.962   2.603   1.475 -0.4672  1.2572  0.0801
12063SOL     OW37862   3.559   5.994   6.060 -0.3592  0.2198 -0.1136
12063SOL    HW137863   3.495   5.954   6.001 -1.2690  1.8235 -0.2643
12063SOL    HW237864   3.638   5.940   6.050 -1.4047 -1.3078 -0.5353
12064SOL     OW37865   3.907   2.063   8.894  0.4238 -0.0824  0.2261
12064SOL    HW137866   3.900   2.120   8.817 -1.0399  1.0637  1.1323
12064SOL    HW237867   3.890   2.122   8.968  1.2688 -1.2604  1.3851
12065SOL     OW37868   7.509   8.624   3.461  0.2477  0.3208 -0.3818
12065SOL    HW137869   7.435   8.667   3.504  0.6885  0.2281  0.4999
12065SOL    HW237870   7.586   8.672   3.492  0.7047 -0.7683  0.2418
12066SOL     OW37871   3.470   4.591   4.910 -0.3579 -0.2473 -0.7263
12066SOL    HW137872   3.379   4.571   4.932 -0.1259 -0.4907  0.0187
12066SOL    HW237873   3.522   4.540   4.973  0.2805  0.5523 -0.5976
12067SOL     OW37874   5.561   7.105   9.664 -0.1507 -0.0883  0.4306
12067SOL    HW137875   5.585   7.022   9.705  2.3723  0.4197  0.1455
12067SOL    HW237876   5.469   7.094   9.640 -0.5298 -1.9436  2.4029
12068SOL     OW37877   2.492   5.016   1.904  0.4386 -0.5693 -0.3833
12068SOL    HW137878   2.524   5.084   1.844 -0.6182 -1.1665 -1.6852
12068SOL    HW237879   2.495   4.936   1.852 -3.7264 -0.5906 -0.9155
12069SOL     OW37880   8.947   4.271   9.345 -0.0982  0.6032 -0.6013
12069SOL    HW137881   8.903   4.212   9.284 -0.4760  0.0508  0.1957
12069SOL    HW237882   9.016   4.218   9.385 -0.0637  0.8629 -0.3135
12070SOL     OW37883   5.813   6.874   6.671 -0.1461 -0.7201  0.2877
12070SOL    HW137884   5.784   6.786   6.647  1.1260 -0.7884 -1.1392
12070SOL    HW237885   5.891   6.861   6.724 -1.2358 -0.4802  2.0024
12071SOL     OW37886   1.766   2.711   6.130  0.1323 -0.3768 -0.1995
12071SOL    HW137887   1.830   2.770   6.090 -0.4070 -0.5400 -1.3392
12071SOL    HW237888   1.696   2.768   6.161 -0.5066 -0.4176 -1.5249
12072SOL     OW37889   2.599   0.809   7.561  0.1396 -0.2401  0.2684
12072SOL    HW137890   2.599   0.888   7.506 -2.0493 -0.1062  0.3851
12072SOL    HW237891   2.513   0.770   7.546 -0.5850 -0.1754  3.6182
12073SOL     OW37892   5.448   8.409   3.650  0.1081 -0.3364  0.1867
12073SOL    HW137893   5.540   8.423   3.631 -0.2153  0.5820 -0.8294
12073SOL    HW237894   5.415   8.360   3.575 -0.7155  1.4189 -0.6655
12074SOL     OW37895   0.117   2.195   5.048 -0.3942 -0.1757 -0.0774
12074SOL    HW137896   0.075   2.269   5.092 -0.1331 -1.1911  2.0033
12074SOL    HW237897   0.045   2.142   5.014 -0.7087 -0.5048  1.0755
12075SOL     OW37898   6.068   2.118   4.107  0.0733 -0.0654 -0.2434
12075SOL    HW137899   5.988   2.168   4.121 -0.0637 -0.0183 -1.1663
12075SOL    HW237900   6.110   2.116   4.193 -0.2011  1.1427 -0.0588
12076SOL     OW37901   1.496   8.523   3.179  0.2910 -0.2229  0.1716
12076SOL    HW137902   1.564   8.476   3.227 -0.3068 -1.3265 -0.0243
12076SOL    HW237903   1.418   8.468   3.187 -0.5322  0.9016  0.1937
12077SOL     OW37904   9.419   5.339   6.159  0.3164 -0.5505 -0.0312
12077SOL    HW137905   9.383   5.371   6.076  0.7003  0.7368  0.2676
12077SOL    HW237906   9.369   5.386   6.226  1.7304  0.4007  0.4070
12078SOL     OW37907   5.461   4.136   6.645  0.7835  0.2977  0.2051
12078SOL    HW137908   5.514   4.215   6.652  2.3980 -0.5277 -1.7957
12078SOL    HW237909   5.376   4.167   6.613  1.7497  1.1771 -1.6785
12079SOL     OW37910   1.681   3.672   2.924 -0.8421 -0.5082  0.2013
12079SOL    HW137911   1.616   3.743   2.927  0.0325  0.4013 -1.0817
12079SOL    HW237912   1.749   3.705   2.866  0.8986 -1.3561  1.6699
12080SOL     OW37913   5.588   9.486   2.390 -0.4446  0.4472 -0.4155
12080SOL    HW137914   5.594   9.414   2.327 -0.3635  1.0915 -1.1576
12080SOL    HW237915   5.583   9.442   2.475 -2.2199 -0.5020 -0.9411
12081SOL     OW37916   3.623   3.334   6.925  0.0681 -0.5661  0.4042
12081SOL    HW137917   3.629   3.274   7.000  0.1996 -1.3102 -0.1860
12081SOL    HW237918   3.682   3.406   6.947  0.9330 -1.2954  0.5586
12082SOL     OW37919   3.144   7.548   8.544  0.1391  0.5037  0.4514
12082SOL    HW137920   3.143   7.519   8.635 -1.2459  2.4900  1.1483
12082SOL    HW237921   3.227   7.594   8.535  0.3754  0.1213  0.6351
12083SOL     OW37922   2.950   5.449   7.285  0.0148  0.0680 -0.3629
12083SOL    HW137923   2.958   5.428   7.191 -0.3724 -0.9688 -0.1837
12083SOL    HW237924   3.039   5.464   7.314  0.3129 -1.2298 -0.5588
12084SOL     OW37925   5.387   3.098   1.125 -0.8885  0.2414 -0.1884
12084SOL    HW137926   5.461   3.037   1.122 -2.0113 -1.1812 -0.7937
12084SOL    HW237927   5.312   3.045   1.097 -2.0766  1.7194  0.0539
12085SOL     OW37928   8.272   0.381   0.916  0.3630  0.0160 -0.0354
12085SOL    HW137929   8.180   0.406   0.915  0.4752  0.4385 -0.2800
12085SOL    HW237930   8.311   0.438   0.983  0.3151 -0.6731  0.5977
12086SOL     OW37931   4.163   0.962   6.742 -0.7189 -0.6751  0.0147
12086SOL    HW137932   4.225   1.011   6.687 -1.2399  0.0022  0.0208
12086SOL    HW237933   4.215   0.889   6.776  0.0614 -0.1801 -0.0600
12087SOL     OW37934   8.361   7.816   8.553  0.6359 -0.3594 -0.0416
12087SOL    HW137935   8.272   7.838   8.526  0.6347  0.2667  0.4258
12087SOL    HW237936   8.396   7.763   8.481  0.2078  0.1836 -0.6667
12088SOL     OW37937   6.608   0.251   0.679  0.2475 -0.0181 -0.0904
12088SOL    HW137938   6.521   0.228   0.648  0.4363  1.2069 -1.7080
12088SOL    HW237939   6.648   0.296   0.604  1.6212  1.0108  1.2104
12089SOL     OW37940   9.217   9.221   5.904 -0.1094 -0.2010 -0.5994
12089SOL    HW137941   9.246   9.311   5.918 -0.7427 -0.1746  0.6093
12089SOL    HW237942   9.276   9.187   5.837  1.0061  0.6898 -0.0894
12090SOL     OW37943   6.751   2.432   3.165 -0.3180  0.5981  0.0903
12090SOL    HW137944   6.821   2.389   3.117 -0.1390  1.8958 -0.8646
12090SOL    HW237945   6.788   2.450   3.251 -0.3527 -0.9836  0.4708
12091SOL     OW37946   4.749   9.055   0.460  0.3539  0.0593  0.3591
12091SOL    HW137947   4.684   9.057   0.530  0.8149  0.9011  0.7779
12091SOL    HW237948   4.776   8.963   0.455 -0.3110 -0.1627  0.6852
12092SOL     OW37949   3.025   0.722   5.412  0.2327  0.6546 -0.4936
12092SOL    HW137950   3.093   0.683   5.468 -1.1404 -0.5339  0.4269
12092SOL    HW237951   3.021   0.814   5.440  0.8672  0.5193  0.0625
12093SOL     OW37952   6.393   9.403   2.507 -0.5047 -0.6538 -0.8933
12093SOL    HW137953   6.403   9.323   2.559  0.6042 -0.3853 -0.6808
12093SOL    HW237954   6.320   9.383   2.448 -1.9327 -0.8846  0.8559
12094SOL     OW37955   2.681   2.883   5.613 -0.2447 -0.4384  0.4505
12094SOL    HW137956   2.586   2.888   5.627 -0.5279 -0.8360 -1.1701
12094SOL    HW237957   2.700   2.953   5.551  0.1980 -1.5708 -0.7229
12095SOL     OW37958   0.048   3.168   7.588 -0.2902 -0.4655 -0.6959
12095SOL    HW137959  -0.029   3.192   7.640 -0.0443  0.5969 -0.8041
12095SOL    HW237960   0.016   3.163   7.498 -0.3273 -0.4831 -0.6819
12096SOL     OW37961   4.154   9.569   1.219  0.0748  0.0714  0.4548
12096SOL    HW137962   4.141   9.529   1.305  2.4056  0.6810  1.1610
12096SOL    HW237963   4.194   9.500   1.166  1.8118  0.6669  0.9337
12097SOL     OW37964   7.508   0.049   5.909 -0.2931  0.5367  0.1626
12097SOL    HW137965   7.538  -0.041   5.896  0.1926  0.7439 -0.1871
12097SOL    HW237966   7.465   0.048   5.994  0.3068  0.1294  0.4699
12098SOL     OW37967   5.525   9.339   6.913 -0.0783  0.4349 -0.1531
12098SOL    HW137968   5.608   9.380   6.937 -0.0883 -0.2399  1.1187
12098SOL    HW237969   5.523   9.343   6.817  1.4898  0.3165 -0.2178
12099SOL     OW37970   3.000   2.603   7.387  0.0906  0.0192 -0.0515
12099SOL    HW137971   3.040   2.615   7.301  0.3722 -0.3396  0.0216
12099SOL    HW237972   3.059   2.541   7.431  0.3623  0.7751  0.6740
12100SOL     OW37973   4.858   8.652   3.612  0.2008 -0.0915  0.3759
12100SOL    HW137974   4.865   8.726   3.552 -0.7607  0.5823  1.0449
12100SOL    HW237975   4.948   8.629   3.634  0.6169 -0.9586 -1.9892
12101SOL     OW37976   1.361   9.619   1.583  0.3854  0.0721 -0.2170
12101SOL    HW137977   1.369   9.713   1.598  0.2187  0.1414 -0.5741
12101SOL    HW237978   1.322   9.585   1.664  2.2134  0.0294  0.7114
12102SOL     OW37979   5.795   6.792   8.345 -0.1078 -0.3532 -0.3939
12102SOL    HW137980   5.863   6.731   8.373  0.8979  0.2106 -1.5217
12102SOL    HW237981   5.774   6.767   8.256  0.8587  1.3395 -1.1557
12103SOL     OW37982   7.615   5.514   9.558  0.0189  0.0784 -0.1995
12103SOL    HW137983   7.699   5.554   9.579 -0.1665  0.4060 -0.0872
12103SOL    HW237984   7.633   5.420   9.557  0.3548  0.1412 -0.0437
12104SOL     OW37985   2.838   2.189   9.134  0.4316  0.0716 -0.2789
12104SOL    HW137986   2.891   2.242   9.194  0.5977  0.4746 -0.7770
12104SOL    HW237987   2.756   2.175   9.181  1.2741 -1.2825  0.8617
12105SOL     OW37988   6.471   2.835   8.232 -0.1938 -0.1460  0.2473
12105SOL    HW137989   6.556   2.869   8.204 -0.7540  0.0647 -1.3174
12105SOL    HW237990   6.482   2.740   8.232 -0.2006 -0.1646 -0.8987
12106SOL     OW37991   7.782   2.873   3.762  0.0450  0.5012 -0.1800
12106SOL    HW137992   7.860   2.835   3.723  2.7906  2.0604  3.2201
12106SOL    HW237993   7.777   2.834   3.849 -1.1520  2.7001  0.8270
12107SOL     OW37994   8.980   2.950   2.397  0.5259 -0.6186 -0.6116
12107SOL    HW137995   9.029   3.030   2.419  0.1634 -0.4448 -0.4328
12107SOL    HW237996   9.030   2.911   2.326  0.6853 -0.2094 -0.7289
12108SOL     OW37997   4.971   7.564   9.396 -0.4384 -0.3839  0.3860
12108SOL    HW137998   4.901   7.504   9.425 -0.0619 -2.6335 -2.8023
12108SOL    HW237999   4.965   7.562   9.301  2.9330  0.6777  0.0478
12109SOL     OW38000   1.758   7.215   2.361 -0.3147 -0.1408 -0.1093
12109SOL    HW138001   1.719   7.135   2.397 -0.6187 -0.6047 -1.4238
12109SOL    HW238002   1.714   7.286   2.408  0.9760 -0.7129  2.1161
12110SOL     OW38003   1.028   5.618   5.367 -0.0265  0.1746 -0.1674
12110SOL    HW138004   0.984   5.673   5.433  1.0254  0.7376  0.1009
12110SOL    HW238005   1.104   5.670   5.341  0.7215 -0.9496 -0.2846
12111SOL     OW38006   4.196   5.950   3.990  0.1533  0.5305 -0.3377
12111SOL    HW138007   4.149   5.969   4.071  0.5710  0.5197 -0.0924
12111SOL    HW238008   4.248   6.028   3.973  0.0261  0.5552 -0.6266
12112SOL     OW38009   9.443   7.822   9.395 -0.0298 -0.0787 -0.1481
12112SOL    HW138010   9.511   7.826   9.462  0.2332  0.6700 -0.4418
12112SOL    HW238011   9.488   7.790   9.317 -0.8308 -3.3841  0.5845
12113SOL     OW38012   6.874   2.604   1.827  0.3265 -0.3689  0.5714
12113SOL    HW138013   6.961   2.599   1.787  0.2303  0.3931  0.2663
12113SOL    HW238014   6.813   2.600   1.753  0.0949 -0.9020  0.7831
12114SOL     OW38015   7.623   3.257   3.226  0.1261 -0.0682  0.2999
12114SOL    HW138016   7.588   3.305   3.301 -1.8172  0.7702 -1.0885
12114SOL    HW238017   7.597   3.166   3.242 -0.4102  0.1276  0.5555
12115SOL     OW38018   4.179   1.933   8.115 -0.1275  0.1433 -0.1844
12115SOL    HW138019   4.271   1.946   8.089  0.1877  0.2558  0.9211
12115SOL    HW238020   4.163   1.840   8.100  0.1744  0.1192 -0.3725
12116SOL     OW38021   3.150   0.570   0.483  0.1934  0.4859 -0.0437
12116SOL    HW138022   3.237   0.545   0.452 -0.1078  1.2586 -1.6280
12116SOL    HW238023   3.151   0.666   0.482 -0.9384  0.5147 -0.9627
12117SOL     OW38024   0.174   8.311   9.615  0.0137  0.6657 -0.5904
12117SOL    HW138025   0.205   8.401   9.617  0.6082  0.4808 -1.1804
12117SOL    HW238026   0.249   8.259   9.646  0.4179  0.1883 -2.2980
12118SOL     OW38027   0.890   5.321   9.517  0.1057  0.6436  0.2003
12118SOL    HW138028   0.794   5.323   9.522  0.0309 -1.6538  3.6636
12118SOL    HW238029   0.909   5.241   9.468  0.2481  0.8052 -0.0076
12119SOL     OW38030   2.061   4.423   9.081  0.1679 -0.1776 -0.1808
12119SOL    HW138031   2.110   4.354   9.035 -3.2386 -1.3780 -2.4490
12119SOL    HW238032   2.106   4.504   9.058  3.0885 -1.4033  0.8417
12120SOL     OW38033   8.991   3.654   3.851  0.1255  0.3289  0.1259
12120SOL    HW138034   9.026   3.576   3.808 -1.8644 -0.3752 -0.3210
12120SOL    HW238035   9.067   3.693   3.895  1.7906 -0.1720 -2.1161
12121SOL     OW38036   4.547   5.835   2.624 -0.2599  0.3302  0.1270
12121SOL    HW138037   4.478   5.879   2.674  0.0074 -0.5143  1.2632
12121SOL    HW238038   4.581   5.903   2.565 -1.0375  1.1541  0.6024
12122SOL     OW38039   8.716   1.507   9.464 -1.3623 -0.2027 -0.2114
12122SOL    HW138040   8.786   1.458   9.422  0.3411 -0.1714  2.3236
12122SOL    HW238041   8.689   1.572   9.399  0.2253 -0.9004 -1.6413
12123SOL     OW38042   2.325   5.377   0.663  0.6595 -0.1433 -0.1334
12123SOL    HW138043   2.400   5.351   0.609  0.2999  0.9121 -1.1646
12123SOL    HW238044   2.251   5.328   0.627  0.6750 -0.5162  0.3268
12124SOL     OW38045   0.549   1.677   4.204 -0.0306 -0.5886 -0.2913
12124SOL    HW138046   0.560   1.748   4.141  1.6031  0.5536  1.1810
12124SOL    HW238047   0.595   1.602   4.164  0.9190  0.0919 -0.5101
12125SOL     OW38048   7.669   2.875   9.535 -0.3255 -0.0364  0.1630
12125SOL    HW138049   7.607   2.925   9.588 -1.0110 -0.3394 -0.3437
12125SOL    HW238050   7.755   2.907   9.563 -0.7152  0.6632  0.6016
12126SOL     OW38051   8.551   1.267   2.577  0.3653  0.3450 -0.1414
12126SOL    HW138052   8.507   1.203   2.634  0.6885  1.0531  0.9343
12126SOL    HW238053   8.602   1.213   2.516 -0.8124 -0.4542 -0.4656
12127SOL     OW38054   1.930   0.123   5.419  0.3572 -0.1703 -0.3304
12127SOL    HW138055   2.015   0.163   5.401  0.2018 -0.0319 -0.7784
12127SOL    HW238056   1.873   0.197   5.441  0.7471 -0.4071  1.6204
12128SOL     OW38057   5.022   0.198   0.044 -0.6737 -0.0618 -0.0932
12128SOL    HW138058   5.041   0.271   0.102 -2.3207 -0.4074  0.9561
12128SOL    HW238059   4.942   0.224  -0.002  1.2565  0.7973 -3.3482
12129SOL     OW38060   0.520   7.386   9.027  0.1000  0.1915 -0.0378
12129SOL    HW138061   0.446   7.332   9.000 -0.1457  0.3729  0.2684
12129SOL    HW238062   0.537   7.360   9.118  2.1550 -1.8262 -0.8650
12130SOL     OW38063   1.296   5.417   1.414 -0.0908 -0.3746  0.2498
12130SOL    HW138064   1.331   5.500   1.383 -0.4096 -1.0390 -2.1004
12130SOL    HW238065   1.323   5.354   1.348  0.0088 -2.1441  1.8939
12131SOL     OW38066   8.078   3.608   7.376  0.0720  0.7006 -0.3637
12131SOL    HW138067   8.008   3.658   7.419 -0.7699  0.2494 -1.1883
12131SOL    HW238068   8.157   3.658   7.395 -0.6016  1.7532 -0.2259
12132SOL     OW38069   9.200   9.422   7.751 -0.1906  0.4189 -0.3892
12132SOL    HW138070   9.183   9.333   7.719 -0.8242  0.4947 -0.2630
12132SOL    HW238071   9.241   9.409   7.836  0.4573  0.2366 -0.7222
12133SOL     OW38072   3.066   7.172   6.740  0.5036  0.0774  0.2960
12133SOL    HW138073   3.160   7.185   6.751  0.5641  1.1490 -1.1985
12133SOL    HW238074   3.026   7.246   6.786  0.3235 -0.7793  1.5781
12134SOL     OW38075   3.196   1.521   7.949 -0.0360 -0.0301 -0.2225
12134SOL    HW138076   3.170   1.460   8.018 -0.3970  0.0673 -0.2741
12134SOL    HW238077   3.207   1.604   7.994  0.6988 -0.1806 -0.1072
12135SOL     OW38078   3.045   2.050   8.680  0.0903 -0.0905  0.0693
12135SOL    HW138079   3.102   2.008   8.745  1.0592 -0.4712 -0.9995
12135SOL    HW238080   3.081   2.138   8.671  1.1070 -0.6076 -1.2576
12136SOL     OW38081   3.509   2.566   1.752 -0.7288  0.1382  0.6656
12136SOL    HW138082   3.547   2.535   1.834 -2.0394 -0.6086  1.0282
12136SOL    HW238083   3.448   2.635   1.778  0.0277  1.0129  0.1506
12137SOL     OW38084   4.481   3.235   1.008  0.5164  0.2147  0.8846
12137SOL    HW138085   4.560   3.281   0.981  0.8003 -1.3090 -1.0629
12137SOL    HW238086   4.509   3.145   1.023 -0.9638 -0.5786 -0.7853
12138SOL     OW38087   1.305   8.194   4.129  0.1927 -0.2906 -0.5193
12138SOL    HW138088   1.227   8.245   4.108  0.0234 -0.1416  0.4079
12138SOL    HW238089   1.341   8.168   4.044 -0.0634  0.8458 -0.9934
12139SOL     OW38090   2.704   1.843   6.684 -0.1101  0.0091  0.3639
12139SOL    HW138091   2.632   1.784   6.708 -0.3212  0.5318  1.0442
12139SOL    HW238092   2.780   1.786   6.677 -0.7095 -0.6677 -1.0656
12140SOL     OW38093   7.232   9.505   6.889  0.0025 -0.2476 -0.3732
12140SOL    HW138094   7.247   9.456   6.969  1.1462  0.4698 -0.1291
12140SOL    HW238095   7.269   9.450   6.820 -0.1868 -0.4608 -0.3065
12141SOL     OW38096   9.235   1.913   1.837  0.1527  0.2903 -0.2551
12141SOL    HW138097   9.328   1.930   1.852  0.6140  0.2794 -2.6335
12141SOL    HW238098   9.233   1.828   1.793 -1.1376 -0.4020  1.0781
12142SOL     OW38099   0.599   7.856   2.332 -1.1517  0.0379 -0.5028
12142SOL    HW138100   0.590   7.816   2.418  0.2207  0.4017 -0.1761
12142SOL    HW238101   0.660   7.928   2.344  0.1976 -0.7828 -2.0509
12143SOL     OW38102   8.376   4.922   6.150 -0.2674  0.0705 -0.2548
12143SOL    HW138103   8.344   4.993   6.093  0.3617  0.4074 -0.1949
12143SOL    HW238104   8.354   4.842   6.102 -0.9124  0.2993 -0.3640
12144SOL     OW38105   9.162   0.619   1.010 -0.4081  0.3579 -0.0825
12144SOL    HW138106   9.087   0.678   1.010 -1.0909 -0.4880  0.5737
12144SOL    HW238107   9.191   0.617   1.101 -1.3746 -1.5062  0.2263
12145SOL     OW38108   5.394   9.650   1.003 -0.0785  0.0861 -0.4240
12145SOL    HW138109   5.336   9.711   0.958 -0.2905 -0.5921 -1.0890
12145SOL    HW238110   5.402   9.576   0.944  0.8410 -0.1791  0.0051
12146SOL     OW38111   2.259   3.278   2.536 -0.4497 -0.4958  0.0550
12146SOL    HW138112   2.333   3.318   2.583  0.1469  1.8543 -2.6507
12146SOL    HW238113   2.191   3.345   2.536 -1.8123 -1.8076  0.5761
12147SOL     OW38114   2.886   1.847   6.071  0.6391 -0.3735  0.3532
12147SOL    HW138115   2.803   1.799   6.073 -0.6297  1.5986 -1.1385
12147SOL    HW238116   2.952   1.780   6.052 -0.8591 -1.7080 -0.4040
12148SOL     OW38117   2.331   9.542   0.940 -0.0161  0.6657 -0.2266
12148SOL    HW138118   2.288   9.479   0.998  0.8060  0.3209  0.0204
12148SOL    HW238119   2.424   9.519   0.944  0.2894  1.8277 -0.2153
12149SOL     OW38120   1.124   8.414   9.130 -0.3767  0.1639 -0.1642
12149SOL    HW138121   1.172   8.361   9.194 -0.8060 -3.5826 -2.6811
12149SOL    HW238122   1.184   8.424   9.057 -1.2757  0.9370 -0.8292
12150SOL     OW38123   7.454   3.123   7.003  0.7582 -0.0954 -0.4104
12150SOL    HW138124   7.536   3.095   6.962  1.7397 -0.0074  1.3642
12150SOL    HW238125   7.403   3.042   7.014 -0.2228  0.0694 -3.1018
12151SOL     OW38126   6.677   6.755   8.419  0.2002 -0.7248  0.3420
12151SOL    HW138127   6.604   6.750   8.356  0.4129 -2.0800  0.1734
12151SOL    HW238128   6.650   6.698   8.491  1.5420 -2.1233 -0.2153
12152SOL     OW38129   3.267   5.000   4.042 -0.4043 -0.3557 -0.0422
12152SOL    HW138130   3.280   5.078   4.096  1.6372 -0.3519 -0.4718
12152SOL    HW238131   3.231   5.033   3.960 -0.6611 -0.0034  0.2133
12153SOL     OW38132   5.509   1.674   7.002 -0.3285 -0.4018 -0.3425
12153SOL    HW138133   5.458   1.622   7.064 -2.6077  1.4552 -0.4993
12153SOL    HW238134   5.584   1.619   6.980 -1.7927 -2.9548  0.6248
12154SOL     OW38135   1.129   8.992   6.284  0.4996 -0.9706  0.1158
12154SOL    HW138136   1.039   9.009   6.311 -0.3917 -4.1723 -0.4573
12154SOL    HW238137   1.155   8.914   6.334  2.7356 -0.5130 -0.2328
12155SOL     OW38138   3.451   3.253   3.412 -0.9739  0.3305 -0.1476
12155SOL    HW138139   3.465   3.281   3.502 -2.4083 -0.9307  0.5265
12155SOL    HW238140   3.539   3.249   3.373 -0.4508  2.1805  0.7528
12156SOL     OW38141   1.590   1.331   1.164 -0.5134 -0.2238 -0.6328
12156SOL    HW138142   1.631   1.353   1.248 -0.5394  1.0083 -0.9199
12156SOL    HW238143   1.662   1.326   1.102 -0.6009 -0.0153 -0.7532
12157SOL     OW38144   6.893   3.607   7.226  0.1573 -0.1740  0.0287
12157SOL    HW138145   6.810   3.634   7.186  0.1453 -1.2372 -0.6911
12157SOL    HW238146   6.870   3.534   7.283  0.3892  0.4635  0.9653
12158SOL     OW38147   5.045   9.273   6.588  0.3666 -0.0332  0.0034
12158SOL    HW138148   5.010   9.339   6.528 -0.9399  0.0172  0.7906
12158SOL    HW238149   5.012   9.299   6.674 -0.5230 -1.9052  0.2768
12159SOL     OW38150   4.557   2.424   1.295  0.5953 -0.5336  0.2459
12159SOL    HW138151   4.505   2.458   1.222 -0.5766  0.4374  1.4830
12159SOL    HW238152   4.532   2.331   1.300  1.1866 -0.7762 -0.9757
12160SOL     OW38153   8.089   7.023   0.498  0.2372 -0.0442  0.2666
12160SOL    HW138154   8.138   7.029   0.580  0.1379 -0.3875  0.3502
12160SOL    HW238155   8.152   6.988   0.435  0.8671  1.9073 -0.2638
12161SOL     OW38156   7.856   7.480   4.383  0.2733  0.9296  0.0465
12161SOL    HW138157   7.817   7.472   4.296  0.1991  1.4690  0.0308
12161SOL    HW238158   7.889   7.392   4.402 -0.2529  0.6606 -0.2689
12162SOL     OW38159   2.136   9.180   3.694  0.3425 -0.1659  0.0391
12162SOL    HW138160   2.140   9.149   3.604 -0.8714 -0.9003  0.2114
12162SOL    HW238161   2.054   9.143   3.728  1.1736 -0.5898  1.6896
12163SOL     OW38162   5.277   3.224   3.321 -0.1565 -0.3793 -0.0882
12163SOL    HW138163   5.346   3.261   3.375 -1.5911  0.6958  1.1116
12163SOL    HW238164   5.288   3.265   3.236  0.4576  0.0617  0.1992
12164SOL     OW38165   6.031   5.073   9.623 -0.0551  0.1756  0.8482
12164SOL    HW138166   5.981   5.142   9.580 -0.2950  0.8509  2.1480
12164SOL    HW238167   6.027   4.998   9.563 -0.1259  1.1499 -0.4080
12165SOL     OW38168   0.558   0.927   5.933 -0.1389  0.0178 -0.1506
12165SOL    HW138169   0.603   0.854   5.891 -2.2279  0.3541 -3.4070
12165SOL    HW238170   0.627   0.991   5.949  1.1437 -1.0232 -1.2143
12166SOL     OW38171   4.885   3.380   6.279 -0.1303  0.2863  0.0401
12166SOL    HW138172   4.948   3.400   6.209 -0.1814 -0.9837 -0.3973
12166SOL    HW238173   4.891   3.454   6.339  0.0134  1.3403 -1.2430
12167SOL     OW38174   5.928   4.754   4.748  0.0820  0.9350 -0.2416
12167SOL    HW138175   5.970   4.838   4.728  1.8692 -0.0249 -0.7357
12167SOL    HW238176   5.993   4.688   4.723 -1.6622 -0.6461 -0.8322
12168SOL     OW38177   8.764   6.095   5.127 -0.1746 -0.0701  0.4125
12168SOL    HW138178   8.824   6.043   5.181  1.9143 -1.0704 -2.6090
12168SOL    HW238179   8.723   6.031   5.068 -1.9126  1.0509  0.3183
12169SOL     OW38180   6.066   6.482   1.999  0.1812 -0.1490 -0.4374
12169SOL    HW138181   6.140   6.443   1.953  0.9496  1.0036 -0.2180
12169SOL    HW238182   6.074   6.450   2.089  1.5231  1.3975  0.0455
12170SOL     OW38183   6.081   6.067   5.352  0.1046  0.5729 -0.1973
12170SOL    HW138184   6.070   5.978   5.318 -0.5175  1.0643 -1.3405
12170SOL    HW238185   6.157   6.062   5.409  0.0432 -0.7070 -0.2132
12171SOL     OW38186   7.616   3.918   8.824 -0.0359 -0.2283  0.4646
12171SOL    HW138187   7.553   3.847   8.836  0.7647 -0.8387  1.1592
12171SOL    HW238188   7.563   3.994   8.800 -0.9256 -1.0109 -0.1022
12172SOL     OW38189   1.586   9.329   1.271 -0.1532 -0.7338 -0.3339
12172SOL    HW138190   1.499   9.336   1.233 -0.4536 -0.3198  0.4114
12172SOL    HW238191   1.571   9.312   1.364  0.5301  0.6043  0.0558
12173SOL     OW38192   6.001   0.246   0.725  0.2755 -0.4645 -0.2150
12173SOL    HW138193   6.038   0.313   0.668  0.1074  0.4274  0.7127
12173SOL    HW238194   6.016   0.278   0.814 -2.5919 -0.1001  0.2222
12174SOL     OW38195   4.725   3.218   0.831  0.4020 -0.5800 -0.0019
12174SOL    HW138196   4.797   3.155   0.832  0.5332 -0.4298  0.4568
12174SOL    HW238197   4.668   3.189   0.760  0.1132 -1.6055  0.6262
12175SOL     OW38198   6.935   3.555   6.696  0.0166  0.0344 -0.0957
12175SOL    HW138199   6.962   3.549   6.788  0.1651 -0.8296 -0.1849
12175SOL    HW238200   6.856   3.501   6.690 -0.6168  0.9609 -0.2567
12176SOL     OW38201   1.757   1.265   2.704  0.0012  0.1929 -0.3837
12176SOL    HW138202   1.814   1.329   2.747  1.2158 -0.6959 -0.6364
12176SOL    HW238203   1.672   1.276   2.747  0.3426  1.5555 -0.0133
12177SOL     OW38204   4.230   5.131   9.054  0.3351  0.7001 -0.3125
12177SOL    HW138205   4.298   5.088   9.002  0.0382 -2.0176  1.3409
12177SOL    HW238206   4.276   5.167   9.130  0.1092 -0.0953  0.2115
12178SOL     OW38207   5.610   3.623   4.100 -0.6725 -0.3472 -0.0500
12178SOL    HW138208   5.658   3.674   4.035  0.5993  0.4936  1.4539
12178SOL    HW238209   5.665   3.628   4.179 -1.9225 -1.6856  0.9648
12179SOL     OW38210   3.424   7.720   3.420 -0.1197 -0.3733 -0.4833
12179SOL    HW138211   3.407   7.630   3.446  0.0941  0.4165  2.7311
12179SOL    HW238212   3.519   7.728   3.419 -0.1418  0.1009  0.4191
12180SOL     OW38213   2.634   1.836   4.227  0.0538 -0.4181 -0.7364
12180SOL    HW138214   2.654   1.757   4.177 -1.3148 -1.7147  0.6445
12180SOL    HW238215   2.620   1.805   4.317 -1.8816  1.1769 -0.4081
12181SOL     OW38216   1.688   5.084   8.583 -0.6903 -0.1629 -0.0809
12181SOL    HW138217   1.649   5.041   8.659 -1.9636  2.7278  1.0534
12181SOL    HW238218   1.627   5.066   8.511  0.5492 -2.9609 -0.5517
12182SOL     OW38219   1.580   5.391   0.439 -0.6405 -0.4269  0.0303
12182SOL    HW138220   1.521   5.370   0.511 -0.1615  1.0851  0.9069
12182SOL    HW238221   1.637   5.315   0.431 -0.7475 -0.6483  1.2200
12183SOL     OW38222   4.513   2.559   9.168  0.1589 -0.4935  0.0670
12183SOL    HW138223   4.595   2.576   9.213 -0.9349  1.2457  1.5345
12183SOL    HW238224   4.486   2.644   9.134 -0.8536 -1.1029 -0.6984
12184SOL     OW38225   1.480   2.902   3.010  0.4977 -0.1230  0.2260
12184SOL    HW138226   1.523   2.827   3.051  0.1992 -0.5529 -0.2395
12184SOL    HW238227   1.542   2.974   3.021  0.3681 -0.1814  1.5659
12185SOL     OW38228   9.380   6.510   5.477  0.1594 -0.4394 -0.4341
12185SOL    HW138229   9.351   6.484   5.565  1.5119 -3.3551 -0.7026
12185SOL    HW238230   9.397   6.604   5.484 -2.9786  0.1458  1.4178
12186SOL     OW38231   4.093   6.714   3.300 -0.5614  0.4073  0.2040
12186SOL    HW138232   4.187   6.733   3.309 -0.6090  0.8707 -0.2011
12186SOL    HW238233   4.050   6.791   3.337 -0.7584  1.3890 -1.8969
12187SOL     OW38234   7.300   7.792   4.727 -0.4214 -0.2539  0.0184
12187SOL    HW138235   7.243   7.720   4.754  1.0025 -1.2537  0.4774
12187SOL    HW238236   7.243   7.869   4.725 -1.6892 -1.1428  0.8239
12188SOL     OW38237   8.598   2.229   9.666  0.6093  0.3681 -0.1668
12188SOL    HW138238   8.654   2.254   9.592  0.1382  0.0967 -0.6206
12188SOL    HW238239   8.577   2.312   9.709  3.4728  0.3150  1.6048
12189SOL     OW38240   6.670   2.428   3.743 -0.7768 -0.0217  0.5087
12189SOL    HW138241   6.761   2.408   3.767 -0.8306 -1.0924 -0.1244
12189SOL    HW238242   6.624   2.344   3.750 -1.1111 -0.1048 -1.8659
12190SOL     OW38243   3.732   3.924   1.424  0.0475 -0.0080  0.3641
12190SOL    HW138244   3.708   4.017   1.422  1.0223  0.2708 -1.6565
12190SOL    HW238245   3.828   3.924   1.415 -0.0060 -1.2196 -0.4170
12191SOL     OW38246   6.047   7.774   4.707 -1.1595  0.1600  0.3112
12191SOL    HW138247   6.123   7.726   4.675 -0.9741  0.8791 -0.3545
12191SOL    HW238248   6.079   7.826   4.780 -0.7895  1.1686 -0.5518
12192SOL     OW38249   8.825   3.364   5.283 -0.8039 -0.3450  0.4780
12192SOL    HW138250   8.776   3.323   5.354 -2.4502 -1.5027 -1.2362
12192SOL    HW238251   8.776   3.444   5.263  0.8406  1.1288  1.9495
12193SOL     OW38252   2.629   6.391   4.536 -0.6094  0.0224  0.1004
12193SOL    HW138253   2.633   6.437   4.619 -2.5735 -0.7969  0.7073
12193SOL    HW238254   2.542   6.409   4.502 -0.3798 -0.8776 -1.0539
12194SOL     OW38255   0.759   2.493   7.458  0.2176 -0.1189 -0.5515
12194SOL    HW138256   0.842   2.502   7.411  0.2366  1.0539 -0.3215
12194SOL    HW238257   0.764   2.407   7.499  1.1307 -0.2455 -0.9061
12195SOL     OW38258   5.316   3.394   4.291 -0.4775  0.2764  0.2667
12195SOL    HW138259   5.398   3.390   4.341 -0.5031 -2.1660  0.2288
12195SOL    HW238260   5.344   3.414   4.202  0.0762 -0.4627  0.2714
12196SOL     OW38261   5.351   9.234   7.622  0.6054  0.3619  0.0431
12196SOL    HW138262   5.401   9.228   7.704 -0.7762 -1.1001  0.8439
12196SOL    HW238263   5.369   9.152   7.576 -1.4545 -0.5169  0.6600
12197SOL     OW38264   4.217   0.717   6.005 -0.7461  0.0296  0.1977
12197SOL    HW138265   4.204   0.626   6.029  0.9861  0.2242  2.1088
12197SOL    HW238266   4.311   0.727   5.994 -0.9563  1.4408 -0.6706
12198SOL     OW38267   5.083   0.933   5.715 -0.1526  0.0774  0.4339
12198SOL    HW138268   5.088   0.862   5.779 -0.3795 -1.6971 -1.3988
12198SOL    HW238269   4.989   0.952   5.708 -0.4846 -1.8023 -1.3854
12199SOL     OW38270   5.052   0.397   2.684  0.3041 -0.3767 -0.4760
12199SOL    HW138271   5.039   0.349   2.602  0.9534 -0.8289 -0.3223
12199SOL    HW238272   5.130   0.450   2.669 -0.8091  1.2217 -0.8929
12200SOL     OW38273   8.752   6.892   7.372 -0.6869  0.1287  0.3124
12200SOL    HW138274   8.680   6.937   7.328  0.1321  0.3954 -0.7829
12200SOL    HW238275   8.828   6.947   7.357 -0.0999 -0.5183  0.8399
12201SOL     OW38276   7.014   4.385   1.849 -0.3244  0.9983 -0.3743
12201SOL    HW138277   6.967   4.421   1.774  1.6744  1.2936 -1.5543
12201SOL    HW238278   7.018   4.291   1.831  0.0209  1.0478 -0.5452
12202SOL     OW38279   6.713   7.911   3.037  0.4937 -0.0788 -0.0218
12202SOL    HW138280   6.762   7.971   2.981  0.3569 -0.6196 -0.7301
12202SOL    HW238281   6.691   7.837   2.980 -0.8326 -0.0220  0.3751
12203SOL     OW38282   3.516   0.570   8.456 -0.3269 -0.2429 -0.6693
12203SOL    HW138283   3.532   0.663   8.436  0.3947 -0.4270 -0.9400
12203SOL    HW238284   3.466   0.573   8.538 -0.5755  0.3930 -0.8285
12204SOL     OW38285   3.939   5.868   1.609 -0.1544  0.3847 -0.3185
12204SOL    HW138286   3.943   5.853   1.514  1.9175 -0.4400 -0.1647
12204SOL    HW238287   3.926   5.962   1.618  0.4838  0.6017 -1.4419
12205SOL     OW38288   3.308   8.556   4.046  0.2403 -0.3531  0.4520
12205SOL    HW138289   3.388   8.516   4.081  1.1869  2.1706  1.4159
12205SOL    HW238290   3.335   8.593   3.962 -0.3689 -0.9309 -0.0009
12206SOL     OW38291   6.070   1.599   7.005 -0.2228  0.8883  0.0340
12206SOL    HW138292   6.078   1.504   7.012 -3.0438  0.3574 -2.1328
12206SOL    HW238293   6.007   1.623   7.073 -1.8156  0.6878 -1.3079
12207SOL     OW38294   8.994   0.011   4.100  0.1692  0.6586 -0.3126
12207SOL    HW138295   8.967  -0.036   4.178 -0.2779  1.6420  0.1486
12207SOL    HW238296   9.081   0.046   4.121 -0.4844  2.0228  0.2799
12208SOL     OW38297   1.797   7.643   0.334 -0.2497  0.2962  0.4828
12208SOL    HW138298   1.824   7.734   0.339  0.2077  0.2007 -0.0479
12208SOL    HW238299   1.857   7.597   0.394 -0.7364  0.3957  1.0492
12209SOL     OW38300   3.855   4.289   5.391 -0.5872  0.0160 -0.5587
12209SOL    HW138301   3.847   4.221   5.324  0.9526 -1.9948  1.1369
12209SOL    HW238302   3.942   4.274   5.429 -0.8465  1.9646  0.9535
12210SOL     OW38303   5.792   1.049   2.907  0.5717  0.7222  0.1291
12210SOL    HW138304   5.875   1.000   2.904  0.5406  0.3270  2.8573
12210SOL    HW238305   5.726   0.982   2.923 -0.2654  1.1142 -1.4515
12211SOL     OW38306   1.996   1.659   5.223 -0.5629 -0.0529 -0.3970
12211SOL    HW138307   2.069   1.600   5.243 -0.0437  0.3194 -1.1506
12211SOL    HW238308   2.033   1.747   5.235 -1.0698  0.1299 -0.1666
12212SOL     OW38309   4.303   2.572   9.349 -0.4580  0.1382  0.1307
12212SOL    HW138310   4.361   2.571   9.272 -1.2266 -0.7531 -0.4604
12212SOL    HW238311   4.361   2.555   9.423 -0.0467 -1.6260 -0.5407
12213SOL     OW38312   2.178   2.602   3.405  0.7816 -0.7454 -0.2071
12213SOL    HW138313   2.083   2.611   3.401  0.9114  0.3847 -1.5760
12213SOL    HW238314   2.193   2.511   3.429 -0.6373 -0.6488  1.2434
12214SOL     OW38315   6.373   1.659   0.873  0.5414 -0.0777  0.4631
12214SOL    HW138316   6.380   1.607   0.792 -1.0544  2.6082 -1.5690
12214SOL    HW238317   6.446   1.628   0.927  1.7737 -1.9276 -2.0383
12215SOL     OW38318   3.841   4.026   2.431  0.9422  0.0054  0.2769
12215SOL    HW138319   3.772   3.967   2.400  0.9979 -1.5163  2.7655
12215SOL    HW238320   3.794   4.099   2.472  0.7892 -0.4160  0.8718
12216SOL     OW38321   8.952   4.941   6.148 -0.3155  0.2838  0.2867
12216SOL    HW138322   8.921   4.955   6.237 -6.1264 -0.4933 -1.2419
12216SOL    HW238323   8.959   5.029   6.111 -1.3861  0.4897  0.5531
12217SOL     OW38324   6.402   7.030   8.320 -0.5191  0.4148  0.3194
12217SOL    HW138325   6.418   6.992   8.407 -1.6781 -0.6547  0.0979
12217SOL    HW238326   6.435   7.120   8.327  1.4528 -0.2958  1.1673
12218SOL     OW38327   7.569   6.269   4.978  0.6173  0.0871  0.3395
12218SOL    HW138328   7.476   6.293   4.981  0.2937 -1.0950  2.6283
12218SOL    HW238329   7.577   6.199   5.044  2.9103 -0.6766 -0.6647
12219SOL     OW38330   1.402   1.633   5.143  0.2791  0.1535  0.5052
12219SOL    HW138331   1.393   1.636   5.048 -2.3705 -0.7390  0.6569
12219SOL    HW238332   1.496   1.640   5.158  0.9916 -1.7652 -2.2853
12220SOL     OW38333   6.494   6.457   1.757 -0.1591  0.5587  0.0851
12220SOL    HW138334   6.411   6.437   1.799 -0.9930  2.1048 -0.7618
12220SOL    HW238335   6.505   6.387   1.692 -0.7835  0.3334  0.2148
12221SOL     OW38336   8.259   8.198   3.253  0.3378 -0.4378  0.6294
12221SOL    HW138337   8.294   8.287   3.241  1.5609 -0.8562  1.0116
12221SOL    HW238338   8.282   8.175   3.343  0.2649 -1.2448  0.4448
12222SOL     OW38339   7.528   2.974   3.905  0.3135 -0.2129 -0.0613
12222SOL    HW138340   7.564   3.039   3.844  0.3741 -0.9484 -0.8301
12222SOL    HW238341   7.522   2.894   3.853 -2.9597 -0.0275 -0.1871
12223SOL     OW38342   3.134   8.461   8.170  0.8355  0.5564 -0.6431
12223SOL    HW138343   3.040   8.451   8.186  0.4407  0.6053 -2.6114
12223SOL    HW238344   3.163   8.522   8.237 -0.2274 -0.5395  0.8822
12224SOL     OW38345   6.101   8.351   6.533  0.0938 -0.3658 -0.0648
12224SOL    HW138346   6.027   8.326   6.587  0.2588 -0.1831  0.2488
12224SOL    HW238347   6.121   8.441   6.559  0.1988 -0.2890 -0.3997
12225SOL     OW38348   1.838   9.314   3.863  0.4106  0.5659  0.1704
12225SOL    HW138349   1.785   9.236   3.851  0.1581  0.9270 -1.2351
12225SOL    HW238350   1.928   9.286   3.843  0.5603  0.2919  1.1659
12226SOL     OW38351   3.936   7.062   8.044 -0.3909  0.1278 -0.2357
12226SOL    HW138352   3.882   7.094   7.971 -0.0580 -1.4325 -1.2122
12226SOL    HW238353   4.020   7.039   8.003 -0.3297 -1.1441  0.5652
12227SOL     OW38354   4.489   0.131   9.297  0.1396 -0.4022 -0.4950
12227SOL    HW138355   4.425   0.164   9.235 -0.9514 -1.1397  0.2107
12227SOL    HW238356   4.479   0.036   9.295 -0.3390 -0.4251  1.2073
12228SOL     OW38357   0.910   4.250   6.253 -0.3330  0.5602 -0.0860
12228SOL    HW138358   0.931   4.180   6.315  0.6600 -0.1651 -1.1968
12228SOL    HW238359   0.840   4.299   6.296  0.7371  0.4785  1.8778
12229SOL     OW38360   9.658   3.267   0.778 -0.3288 -0.0359 -0.2394
12229SOL    HW138361   9.627   3.207   0.709 -0.2252 -0.5768  0.1782
12229SOL    HW238362   9.581   3.321   0.798  0.3255  2.0268 -2.6837
12230SOL     OW38363   6.336   6.625   1.372  0.4856 -0.4079 -0.8898
12230SOL    HW138364   6.298   6.538   1.359 -0.8537  0.1898 -1.1328
12230SOL    HW238365   6.302   6.654   1.457 -0.3777  0.5048 -1.5174
12231SOL     OW38366   2.822   6.659   4.460 -0.7497 -0.5084 -0.1780
12231SOL    HW138367   2.765   6.697   4.526  0.2581  2.9358 -1.1090
12231SOL    HW238368   2.763   6.627   4.392 -1.6538 -0.2772  0.4850
12232SOL     OW38369   6.578   3.190   4.290  0.3316 -0.2045 -0.6121
12232SOL    HW138370   6.534   3.106   4.282  0.5873 -0.3027 -1.0137
12232SOL    HW238371   6.671   3.170   4.277  0.5640 -0.0680  0.6773
12233SOL     OW38372   4.907   2.404   4.973 -0.2495 -0.1758  0.0986
12233SOL    HW138373   4.817   2.404   4.942 -0.3786  0.8131  0.4461
12233SOL    HW238374   4.938   2.493   4.958  0.0919 -0.0079  1.6202
12234SOL     OW38375   5.193   5.942   6.949 -0.0459 -0.8626  0.3606
12234SOL    HW138376   5.110   5.947   6.996  0.0407 -0.1281  0.4437
12234SOL    HW238377   5.230   6.030   6.956  1.0817 -1.3617  0.9340
12235SOL     OW38378   4.208   4.566   3.735 -0.4022  0.1598 -0.5995
12235SOL    HW138379   4.164   4.569   3.650 -0.6611 -1.4131 -0.5496
12235SOL    HW238380   4.235   4.475   3.745  2.1925  0.8743 -0.2561
12236SOL     OW38381   7.024   2.910   6.703 -0.4356  0.3179 -0.1729
12236SOL    HW138382   7.020   2.912   6.607  0.3267 -0.3448 -0.2278
12236SOL    HW238383   7.117   2.896   6.722 -0.3332  1.9464  0.6986
12237SOL     OW38384   4.814   8.745   8.363 -0.3556  0.4807 -0.7192
12237SOL    HW138385   4.731   8.723   8.406 -0.5646  3.4366  0.6562
12237SOL    HW238386   4.789   8.794   8.285  0.1234 -0.7473 -1.6831
12238SOL     OW38387   0.780   6.515   1.254 -0.1086  0.0686  0.4765
12238SOL    HW138388   0.854   6.556   1.209 -0.8156 -0.1977 -0.9483
12238SOL    HW238389   0.707   6.575   1.242 -1.3025 -1.6932 -2.0737
12239SOL     OW38390   3.497   2.507   8.244  0.3591 -0.3573  0.0913
12239SOL    HW138391   3.504   2.411   8.248 -0.7771 -0.4460  0.1180
12239SOL    HW238392   3.452   2.524   8.161 -0.2545  0.1117  0.5222
12240SOL     OW38393   6.609   7.688   4.906 -0.4241 -0.2230 -0.3948
12240SOL    HW138394   6.649   7.729   4.982 -0.6227 -0.5618 -0.1075
12240SOL    HW238395   6.600   7.759   4.843  1.1490 -0.2420 -0.6874
12241SOL     OW38396   8.541   0.375   9.267  0.1967  0.4217 -0.3874
12241SOL    HW138397   8.594   0.409   9.195  0.7457 -0.1637 -0.2719
12241SOL    HW238398   8.525   0.283   9.245  0.6159  0.1541  0.3624
12242SOL     OW38399   3.243   5.890   2.797  0.0493  0.2480  0.0629
12242SOL    HW138400   3.286   5.975   2.809  0.4473  0.0115  0.3479
12242SOL    HW238401   3.200   5.873   2.880  1.0023 -0.3945  0.4417
12243SOL     OW38402   0.894   5.907   0.404  0.4070 -0.8003  0.0903
12243SOL    HW138403   0.859   5.855   0.332  2.4820 -0.5473 -1.1693
12243SOL    HW238404   0.844   5.989   0.401 -0.3311 -1.2471 -0.2790
12244SOL     OW38405   1.974   8.826   5.116 -0.0596  0.4700 -0.0979
12244SOL    HW138406   1.902   8.865   5.066  0.4320 -3.2064 -4.3699
12244SOL    HW238407   2.051   8.876   5.089 -0.2212  0.4643 -0.5908
12245SOL     OW38408   5.451   9.608   6.356 -0.3184  0.6191  0.2141
12245SOL    HW138409   5.386   9.547   6.390 -1.1538  0.7373 -1.1190
12245SOL    HW238410   5.402   9.688   6.337  0.8339  1.9496  2.3739
12246SOL     OW38411   4.555   7.011   4.542 -0.0429 -0.1836  0.4519
12246SOL    HW138412   4.565   6.952   4.467 -0.7167 -0.4137  0.5376
12246SOL    HW238413   4.561   6.954   4.619  1.2552  0.1387  0.5977
12247SOL     OW38414   2.735   4.808   3.283  0.1675 -0.5209  0.1557
12247SOL    HW138415   2.708   4.858   3.206 -0.7729  0.9710  1.3879
12247SOL    HW238416   2.829   4.824   3.290  0.0776  0.1531 -0.1202
12248SOL     OW38417   5.561   0.238   4.041 -0.0667 -0.3250  0.1770
12248SOL    HW138418   5.591   0.227   3.951  1.3638  1.9977  0.2963
12248SOL    HW238419   5.548   0.149   4.073  0.2030 -1.2167 -2.0346
12249SOL     OW38420   3.226   0.834   3.767  0.1719  0.5339  0.0646
12249SOL    HW138421   3.138   0.841   3.805  0.4007  0.1470  0.6692
12249SOL    HW238422   3.240   0.740   3.757  0.3663  0.6109 -0.3946
12250SOL     OW38423   6.000   6.497   1.482 -0.5206 -0.2689  0.2496
12250SOL    HW138424   6.091   6.472   1.466 -0.7955 -0.2981 -1.3970
12250SOL    HW238425   5.955   6.480   1.399 -2.0327 -0.2410  1.0294
12251SOL     OW38426   8.171   4.074   5.506  0.1486 -0.4688 -0.3551
12251SOL    HW138427   8.163   4.111   5.594 -0.7134  0.2985 -0.7328
12251SOL    HW238428   8.225   4.138   5.459 -0.6346 -0.1095 -0.7791
12252SOL     OW38429   2.184   2.818   3.587 -0.2211  0.0962 -0.8303
12252SOL    HW138430   2.094   2.828   3.618  0.3152 -1.5854  1.4927
12252SOL    HW238431   2.182   2.740   3.532 -0.5009  1.1762 -2.4342
12253SOL     OW38432   3.578   1.226   1.503  0.0392  1.1313  0.2346
12253SOL    HW138433   3.494   1.272   1.500  0.2203  1.4146 -0.7148
12253SOL    HW238434   3.593   1.195   1.414 -0.0736 -0.7975  0.8417
12254SOL     OW38435   2.190   0.668   7.658  0.1512  0.2800 -0.1518
12254SOL    HW138436   2.187   0.719   7.577 -2.6579  0.2213 -0.1639
12254SOL    HW238437   2.136   0.591   7.640  1.8112 -1.2149  0.8933
12255SOL     OW38438   7.123   4.780   8.730 -0.4395  0.1665  0.1054
12255SOL    HW138439   7.151   4.846   8.794  0.6008  1.2692 -1.4326
12255SOL    HW238440   7.099   4.831   8.652 -3.1612 -1.0215  0.0342
12256SOL     OW38441   1.814   3.510   3.120  0.0361 -0.2310  0.3219
12256SOL    HW138442   1.743   3.493   3.182 -1.4645  0.5196 -1.1075
12256SOL    HW238443   1.803   3.601   3.095  2.8582  0.5874  1.6289
12257SOL     OW38444   1.768   7.562   4.247  0.1915  0.1832 -0.4361
12257SOL    HW138445   1.675   7.551   4.227 -0.5222  3.6960  0.2939
12257SOL    HW238446   1.808   7.582   4.163  0.1325 -0.4467 -0.6179
12258SOL     OW38447   8.284   8.673   3.801 -0.2986 -0.2124  0.0577
12258SOL    HW138448   8.337   8.649   3.877  0.7020 -0.4080 -0.6926
12258SOL    HW238449   8.222   8.600   3.792 -0.0712 -0.4480  0.3617
12259SOL     OW38450   5.100   3.984   9.407  0.7419  0.1116  0.6356
12259SOL    HW138451   5.026   3.928   9.431  1.2937 -0.1188  1.8822
12259SOL    HW238452   5.144   3.935   9.338  0.5031 -0.4042  0.8348
12260SOL     OW38453   5.801   6.629   6.501  0.0557  0.2382 -0.1527
12260SOL    HW138454   5.795   6.710   6.450 -1.2881  1.0698  1.2576
12260SOL    HW238455   5.895   6.612   6.509  0.3428  1.3417 -0.9287
12261SOL     OW38456   9.442   2.938   7.439  0.7393  0.1023  0.5273
12261SOL    HW138457   9.405   2.901   7.519  0.1765  1.7237  1.0585
12261SOL    HW238458   9.476   3.024   7.466  1.6274  0.1657 -0.7208
12262SOL     OW38459   3.924   8.187   7.795 -0.2076  0.0506  0.6158
12262SOL    HW138460   3.834   8.213   7.815 -0.2112  1.1597 -0.7613
12262SOL    HW238461   3.960   8.260   7.745  1.6958 -0.0664  1.7189
12263SOL     OW38462   0.243   5.726   0.097  0.7245 -0.2506  0.1145
12263SOL    HW138463   0.168   5.767   0.141  0.4549 -0.1814 -0.4124
12263SOL    HW238464   0.305   5.798   0.085  0.1989  0.0375 -0.9250
12264SOL     OW38465   1.022   2.544   3.711 -0.3733  0.1990  0.0472
12264SOL    HW138466   0.949   2.585   3.664 -0.7159 -1.0515 -0.5627
12264SOL    HW238467   1.084   2.519   3.642 -0.1005 -0.1539  0.4140
12265SOL     OW38468   6.324   3.196   0.721 -0.7561 -0.2149 -0.3295
12265SOL    HW138469   6.335   3.277   0.671 -0.7303 -0.3953 -0.6181
12265SOL    HW238470   6.403   3.191   0.775 -1.3320  0.6028  0.6325
12266SOL     OW38471   2.346   9.665   3.060  0.1786 -0.2634 -0.0515
12266SOL    HW138472   2.310   9.715   3.133  0.0918 -0.6220  0.1556
12266SOL    HW238473   2.286   9.683   2.987  0.3007  0.1419 -0.0534
12267SOL     OW38474   1.906   8.634   0.826  0.0396  0.4457  0.0242
12267SOL    HW138475   1.954   8.556   0.796  0.4882  1.4728 -2.1263
12267SOL    HW238476   1.814   8.609   0.817  0.1761  0.0039 -0.2078
12268SOL     OW38477   6.935   8.459   0.016  0.2221 -0.3817  0.1722
12268SOL    HW138478   6.893   8.394   0.072  0.0109 -1.8989 -1.6287
12268SOL    HW238479   6.879   8.536   0.021  0.5941 -0.1833  2.5437
12269SOL     OW38480   0.439   5.452   6.991 -0.4974  0.5918  0.5074
12269SOL    HW138481   0.514   5.422   7.042  0.7459  2.6627  0.0419
12269SOL    HW238482   0.447   5.408   6.907 -0.2601  0.2113  0.7274
12270SOL     OW38483   1.463   2.521   2.887 -0.1189 -0.0149 -0.1267
12270SOL    HW138484   1.549   2.529   2.845  0.2922  0.7654  0.8259
12270SOL    HW238485   1.406   2.576   2.835  0.2380  0.4304 -0.0533
12271SOL     OW38486   3.892   6.594   2.892  0.0458  0.5452 -0.2956
12271SOL    HW138487   3.984   6.590   2.868 -0.2363 -1.4062 -1.2728
12271SOL    HW238488   3.891   6.605   2.987  1.2538  1.3138 -0.3568
12272SOL     OW38489   2.794   3.287   6.001  0.1075 -0.1841  0.7004
12272SOL    HW138490   2.878   3.298   5.956  0.2100  1.1548  1.1750
12272SOL    HW238491   2.757   3.375   6.004 -3.5027 -1.2637 -3.5388
12273SOL     OW38492   2.201   5.719   7.332 -0.1790 -0.3955  0.0565
12273SOL    HW138493   2.180   5.710   7.238  0.9011 -0.4294 -0.1882
12273SOL    HW238494   2.296   5.728   7.335 -0.2192 -0.2112  1.1474
12274SOL     OW38495   3.916   7.032   7.341 -0.4980  0.2241 -0.1622
12274SOL    HW138496   3.979   7.006   7.408 -0.4255  0.5118 -0.1205
12274SOL    HW238497   3.865   6.952   7.324 -0.9086  0.2959  0.6654
12275SOL     OW38498   5.241   6.557   7.832 -0.2092 -0.2205  0.0158
12275SOL    HW138499   5.242   6.467   7.798  0.9655 -0.5414  0.8290
12275SOL    HW238500   5.251   6.612   7.754  0.1689 -0.8521 -0.3943
12276SOL     OW38501   6.576   8.754   2.040  0.2939 -0.0946 -0.3248
12276SOL    HW138502   6.655   8.805   2.058 -0.0042  0.3849 -0.3668
12276SOL    HW238503   6.544   8.729   2.126 -0.3706  1.0391 -0.2294
12277SOL     OW38504   1.682   8.382   3.327 -0.0009 -0.2296  0.0489
12277SOL    HW138505   1.662   8.309   3.386  0.5933 -0.7418 -0.3639
12277SOL    HW238506   1.738   8.439   3.378  2.3286 -1.7512 -0.6612
12278SOL     OW38507   3.156   4.264   6.696 -0.0381 -0.2683 -0.2542
12278SOL    HW138508   3.143   4.176   6.731 -1.5790  0.0317 -0.0118
12278SOL    HW238509   3.070   4.290   6.662  0.5690  0.8521 -1.0099
12279SOL     OW38510   0.628   8.510   3.530 -0.6809 -0.1179  0.6133
12279SOL    HW138511   0.653   8.417   3.523  2.5008  0.6800 -0.0459
12279SOL    HW238512   0.632   8.543   3.441  1.1126  1.2672  1.1634
12280SOL     OW38513   7.947   3.371   2.154  0.0488 -0.6955  0.3177
12280SOL    HW138514   7.902   3.389   2.072  0.1751  3.0425  0.8891
12280SOL    HW238515   7.895   3.302   2.196 -1.5292 -0.8249 -1.7174
12281SOL     OW38516   0.602   1.743   0.853 -0.1539  0.1493  0.2008
12281SOL    HW138517   0.522   1.744   0.906 -0.1261  0.7595  0.2432
12281SOL    HW238518   0.597   1.824   0.802 -0.1195 -0.3789 -0.6442
12282SOL     OW38519   6.654   7.613   6.793 -0.3399 -0.9673 -0.0999
12282SOL    HW138520   6.572   7.567   6.808 -0.0303 -1.1796  1.0565
12282SOL    HW238521   6.642   7.698   6.835  0.2088 -1.2036  0.5657
12283SOL     OW38522   9.674   9.636   3.038 -0.1968 -0.2225 -0.3675
12283SOL    HW138523   9.667   9.732   3.035  0.2387 -0.1427  0.7642
12283SOL    HW238524   9.587   9.605   3.013 -0.2328  0.4514 -1.1292
12284SOL     OW38525   8.799   5.082   0.844  0.3233  0.3929  0.0579
12284SOL    HW138526   8.781   4.994   0.877 -0.2073  0.0772 -1.0407
12284SOL    HW238527   8.780   5.139   0.918  3.1147 -0.5502  1.6680
12285SOL     OW38528   2.179   5.623   1.998  0.3455 -0.9748  0.1438
12285SOL    HW138529   2.153   5.537   2.031  1.5941 -1.8617 -1.0849
12285SOL    HW238530   2.235   5.604   1.923  1.2523  0.9085  0.2959
12286SOL     OW38531   3.170   4.923   8.885  0.3106  0.1424 -0.2727
12286SOL    HW138532   3.130   4.904   8.969  2.9295  0.7307  1.2332
12286SOL    HW238533   3.242   4.982   8.906  2.1289 -1.0322 -2.6958
12287SOL     OW38534   0.865   5.067   9.407  0.3675  0.2995 -0.1407
12287SOL    HW138535   0.957   5.044   9.420  0.2134 -0.0958  0.2836
12287SOL    HW238536   0.821   4.983   9.395  0.1125  0.5082 -0.7137
12288SOL     OW38537   1.171   3.538   0.980  0.5021  0.0054  0.3344
12288SOL    HW138538   1.097   3.583   1.020  0.2819 -0.1002  0.0493
12288SOL    HW238539   1.170   3.567   0.889  0.5334 -0.3535  0.2195
12289SOL     OW38540   5.748   1.906   3.481  0.6718 -0.2002 -0.2381
12289SOL    HW138541   5.785   1.878   3.565  1.5446  1.7089  0.0525
12289SOL    HW238542   5.774   1.837   3.420  1.0990 -0.9955  0.8071
12290SOL     OW38543   8.217   3.434   1.889 -0.5323  0.1012  0.3264
12290SOL    HW138544   8.280   3.446   1.960 -1.7417  0.3311  1.3926
12290SOL    HW238545   8.162   3.513   1.892 -1.4795 -0.5299  0.0532
12291SOL     OW38546   7.858   2.658   8.839  0.1417 -0.5560 -0.3017
12291SOL    HW138547   7.931   2.676   8.780  0.7737 -0.6980  0.4136
12291SOL    HW238548   7.793   2.725   8.818  0.3898 -0.5508 -1.0832
12292SOL     OW38549   9.263   4.478   6.106 -0.8317  0.6250 -0.3603
12292SOL    HW138550   9.343   4.500   6.154 -0.5415 -0.5990 -0.2416
12292SOL    HW238551   9.200   4.545   6.132 -0.8033 -0.1574  2.0409
12293SOL     OW38552   9.157   5.459   0.015  0.5410 -0.2579  0.2578
12293SOL    HW138553   9.199   5.476   0.099  0.3231  0.6014  0.2029
12293SOL    HW238554   9.181   5.534  -0.040 -1.0132  0.2638  0.2183
12294SOL     OW38555   3.662   9.215   2.429 -0.5807 -0.0138 -0.1876
12294SOL    HW138556   3.723   9.247   2.362  0.2208 -2.2965 -0.6406
12294SOL    HW238557   3.710   9.225   2.511 -0.7640  0.8775 -0.1752
12295SOL     OW38558   0.479   0.120   0.489 -0.2108  0.1486 -0.0197
12295SOL    HW138559   0.460   0.212   0.472 -1.3030 -0.1464 -0.4975
12295SOL    HW238560   0.431   0.072   0.421  0.7432 -0.7576 -0.0908
12296SOL     OW38561   6.060   7.530   2.181 -0.0238  0.3999  0.0715
12296SOL    HW138562   6.141   7.479   2.174 -0.4879 -0.2287 -0.9931
12296SOL    HW238563   6.010   7.505   2.103 -0.4511  2.1811 -0.2564
12297SOL     OW38564   1.217   8.394   6.429  0.9943  0.0615  0.6735
12297SOL    HW138565   1.272   8.371   6.504  2.4688  0.3979 -0.2601
12297SOL    HW238566   1.278   8.431   6.365 -0.3732  0.7102 -0.3085
12298SOL     OW38567   7.540   5.875   6.124  0.0594 -0.2836  0.6003
12298SOL    HW138568   7.630   5.860   6.153 -0.4932 -0.3216  2.4008
12298SOL    HW238569   7.500   5.788   6.123  0.0312 -0.2742 -0.2558
12299SOL     OW38570   6.723   0.048   5.738 -0.2853 -0.8243 -0.0497
12299SOL    HW138571   6.717   0.104   5.661 -0.3267 -2.7657 -1.5424
12299SOL    HW238572   6.816   0.030   5.748 -0.2984 -0.7435  0.2315
12300SOL     OW38573   9.152   4.891   2.775 -0.4959 -0.3885  0.1050
12300SOL    HW138574   9.109   4.889   2.861  1.0170 -0.0433  0.9026
12300SOL    HW238575   9.204   4.811   2.772 -2.1216 -1.4865 -1.4089
12301SOL     OW38576   3.468   1.804   9.189  0.2517 -0.3952  0.2439
12301SOL    HW138577   3.528   1.869   9.223  0.5515 -0.1589 -0.7118
12301SOL    HW238578   3.516   1.760   9.119 -0.6442 -0.2621 -0.4821
12302SOL     OW38579   2.322   4.539   1.177  0.2741  0.3890 -0.0566
12302SOL    HW138580   2.347   4.622   1.136  1.6597 -0.8078 -1.7564
12302SOL    HW238581   2.354   4.546   1.267 -0.1676  1.9016  0.0129
12303SOL     OW38582   0.530   7.319   7.669  0.4357  0.5982  0.0917
12303SOL    HW138583   0.449   7.297   7.716 -0.3399 -1.9814 -2.1737
12303SOL    HW238584   0.504   7.390   7.610  0.2830  0.8948  0.5065
12304SOL     OW38585   8.528   3.148   1.486  0.3911 -0.0611 -0.5359
12304SOL    HW138586   8.623   3.159   1.490  0.2034  1.7079 -0.0558
12304SOL    HW238587   8.497   3.180   1.571 -0.6104 -1.1975 -0.4407
12305SOL     OW38588   8.769   9.375   8.747  1.0158 -0.4737  0.6024
12305SOL    HW138589   8.823   9.378   8.668  0.4464  1.8769  0.2339
12305SOL    HW238590   8.704   9.307   8.729  1.3770 -0.5104 -0.6254
12306SOL     OW38591   6.564   6.900   5.170  0.0871 -0.3845 -0.3833
12306SOL    HW138592   6.605   6.979   5.134  0.0354  0.3229  1.0121
12306SOL    HW238593   6.486   6.933   5.215 -0.4061 -1.3554 -0.5102
12307SOL     OW38594   2.479   3.486   5.846  0.5644 -0.0336 -0.0442
12307SOL    HW138595   2.565   3.492   5.886  0.6498  1.4498 -0.3902
12307SOL    HW238596   2.462   3.392   5.839  1.9275 -0.3405  0.4831
12308SOL     OW38597   0.477   4.416   8.384  0.2559 -0.0185  0.2295
12308SOL    HW138598   0.420   4.441   8.457  0.0836  0.6522 -0.1238
12308SOL    HW238599   0.553   4.374   8.425 -0.3064 -0.5598  0.7283
12309SOL     OW38600   2.702   6.653   7.150 -0.2118 -0.1496  0.6673
12309SOL    HW138601   2.636   6.585   7.161 -0.0208 -0.3079  0.8317
12309SOL    HW238602   2.654   6.727   7.112 -0.2281 -0.7142 -0.4453
12310SOL     OW38603   3.107   6.770   0.503  0.6161  0.0947  0.5545
12310SOL    HW138604   3.154   6.731   0.429  0.1224  0.4702  0.0280
12310SOL    HW238605   3.167   6.761   0.577  0.9986 -0.5661  0.1805
12311SOL     OW38606   8.891   8.591   0.023 -0.3737  0.3762 -0.3711
12311SOL    HW138607   8.847   8.666   0.063 -0.7848  0.6954 -1.3737
12311SOL    HW238608   8.878   8.519   0.084 -1.3652  0.7272 -0.1511
12312SOL     OW38609   7.663   2.734   6.220  0.3891  0.4632 -0.3814
12312SOL    HW138610   7.738   2.740   6.280  0.9567 -0.2892 -0.9854
12312SOL    HW238611   7.695   2.772   6.138 -0.9810  3.2490  0.2809
12313SOL     OW38612   2.871   5.766   1.836  0.4415 -0.1749  0.0840
12313SOL    HW138613   2.896   5.843   1.786  0.9661 -0.9850 -0.9269
12313SOL    HW238614   2.776   5.762   1.827  0.2084  1.1683  1.3932
12314SOL     OW38615   3.854   1.557   1.715  0.3754 -0.5210  0.4349
12314SOL    HW138616   3.789   1.526   1.779  0.0792 -2.4659 -0.7133
12314SOL    HW238617   3.816   1.535   1.630  2.1121 -0.8264 -0.3060
12315SOL     OW38618   6.871   3.299   2.745 -0.2458  0.3360 -0.1902
12315SOL    HW138619   6.908   3.238   2.681 -0.4504  0.6226 -0.5818
12315SOL    HW238620   6.870   3.249   2.827 -0.3758 -0.1804 -0.4995
12316SOL     OW38621   6.778   8.958   8.212 -0.0367 -0.1416  0.1216
12316SOL    HW138622   6.840   8.990   8.146  0.3327  0.0302  0.5473
12316SOL    HW238623   6.698   8.940   8.163 -0.0757  0.9014 -0.2274
12317SOL     OW38624   4.550   9.435   7.941  0.5262  0.0784 -0.4775
12317SOL    HW138625   4.633   9.474   7.970  0.6617 -0.2349 -0.4369
12317SOL    HW238626   4.529   9.370   8.008  0.1132  0.3316 -0.3563
12318SOL     OW38627   6.546   5.049   3.334 -0.2556 -0.0242 -0.0676
12318SOL    HW138628   6.464   5.005   3.357 -1.3455  0.8716 -2.0312
12318SOL    HW238629   6.592   4.985   3.279 -0.6659  0.3030 -0.7995
12319SOL     OW38630   6.714   5.718   0.108  0.0388 -0.3385  0.1872
12319SOL    HW138631   6.648   5.667   0.061 -1.8494 -0.1184  2.4190
12319SOL    HW238632   6.694   5.809   0.088  0.6555 -0.3116 -0.3357
12320SOL     OW38633   6.404   4.952   3.712  0.6403  0.2215 -0.1824
12320SOL    HW138634   6.451   4.891   3.656  0.3321  0.9415 -1.2512
12320SOL    HW238635   6.343   4.897   3.761  0.7756 -0.3972 -0.6968
12321SOL     OW38636   6.187   5.283   4.453 -0.0278  0.1861  0.3770
12321SOL    HW138637   6.113   5.249   4.403  0.2109  1.4421 -0.9129
12321SOL    HW238638   6.148   5.333   4.524 -0.4066 -0.0192  0.3147
12322SOL     OW38639   3.948   2.810   1.902 -0.3083  0.2927 -0.0592
12322SOL    HW138640   3.884   2.749   1.939 -1.1536  0.5628 -1.0144
12322SOL    HW238641   3.947   2.885   1.961 -0.4883  0.0719  0.2207
12323SOL     OW38642   3.167   6.263   0.848 -0.4197 -0.2278  0.2825
12323SOL    HW138643   3.167   6.179   0.802  1.4423 -0.3430  0.4093
12323SOL    HW238644   3.135   6.326   0.784  0.9984 -0.5810 -0.8355
12324SOL     OW38645   2.022   7.186   4.507  0.5733 -0.4852  0.4818
12324SOL    HW138646   2.023   7.137   4.589  1.1498  0.6949  1.1910
12324SOL    HW238647   2.114   7.196   4.483  0.4316 -0.3141 -0.0126
12325SOL     OW38648   5.965   7.418   9.659  0.1901  0.2399 -0.4202
12325SOL    HW138649   5.982   7.511   9.671 -2.2906  0.6033  1.1161
12325SOL    HW238650   6.017   7.375   9.726 -0.5800  0.7932  0.5600
12326SOL     OW38651   1.274   8.719   1.295  0.2080  0.3443 -0.7249
12326SOL    HW138652   1.192   8.718   1.245 -0.2725 -0.9962  0.0306
12326SOL    HW238653   1.306   8.809   1.288 -0.4412  0.4749 -2.4521
12327SOL     OW38654   3.383   4.224   0.819  0.6614 -0.4858  0.4604
12327SOL    HW138655   3.463   4.242   0.769 -0.4566 -1.2722 -1.7543
12327SOL    HW238656   3.396   4.136   0.854 -0.3626 -1.9633 -2.5309
12328SOL     OW38657   8.397   7.557   7.892 -0.7352  0.4152  0.4084
12328SOL    HW138658   8.458   7.618   7.933 -1.4097  1.4039 -0.0213
12328SOL    HW238659   8.451   7.483   7.865  0.0539  0.6903  1.1918
12329SOL     OW38660   6.791   3.517   1.830 -0.3143 -0.6721  0.4382
12329SOL    HW138661   6.752   3.523   1.917 -2.6359  1.2146 -0.6032
12329SOL    HW238662   6.738   3.450   1.785 -0.1836 -0.5020  0.0196
12330SOL     OW38663   8.952   9.318   8.544 -0.2028 -0.3285 -0.3935
12330SOL    HW138664   8.952   9.250   8.476  0.5199 -0.1322 -0.6006
12330SOL    HW238665   9.015   9.285   8.609 -1.4017 -0.8545  0.5413
12331SOL     OW38666   9.367   6.182   2.021  1.1925 -0.5954  0.0129
12331SOL    HW138667   9.436   6.120   2.043  1.0182 -1.0305 -0.6391
12331SOL    HW238668   9.286   6.139   2.049  0.8249 -1.7713 -2.6206
12332SOL     OW38669   1.304   3.375   9.110 -1.0431 -0.3562  0.0616
12332SOL    HW138670   1.340   3.457   9.075 -1.1934 -0.5826 -0.6296
12332SOL    HW238671   1.366   3.350   9.179 -0.2480 -0.3616 -0.6329
12333SOL     OW38672   4.812   9.244   6.189 -0.2273 -0.1254  0.4329
12333SOL    HW138673   4.762   9.304   6.245 -0.7536  0.8625 -1.0256
12333SOL    HW238674   4.877   9.300   6.147  0.2958 -0.8903  0.2044
12334SOL     OW38675   9.487   6.129   0.664  0.5247  0.2487 -0.3336
12334SOL    HW138676   9.472   6.215   0.624  0.4861  0.4789  0.1600
12334SOL    HW238677   9.466   6.142   0.757  0.7277 -0.2390 -0.2145
12335SOL     OW38678   6.254   2.501   7.037 -0.3583  0.2037 -0.1762
12335SOL    HW138679   6.260   2.421   6.983  2.3020  0.9760 -1.1929
12335SOL    HW238680   6.304   2.566   6.988  1.0950  1.3364  2.5794
12336SOL     OW38681   2.534   3.477   4.093 -0.6983  0.3109 -0.3258
12336SOL    HW138682   2.527   3.382   4.089  3.0334 -0.1766  1.0962
12336SOL    HW238683   2.623   3.496   4.065 -0.6657  3.1801  1.3533
12337SOL     OW38684   9.491   6.664   6.224 -0.0922  0.2940 -0.1722
12337SOL    HW138685   9.554   6.636   6.290 -1.6448  0.1042  1.2780
12337SOL    HW238686   9.450   6.583   6.193  0.5213  0.3919 -1.3101
12338SOL     OW38687   6.040   3.350   2.539 -0.1881  0.2976  0.6649
12338SOL    HW138688   6.133   3.339   2.561 -0.2207 -0.0391  0.6294
12338SOL    HW238689   6.008   3.262   2.522 -0.1330  0.5461 -0.8650
12339SOL     OW38690   1.019   6.600   2.452 -0.2706  0.1333 -0.3292
12339SOL    HW138691   1.090   6.546   2.415 -1.3604 -0.9296 -0.9467
12339SOL    HW238692   0.939   6.564   2.414 -1.1896  1.0534  0.6568
12340SOL     OW38693   2.139   2.234   5.552  0.0990 -0.0163 -0.2759
12340SOL    HW138694   2.057   2.238   5.602  0.3530  1.9138  0.0645
12340SOL    HW238695   2.141   2.145   5.516 -2.2045 -0.0709 -0.4033
12341SOL     OW38696   3.263   7.290   6.072 -0.1297  0.4110  0.6478
12341SOL    HW138697   3.221   7.235   6.006 -2.2820  2.4147  0.2056
12341SOL    HW238698   3.197   7.301   6.140  0.9131  0.9826  1.6023
12342SOL     OW38699   8.272   4.402   8.068 -0.3278  0.1033  0.1459
12342SOL    HW138700   8.282   4.487   8.111 -0.7777  1.1664 -1.7479
12342SOL    HW238701   8.360   4.381   8.036 -0.1840 -0.2317  0.7522
12343SOL     OW38702   2.538   1.022   0.351 -0.0466 -0.4794  0.1703
12343SOL    HW138703   2.457   1.052   0.394  0.2398 -1.6030  1.5832
12343SOL    HW238704   2.585   0.975   0.420  1.0215 -1.3215 -1.0928
12344SOL     OW38705   5.340   7.145   2.966 -0.3899  0.6160 -0.7492
12344SOL    HW138706   5.333   7.067   3.021  1.1249  1.7054  1.1541
12344SOL    HW238707   5.282   7.128   2.892 -0.6498 -1.9902 -0.0571
12345SOL     OW38708   7.403   4.426   1.809  0.1549 -0.1278 -0.1120
12345SOL    HW138709   7.351   4.463   1.737  0.7191  0.6747 -0.1294
12345SOL    HW238710   7.392   4.332   1.801 -1.3620  0.0192 -0.0532
12346SOL     OW38711   5.585   0.724   7.181 -0.4017  0.3215  0.3489
12346SOL    HW138712   5.503   0.773   7.173  0.1501  1.3086  0.6029
12346SOL    HW238713   5.616   0.744   7.269 -0.9267 -1.7412  1.0535
12347SOL     OW38714   5.219   1.338   0.827 -0.5329  0.6113  0.0323
12347SOL    HW138715   5.163   1.409   0.796 -0.5112  0.3137 -0.7130
12347SOL    HW238716   5.285   1.328   0.759 -0.2322  0.2109  0.3723
12348SOL     OW38717   0.716   8.009   5.675  0.1725 -0.6486 -0.0200
12348SOL    HW138718   0.810   7.993   5.685  0.1085  0.1360  2.8865
12348SOL    HW238719   0.675   7.930   5.709 -0.2556 -0.9823 -1.2725
12349SOL     OW38720   8.444   6.297   1.764  0.1410  0.4643  0.2855
12349SOL    HW138721   8.412   6.279   1.676 -0.0663  0.3530  0.3820
12349SOL    HW238722   8.370   6.276   1.821  0.7457 -0.9285  0.6004
12350SOL     OW38723   4.946   2.569   6.066 -0.6199 -0.3850 -0.2376
12350SOL    HW138724   4.910   2.589   6.153  0.0456 -1.3304  0.2612
12350SOL    HW238725   4.915   2.481   6.047 -0.0383 -0.5166 -0.5813
12351SOL     OW38726   3.895   1.437   6.358 -0.1130  0.6956  0.3233
12351SOL    HW138727   3.861   1.481   6.280  1.2802 -0.4870 -1.0226
12351SOL    HW238728   3.935   1.356   6.324 -1.3800 -0.9536  2.5205
12352SOL     OW38729   2.592   8.588   7.478 -0.2172  0.0458 -0.4056
12352SOL    HW138730   2.518   8.527   7.472 -0.0525 -0.0453 -1.8009
12352SOL    HW238731   2.586   8.641   7.399  1.0844  0.1919 -0.4302
12353SOL     OW38732   3.138   6.358   7.150 -0.0535 -0.1422 -0.0591
12353SOL    HW138733   3.065   6.373   7.089  0.5160 -2.3273 -1.3563
12353SOL    HW238734   3.114   6.278   7.196  1.0796 -0.3211  0.2336
12354SOL     OW38735   9.373   0.797   7.381 -0.3409  0.7921  0.1324
12354SOL    HW138736   9.308   0.789   7.451 -0.2527  1.5602  0.3060
12354SOL    HW238737   9.446   0.742   7.409 -0.6742  0.3911  0.2169
12355SOL     OW38738   7.649   7.086   6.726  0.5207  0.2986  0.0767
12355SOL    HW138739   7.623   7.017   6.787  0.8264  1.6247  1.8063
12355SOL    HW238740   7.577   7.091   6.663 -0.1937 -0.5876  0.7865
12356SOL     OW38741   5.083   3.297   8.840 -0.0773  0.5089 -0.7445
12356SOL    HW138742   5.126   3.371   8.884 -0.6669  1.5189 -1.8060
12356SOL    HW238743   5.122   3.220   8.881 -0.6641  1.3614  1.6031
12357SOL     OW38744   4.749   6.836   0.844  0.2917 -0.3231  0.9506
12357SOL    HW138745   4.770   6.823   0.752 -0.5257  0.0237  0.7066
12357SOL    HW238746   4.727   6.929   0.851  1.4037 -0.0993  1.7168
12358SOL     OW38747   3.892   9.370   2.009  0.0835  0.3085 -0.2157
12358SOL    HW138748   3.898   9.459   1.973  1.3202 -0.3707 -1.7838
12358SOL    HW238749   3.983   9.339   2.011 -0.1545 -0.4300  1.6935
12359SOL     OW38750   4.409   9.390   1.380 -0.0918  0.1465  0.2330
12359SOL    HW138751   4.436   9.373   1.290 -2.7402  1.8484 -1.0180
12359SOL    HW238752   4.452   9.472   1.404 -0.0435  0.1363  0.1813
12360SOL     OW38753   3.812   9.221   6.993 -1.4298 -0.0385  0.1413
12360SOL    HW138754   3.770   9.265   6.919 -1.5059 -0.4959 -0.0882
12360SOL    HW238755   3.827   9.131   6.963  1.6365  0.6060 -0.5967
12361SOL     OW38756   7.872   6.219   1.181  0.2717  0.8247  0.7787
12361SOL    HW138757   7.958   6.187   1.208  0.8907  0.5136 -1.3477
12361SOL    HW238758   7.817   6.141   1.177  0.1356  0.8934  1.2554
12362SOL     OW38759   0.223   0.740   4.979  0.0986 -0.2898 -0.0305
12362SOL    HW138760   0.183   0.684   4.912  1.1501 -0.7695 -0.2824
12362SOL    HW238761   0.269   0.807   4.929 -0.2854  0.1983  0.2573
12363SOL     OW38762   6.158   8.305   0.185 -0.1417  0.5901 -0.1275
12363SOL    HW138763   6.115   8.292   0.269  0.1446 -0.5120 -0.1323
12363SOL    HW238764   6.087   8.304   0.121 -0.1577 -1.4725 -0.1614
12364SOL     OW38765   4.099   6.930   8.410 -0.5597  0.0435  0.6057
12364SOL    HW138766   4.169   6.880   8.369  0.3634  0.9336  1.0270
12364SOL    HW238767   4.043   6.865   8.453 -0.2774 -0.7149 -0.1617
12365SOL     OW38768   8.955   4.676   3.486 -0.3067  0.6965  0.0504
12365SOL    HW138769   8.909   4.705   3.565  0.7123 -0.3455  1.0440
12365SOL    HW238770   8.985   4.758   3.445  0.3155  1.2060  1.4588
12366SOL     OW38771   7.089   5.274   1.365 -0.3881 -0.0871  0.1426
12366SOL    HW138772   6.998   5.242   1.371 -0.4478  0.2589  1.8319
12366SOL    HW238773   7.085   5.363   1.400  0.4923  0.2094 -0.4775
12367SOL     OW38774   9.331   7.004   5.476 -0.0144  0.0764 -0.6401
12367SOL    HW138775   9.318   6.961   5.392  0.4690 -0.2537 -0.5492
12367SOL    HW238776   9.264   7.072   5.479 -0.5142 -0.3965 -0.9705
12368SOL     OW38777   1.002   2.153   3.853 -0.2445 -0.4490  0.2886
12368SOL    HW138778   0.933   2.191   3.799 -0.0027 -0.5778 -0.1178
12368SOL    HW238779   1.062   2.113   3.790  0.1559 -0.4107  0.6428
12369SOL     OW38780   1.564   1.529   3.786  0.0005  0.0297 -0.9866
12369SOL    HW138781   1.658   1.516   3.797 -0.1459  0.4184  1.1817
12369SOL    HW238782   1.550   1.623   3.800 -0.6823  0.0338 -1.6059
12370SOL     OW38783   5.955   6.478   0.123  0.3250  0.4756 -0.8095
12370SOL    HW138784   5.933   6.563   0.084  0.5737  0.2775 -1.3951
12370SOL    HW238785   6.027   6.445   0.070 -0.9813 -0.9422 -1.7978
12371SOL     OW38786   0.824   3.603   1.300  0.0682 -0.4345  0.0987
12371SOL    HW138787   0.873   3.591   1.381 -0.0355  0.6874  0.3457
12371SOL    HW238788   0.890   3.628   1.235  0.1954 -1.6305 -0.2553
12372SOL     OW38789   2.113   0.628   6.981  0.8041 -0.2730  0.2727
12372SOL    HW138790   2.076   0.590   7.061  1.1897  1.3331  1.2590
12372SOL    HW238791   2.204   0.599   6.981  0.4951 -1.3082 -0.2831
12373SOL     OW38792   6.181   4.078   0.511  0.1646 -0.2341  0.4824
12373SOL    HW138793   6.089   4.069   0.537  0.3573 -0.9969  0.9385
12373SOL    HW238794   6.218   4.138   0.576  0.0905 -0.2650  0.5532
12374SOL     OW38795   2.703   0.615   0.016 -0.7171  0.2120  0.4068
12374SOL    HW138796   2.638   0.680   0.042 -2.7850 -0.0930 -3.2829
12374SOL    HW238797   2.651   0.538  -0.008  1.1518 -0.7444 -0.7803
12375SOL     OW38798   8.671   9.639   6.506  0.5722  0.4810 -0.1965
12375SOL    HW138799   8.616   9.717   6.504 -0.4969 -0.2575 -0.3764
12375SOL    HW238800   8.744   9.659   6.447  0.1629  1.2339 -0.4483
12376SOL     OW38801   4.623   6.054   5.225  0.6897 -0.0424 -0.1655
12376SOL    HW138802   4.652   6.102   5.303 -0.1975 -0.8308  0.6756
12376SOL    HW238803   4.565   6.115   5.180  0.4995  0.1057  0.2672
12377SOL     OW38804   1.988   7.620   7.624 -0.9607 -0.0675 -0.0814
12377SOL    HW138805   2.015   7.681   7.692 -0.1578 -0.1094 -0.3501
12377SOL    HW238806   1.892   7.620   7.628 -0.9317 -1.1296  1.9943
12378SOL     OW38807   6.539   1.151   1.928 -0.1065  0.0143  0.4980
12378SOL    HW138808   6.488   1.116   1.856  0.6859 -1.6164  0.6716
12378SOL    HW238809   6.545   1.078   1.991  0.6191  0.8471  1.4301
12379SOL     OW38810   2.893   5.379   3.155  0.3687  0.4924 -0.3285
12379SOL    HW138811   2.900   5.292   3.193  0.4002  0.0367 -1.3440
12379SOL    HW238812   2.974   5.424   3.182  1.2764 -0.4426 -1.3510
12380SOL     OW38813   3.279   3.258   0.901 -0.6199  0.4799 -0.1485
12380SOL    HW138814   3.342   3.304   0.845 -0.4385 -0.7988 -1.0345
12380SOL    HW238815   3.302   3.166   0.892 -1.8857  0.0859  0.4470
12381SOL     OW38816   3.690   1.675   5.918 -0.4118 -0.0505 -0.2148
12381SOL    HW138817   3.781   1.692   5.894 -0.5496  1.6033  0.3140
12381SOL    HW238818   3.651   1.639   5.839  0.8159 -1.3240 -0.2899
12382SOL     OW38819   2.807   3.690   0.449 -0.6357 -0.0923  0.2392
12382SOL    HW138820   2.722   3.689   0.494 -0.8999 -1.8283 -0.2118
12382SOL    HW238821   2.793   3.635   0.371  0.3427  1.2664 -0.9491
12383SOL     OW38822   5.018   8.989   6.270 -0.2972  1.1953 -0.1978
12383SOL    HW138823   4.940   9.010   6.322 -0.1768  1.1276  0.0126
12383SOL    HW238824   5.013   9.047   6.195 -0.2329  1.6177  0.1248
12384SOL     OW38825   2.229   2.427   2.336 -0.3251 -0.2661 -0.3819
12384SOL    HW138826   2.177   2.347   2.327  0.6241 -0.8942 -0.4250
12384SOL    HW238827   2.173   2.486   2.387 -0.4467 -1.5237  1.0349
12385SOL     OW38828   9.482   3.131   2.443 -0.2289 -0.1734  0.5483
12385SOL    HW138829   9.442   3.217   2.460 -0.4032 -0.0480 -0.4176
12385SOL    HW238830   9.411   3.069   2.459 -0.5352 -0.0222 -0.1864
12386SOL     OW38831   9.009   1.280   4.455 -0.4371 -0.0392 -0.0513
12386SOL    HW138832   9.034   1.260   4.365 -0.1633 -0.8231  0.1951
12386SOL    HW238833   9.089   1.312   4.496 -0.4457 -0.1424  0.0460
12387SOL     OW38834   1.376   7.525   8.750  0.4177 -0.3386 -0.3008
12387SOL    HW138835   1.303   7.463   8.746  0.8622 -1.0590  1.5046
12387SOL    HW238836   1.338   7.605   8.787  0.1204  0.0581 -1.4137
12388SOL     OW38837   3.662   9.157   7.774 -0.3625 -0.4792 -0.1192
12388SOL    HW138838   3.623   9.071   7.758 -2.1015  0.0640  0.8542
12388SOL    HW238839   3.650   9.171   7.868  3.5449 -0.8202  0.5745
12389SOL     OW38840   4.752   8.728   4.725  0.0213  0.7269 -0.1214
12389SOL    HW138841   4.813   8.704   4.655  1.4772  0.7221  1.0986
12389SOL    HW238842   4.710   8.645   4.749 -1.1159  0.8562 -1.4982
12390SOL     OW38843   3.522   9.116   6.233 -0.1157 -0.3855 -0.0206
12390SOL    HW138844   3.484   9.102   6.147  0.3446  0.1843 -0.3261
12390SOL    HW238845   3.542   9.027   6.265 -1.5038 -0.6797  0.0780
12391SOL     OW38846   0.803   3.523   8.890 -0.1691 -0.0662 -0.1895
12391SOL    HW138847   0.747   3.576   8.946  1.3274  1.7284 -0.2930
12391SOL    HW238848   0.889   3.525   8.934  0.7985  0.5752 -2.0325
12392SOL     OW38849   1.569   6.289   7.978  0.0704  0.2101  0.2365
12392SOL    HW138850   1.524   6.369   8.003  0.9177  0.6002  0.5378
12392SOL    HW238851   1.502   6.237   7.932 -0.5312  1.0017  0.2025
12393SOL     OW38852   1.213   2.070   6.806  0.3831 -0.4913  0.1815
12393SOL    HW138853   1.249   2.102   6.724 -0.1860 -2.0791 -0.7309
12393SOL    HW238854   1.286   2.024   6.848  1.6303  2.9091  2.1669
12394SOL     OW38855   7.687   8.834   6.545 -0.1223  0.2008  0.2195
12394SOL    HW138856   7.634   8.754   6.547 -0.6372  0.4753 -1.2594
12394SOL    HW238857   7.774   8.804   6.521 -0.6091  0.1702 -1.7092
12395SOL     OW38858   3.617   6.399   3.956 -0.2056  0.0926  0.3014
12395SOL    HW138859   3.584   6.429   4.041 -0.8574 -1.6201  0.6953
12395SOL    HW238860   3.548   6.341   3.923  1.0526 -1.1362 -0.2825
12396SOL     OW38861   1.784   7.461   5.370 -0.1932 -0.5142 -0.5395
12396SOL    HW138862   1.719   7.515   5.415  0.5199 -0.3615  0.3555
12396SOL    HW238863   1.832   7.522   5.314  0.6850 -0.1576  0.5542
12397SOL     OW38864   2.998   3.520   0.604  0.1309  0.3476 -0.3853
12397SOL    HW138865   3.070   3.470   0.643  1.2259  1.3385 -1.0647
12397SOL    HW238866   3.042   3.590   0.555 -1.2919  0.7103 -1.1793
12398SOL     OW38867   1.371   3.401   2.571  0.0839 -0.2111  0.2737
12398SOL    HW138868   1.342   3.490   2.549  1.6361  0.8913  2.2502
12398SOL    HW238869   1.328   3.345   2.507 -0.4572  2.0193 -1.4530
12399SOL     OW38870   1.424   0.059   1.278 -1.0723 -0.0462  0.0393
12399SOL    HW138871   1.510   0.075   1.239 -1.7288 -0.6792 -1.7451
12399SOL    HW238872   1.441  -0.004   1.348 -0.0237  0.2361  0.0615
12400SOL     OW38873   2.816   7.217   4.452 -0.0197 -0.1944 -0.3663
12400SOL    HW138874   2.777   7.298   4.418 -0.3074  0.9701  2.4196
12400SOL    HW238875   2.741   7.163   4.476  0.1486 -0.3845 -0.2661
12401SOL     OW38876   5.012   5.579   2.260  0.6744  0.6641  0.2546
12401SOL    HW138877   4.977   5.582   2.349  0.9205  2.5764  0.3421
12401SOL    HW238878   4.940   5.546   2.207 -0.2179  1.5102  0.8871
12402SOL     OW38879   7.411   3.852   4.835  0.3882 -0.4493 -0.3638
12402SOL    HW138880   7.473   3.795   4.880  2.8069  0.7716 -1.9326
12402SOL    HW238881   7.401   3.927   4.893  0.4581 -0.6107 -0.1422
12403SOL     OW38882   9.170   4.185   3.196 -0.1814  0.3400 -0.2312
12403SOL    HW138883   9.153   4.210   3.287  0.6714  1.4591 -0.3524
12403SOL    HW238884   9.107   4.235   3.145  0.7050  1.3219 -0.3880
12404SOL     OW38885   2.884   0.806   5.989 -0.2938  0.0198 -0.1398
12404SOL    HW138886   2.977   0.796   6.009 -0.5467 -0.4192  0.8434
12404SOL    HW238887   2.859   0.887   6.032 -0.4224  0.0137 -0.2039
12405SOL     OW38888   2.393   7.735   7.097  0.0077 -0.1951 -0.0434
12405SOL    HW138889   2.384   7.672   7.168 -4.9699  0.3170  0.1257
12405SOL    HW238890   2.320   7.796   7.109  0.2936  1.3452 -4.2557
12406SOL     OW38891   5.501   2.498   9.120  0.3146 -0.6588 -0.1457
12406SOL    HW138892   5.502   2.449   9.203 -0.3390 -0.1337  0.1880
12406SOL    HW238893   5.410   2.529   9.113  0.8441  1.0404 -0.0182
12407SOL     OW38894   7.756   7.248   8.270  0.1914 -0.0453 -0.4119
12407SOL    HW138895   7.798   7.327   8.305 -1.4566  0.3529  0.7593
12407SOL    HW238896   7.745   7.191   8.346  0.8060 -1.1815 -1.1440
12408SOL     OW38897   2.066   0.930   2.431 -0.9491 -0.4884  0.0898
12408SOL    HW138898   2.071   0.835   2.423 -1.1938 -0.5319  0.4191
12408SOL    HW238899   1.991   0.945   2.488 -1.3531 -0.0731 -0.5333
12409SOL     OW38900   5.205   4.710   2.409  0.3385  0.1567  0.1023
12409SOL    HW138901   5.279   4.733   2.353  0.9457  2.5541  1.7704
12409SOL    HW238902   5.244   4.673   2.488 -0.3089  0.1378  0.4225
12410SOL     OW38903   8.032   4.615   8.471 -0.7627 -0.1021  0.8499
12410SOL    HW138904   8.015   4.549   8.404  0.5729  0.3110  0.0639
12410SOL    HW238905   7.977   4.690   8.445 -0.1249  0.1167  0.1078
12411SOL     OW38906   3.138   7.841   2.985 -0.4311  0.9033  0.0773
12411SOL    HW138907   3.148   7.877   3.073 -1.4747  1.1556  0.1056
12411SOL    HW238908   3.085   7.762   2.997 -2.4771  2.1183 -0.5422
12412SOL     OW38909   0.396   5.957   0.087  0.0617 -0.5941 -0.2305
12412SOL    HW138910   0.467   5.984   0.030 -1.0751 -0.0806 -1.4335
12412SOL    HW238911   0.401   6.016   0.162  1.4834 -1.1936  0.1737
12413SOL     OW38912   2.008   2.090   8.559  0.0539 -0.2204 -0.1675
12413SOL    HW138913   2.070   2.097   8.486  1.4340  0.7124  1.0544
12413SOL    HW238914   2.063   2.077   8.636 -1.2397  0.8652  0.9889
12414SOL     OW38915   3.557   6.924   8.748  0.4289  0.6029 -0.4472
12414SOL    HW138916   3.597   6.932   8.662 -0.0557  0.3271 -0.6983
12414SOL    HW238917   3.482   6.982   8.746 -1.9324 -2.2467 -1.6072
12415SOL     OW38918   5.256   7.483   4.465  0.2570  0.1689 -0.0246
12415SOL    HW138919   5.345   7.497   4.432  1.0650  0.9289  2.2700
12415SOL    HW238920   5.262   7.504   4.558 -2.4429  0.6245  0.1144
12416SOL     OW38921   3.219   2.553   9.126  0.0254  0.1954 -0.3747
12416SOL    HW138922   3.262   2.603   9.057 -2.0745  1.7668 -0.6318
12416SOL    HW238923   3.128   2.546   9.098 -0.7373  0.2752  1.8938
12417SOL     OW38924   7.496   4.860   1.717 -0.3237  0.1100 -0.1704
12417SOL    HW138925   7.523   4.912   1.792 -0.2630  1.5239 -1.1273
12417SOL    HW238926   7.577   4.820   1.684 -0.2035  0.2528 -0.0465
12418SOL     OW38927   5.694   5.383   8.556  1.2623 -0.1960  0.0011
12418SOL    HW138928   5.634   5.442   8.512  0.3272 -0.2608  1.1431
12418SOL    HW238929   5.762   5.363   8.491  0.8497  1.0463 -0.8218
12419SOL     OW38930   5.989   4.858   0.588  0.5024 -0.2459  0.0933
12419SOL    HW138931   6.067   4.852   0.532  0.6560 -0.3971  0.3245
12419SOL    HW238932   6.021   4.838   0.676  0.0985 -0.8650  0.1049
12420SOL     OW38933   8.026   0.453   0.929  0.1714  0.1257  0.0213
12420SOL    HW138934   7.945   0.433   0.882 -0.1068 -3.0038  1.5543
12420SOL    HW238935   7.997   0.481   1.016  0.7184  0.4896  0.0917
12421SOL     OW38936   1.173   4.099   7.018  0.3524  0.5589  0.4815
12421SOL    HW138937   1.099   4.041   6.998  0.0919  0.4946  1.5360
12421SOL    HW238938   1.249   4.042   7.013  0.3854  0.7003 -0.9475
12422SOL     OW38939   9.534   7.394   2.219 -0.0719  0.0065 -0.6215
12422SOL    HW138940   9.625   7.375   2.240 -0.5558 -0.3784  1.3548
12422SOL    HW238941   9.511   7.469   2.273 -1.3183 -0.8347  0.0931
12423SOL     OW38942   9.032   3.506   2.645  0.1023 -0.0948  0.1151
12423SOL    HW138943   9.053   3.448   2.572  1.0474  1.5275 -0.9915
12423SOL    HW238944   9.117   3.541   2.673 -0.4532  1.1161  0.3880
12424SOL     OW38945   2.541   8.218   6.983 -0.3918  0.1096  0.2863
12424SOL    HW138946   2.586   8.258   7.058 -1.0359  2.5382 -0.5642
12424SOL    HW238947   2.499   8.140   7.020  2.1311 -0.7013  1.6869
12425SOL     OW38948   5.107   3.175   4.305 -0.7696 -0.3936 -0.3061
12425SOL    HW138949   5.087   3.134   4.389 -1.5722  3.7120  1.7269
12425SOL    HW238950   5.199   3.198   4.310  0.0515 -2.8826 -2.0113
12426SOL     OW38951   6.814   3.830   7.536 -0.0840  0.0961  0.4513
12426SOL    HW138952   6.781   3.913   7.573  1.9499  1.0646  0.2395
12426SOL    HW238953   6.765   3.819   7.455 -0.8035  0.7835  0.7791
12427SOL     OW38954   5.816   9.402   6.532 -0.1700 -0.6900  0.2584
12427SOL    HW138955   5.903   9.362   6.527 -1.1579 -2.8772 -2.9849
12427SOL    HW238956   5.826   9.485   6.485  0.5787  0.1765  1.8626
12428SOL     OW38957   4.848   5.445   2.080  0.4527  0.0064  0.1508
12428SOL    HW138958   4.886   5.361   2.054  1.2723  0.0559  1.1359
12428SOL    HW238959   4.757   5.441   2.049  0.5410 -1.1503  0.0042
12429SOL     OW38960   1.133   5.141   6.974  0.1397 -0.7612  0.1149
12429SOL    HW138961   1.096   5.055   6.994 -0.3191 -0.4106  0.7920
12429SOL    HW238962   1.226   5.131   6.995 -0.0882 -0.8070  1.1645
12430SOL     OW38963   3.161   2.147   9.225 -0.3276  0.6805 -0.0146
12430SOL    HW138964   3.126   2.216   9.282 -0.7460  0.3323  0.1505
12430SOL    HW238965   3.186   2.193   9.145  1.0992  1.3287  0.7622
12431SOL     OW38966   6.429   6.639   3.913 -0.3288 -0.4451 -0.9153
12431SOL    HW138967   6.480   6.707   3.956  1.9540 -2.1214 -0.8221
12431SOL    HW238968   6.339   6.670   3.919  0.4346  1.7350  0.6164
12432SOL     OW38969   1.060   8.775   0.702  1.1404 -0.4399  0.0712
12432SOL    HW138970   1.003   8.741   0.771  0.8096  0.8810  0.4618
12432SOL    HW238971   1.147   8.742   0.724  0.6960 -1.8238 -0.1012
12433SOL     OW38972   8.448   5.655   5.511 -0.4135 -0.2737  0.3935
12433SOL    HW138973   8.399   5.593   5.458 -1.3060 -1.1581  2.1591
12433SOL    HW238974   8.538   5.624   5.508 -0.1249  0.6484 -1.8800
12434SOL     OW38975   0.319   9.557   9.661 -0.2144  0.2834  0.0721
12434SOL    HW138976   0.250   9.606   9.616 -0.7444 -1.7639 -1.4949
12434SOL    HW238977   0.400   9.587   9.619 -0.3215  1.2093  0.5008
12435SOL     OW38978   2.988   0.466   3.981 -0.1698  0.5292  0.2556
12435SOL    HW138979   2.947   0.380   3.968  1.6670 -0.2230 -1.1327
12435SOL    HW238980   3.031   0.459   4.066  0.0725  0.0008  0.0967
12436SOL     OW38981   5.753   2.105   7.406 -0.0963  0.1716 -0.2225
12436SOL    HW138982   5.840   2.070   7.422 -0.4844 -0.3096  0.9726
12436SOL    HW238983   5.761   2.155   7.325  1.8008  1.9032  0.9498
12437SOL     OW38984   7.827   0.545   4.370  0.1643  0.1466 -0.2716
12437SOL    HW138985   7.754   0.483   4.378 -0.1436  0.3684 -1.2440
12437SOL    HW238986   7.875   0.536   4.453 -1.5735  0.8000  0.8712
12438SOL     OW38987   3.584   5.149   9.603 -0.0837 -0.3359 -0.6874
12438SOL    HW138988   3.652   5.186   9.660 -0.0795 -0.1153 -0.8341
12438SOL    HW238989   3.605   5.056   9.598  0.7245 -0.1299 -1.4225
12439SOL     OW38990   3.123   2.423   5.690 -0.2823 -0.2093 -0.2924
12439SOL    HW138991   3.110   2.329   5.702 -1.8707  0.1479  1.0775
12439SOL    HW238992   3.079   2.444   5.608 -0.7094 -0.5089 -0.1381
12440SOL     OW38993   5.979   6.244   8.302 -0.1871  0.3643 -0.2737
12440SOL    HW138994   6.014   6.173   8.356  1.5368  0.8996 -0.6276
12440SOL    HW238995   5.962   6.203   8.217  1.2630  0.4230 -0.6285
12441SOL     OW38996   6.138   6.804   3.038 -0.3906  0.0601  0.5333
12441SOL    HW138997   6.159   6.838   3.125 -0.5312 -0.2080  0.6741
12441SOL    HW238998   6.210   6.745   3.016 -1.0213 -0.9537  1.0676
12442SOL     OW38999   1.852   3.993   3.680 -0.0336  0.4238 -0.2927
12442SOL    HW139000   1.840   3.901   3.653 -0.0584  0.8697 -1.9345
12442SOL    HW239001   1.877   3.988   3.772 -0.0763 -1.2333 -0.3350
12443SOL     OW39002   5.477   3.705   2.443  0.0267  0.2037  0.6981
12443SOL    HW139003   5.391   3.665   2.459 -0.6220  0.8614 -0.9200
12443SOL    HW239004   5.468   3.748   2.358  2.4332 -0.9912 -0.2536
12444SOL     OW39005   3.708   6.155   5.476 -0.0592  0.2753  0.2631
12444SOL    HW139006   3.699   6.188   5.566 -1.3263  1.5433 -0.2921
12444SOL    HW239007   3.645   6.083   5.471 -2.4010  2.2381 -0.4652
12445SOL     OW39008   9.535   4.437   3.586 -0.1766 -0.0079 -0.2046
12445SOL    HW139009   9.577   4.446   3.500  0.1017  1.2734  0.0457
12445SOL    HW239010   9.607   4.425   3.647 -0.2978  0.2024 -0.0173
12446SOL     OW39011   5.562   4.951   1.595 -0.3911 -0.1027 -0.7475
12446SOL    HW139012   5.504   4.967   1.670  0.0154  1.5774 -0.7471
12446SOL    HW239013   5.503   4.930   1.523 -0.8562 -0.6517 -0.2118
12447SOL     OW39014   9.248   3.241   0.779 -0.0094 -0.2388  0.0900
12447SOL    HW139015   9.321   3.299   0.760  0.3684 -0.3299  1.1924
12447SOL    HW239016   9.275   3.193   0.857 -1.2615 -0.2299  0.5566
12448SOL     OW39017   6.201   5.430   6.336 -0.2242  0.2432  0.2271
12448SOL    HW139018   6.173   5.359   6.278  0.2324  1.2539 -1.2967
12448SOL    HW239019   6.297   5.425   6.335 -0.2053 -0.5035  1.9540
12449SOL     OW39020   2.752   3.291   6.765  0.0957  0.0286 -0.6982
12449SOL    HW139021   2.781   3.207   6.802  0.2423  1.0977  1.7940
12449SOL    HW239022   2.660   3.297   6.789 -0.1308  0.2372 -1.5902
12450SOL     OW39023   2.933   4.297   1.284 -0.1460  0.1787  0.2862
12450SOL    HW139024   2.997   4.285   1.213 -0.2676  3.2749 -0.4711
12450SOL    HW239025   2.982   4.344   1.352 -1.1390  1.1080  0.3885
12451SOL     OW39026   6.008   6.384   6.879 -0.3361 -0.3556  0.6650
12451SOL    HW139027   5.930   6.329   6.887 -0.0087 -0.7532  1.2236
12451SOL    HW239028   5.974   6.469   6.851 -1.0992 -0.2222  1.8993
12452SOL     OW39029   6.875   8.174   3.618  0.0708  0.3290 -0.5992
12452SOL    HW139030   6.804   8.163   3.554 -1.1030  0.8397  0.5672
12452SOL    HW239031   6.875   8.268   3.637 -0.3141  0.0468  0.9142
12453SOL     OW39032   7.231   1.898   1.552 -0.1724 -0.1902 -0.1200
12453SOL    HW139033   7.238   1.834   1.623  0.4626  0.0657  0.0626
12453SOL    HW239034   7.322   1.922   1.533 -0.2985 -0.6700 -1.4093
12454SOL     OW39035   1.089   5.487   2.821  0.4473  0.5328  0.2336
12454SOL    HW139036   1.153   5.420   2.846 -0.5464 -0.0497  1.3530
12454SOL    HW239037   1.028   5.442   2.764 -0.1939  0.4806  0.9444
12455SOL     OW39038   4.978   4.179   4.116  0.5200  0.2660  0.2800
12455SOL    HW139039   5.064   4.152   4.084  0.6624 -0.1803  0.9914
12455SOL    HW239040   4.996   4.222   4.200 -0.1095 -2.1315  1.7507
12456SOL     OW39041   1.398   4.142   6.152  0.0722 -0.5703 -0.7514
12456SOL    HW139042   1.336   4.104   6.089  0.4001 -0.0684 -1.3793
12456SOL    HW239043   1.373   4.234   6.158  1.0277 -0.2677 -1.3327
12457SOL     OW39044   3.830   2.979   3.172  0.7177 -0.3998  0.1662
12457SOL    HW139045   3.881   2.947   3.246  0.9640 -1.8059 -0.5726
12457SOL    HW239046   3.892   3.033   3.123  0.9776 -0.6378  0.2278
12458SOL     OW39047   2.775   3.350   0.554  0.0866 -0.1419 -0.0012
12458SOL    HW139048   2.852   3.406   0.567  0.5859 -0.8627  0.2618
12458SOL    HW239049   2.790   3.276   0.613 -1.4469  0.3255  1.0085
12459SOL     OW39050   4.897   0.977   7.008  0.4881  0.2861  0.4242
12459SOL    HW139051   4.816   0.928   6.995  1.3178 -1.5533  1.6816
12459SOL    HW239052   4.942   0.972   6.924  0.1538 -0.3674  0.2758
12460SOL     OW39053   6.492   5.984   7.002 -0.0574  0.0277 -0.0644
12460SOL    HW139054   6.541   5.948   7.076 -0.9270  0.6857  0.8646
12460SOL    HW239055   6.508   6.079   7.006  0.0123  0.0530 -0.8180
12461SOL     OW39056   3.018   7.451   5.968 -0.1254 -0.1851  0.3816
12461SOL    HW139057   3.015   7.416   6.057  2.3204 -0.6157  0.3812
12461SOL    HW239058   2.978   7.538   5.975  0.8761  0.1927  2.1367
12462SOL     OW39059   7.813   3.296   4.665 -0.2203 -0.3431 -0.1317
12462SOL    HW139060   7.824   3.386   4.699  0.6773 -0.4253 -0.1700
12462SOL    HW239061   7.822   3.241   4.743 -2.1516 -0.3498  0.1181
12463SOL     OW39062   1.357   9.063   9.225  0.2856 -0.0458  0.2165
12463SOL    HW139063   1.341   9.062   9.319  2.8954  0.7750  0.7484
12463SOL    HW239064   1.404   8.981   9.207 -2.7344 -1.6596 -0.9921
12464SOL     OW39065   4.225   8.847   9.634 -0.0979  0.0333 -0.4965
12464SOL    HW139066   4.306   8.796   9.622 -0.3339 -0.1761 -1.2530
12464SOL    HW239067   4.195   8.823   9.721  0.2765 -0.4455 -0.4919
12465SOL     OW39068   7.334   2.700   4.563 -0.5399  0.0491  0.2185
12465SOL    HW139069   7.337   2.726   4.471 -1.1048 -1.5875 -0.2972
12465SOL    HW239070   7.316   2.606   4.561  1.1736 -0.3888  1.9567
12466SOL     OW39071   4.376   4.247   4.123 -0.2198 -0.9524  0.2232
12466SOL    HW139072   4.461   4.223   4.086  0.9025 -1.0172  2.5860
12466SOL    HW239073   4.318   4.174   4.102  0.2554 -0.8481 -1.5408
12467SOL     OW39074   2.362   9.487   1.919  0.0088  0.0090  0.0987
12467SOL    HW139075   2.271   9.516   1.922  0.0604  0.2352 -0.4345
12467SOL    HW239076   2.410   9.551   1.972 -0.2072 -0.3839  0.7856
12468SOL     OW39077   2.126   4.177   8.886 -0.2219  0.4623  0.2304
12468SOL    HW139078   2.085   4.212   8.807 -0.8141  0.3810  0.4894
12468SOL    HW239079   2.055   4.131   8.931  0.4370 -0.7184  0.1040
12469SOL     OW39080   3.436   0.381   5.484  0.2305 -0.0414  0.3532
12469SOL    HW139081   3.507   0.343   5.432 -0.2507  0.0724 -0.4031
12469SOL    HW239082   3.386   0.305   5.515 -0.8635 -0.0432 -1.3457
12470SOL     OW39083   4.688   9.524   5.701  0.4946 -0.5393 -0.2580
12470SOL    HW139084   4.595   9.522   5.724  0.5139 -0.1618 -0.1425
12470SOL    HW239085   4.721   9.438   5.724  0.6003 -0.0751  1.4670
12471SOL     OW39086   9.036   2.229   9.290 -0.1814 -0.0961  0.0934
12471SOL    HW139087   9.074   2.164   9.349 -1.3096 -1.1439 -0.3024
12471SOL    HW239088   9.000   2.178   9.218 -0.6579  1.0140 -0.4754
12472SOL     OW39089   5.487   4.452   5.723 -0.0574 -0.2695 -0.0475
12472SOL    HW139090   5.402   4.414   5.704 -0.8389 -0.3441  3.1245
12472SOL    HW239091   5.481   4.542   5.689 -1.4984 -0.2091  0.3005
12473SOL     OW39092   8.219   0.522   5.753  0.3905  0.4747  0.7039
12473SOL    HW139093   8.311   0.531   5.726  0.2801  1.7895  0.7173
12473SOL    HW239094   8.175   0.597   5.713 -1.2340 -1.5160 -1.4922
12474SOL     OW39095   3.479   0.238   0.586  0.1149 -0.2497 -0.3135
12474SOL    HW139096   3.499   0.145   0.592  1.1226 -0.0161  0.2767
12474SOL    HW239097   3.402   0.250   0.641 -0.5827 -0.8773 -1.1271
12475SOL     OW39098   8.920   3.745   3.160 -0.2067  0.7897  0.6852
12475SOL    HW139099   8.897   3.780   3.074 -0.2109  0.9471  0.7512
12475SOL    HW239100   9.016   3.741   3.159 -0.2295 -0.0065  0.3532
12476SOL     OW39101   7.254   8.481   6.587  0.2505 -0.7051 -0.3622
12476SOL    HW139102   7.192   8.410   6.601  0.1045 -0.3942  0.6418
12476SOL    HW239103   7.263   8.522   6.673 -0.5073  1.1785 -1.1227
12477SOL     OW39104   3.369   3.162   4.510  0.1642 -0.1579 -0.0867
12477SOL    HW139105   3.374   3.238   4.453 -1.8849 -0.5391 -0.8759
12477SOL    HW239106   3.347   3.198   4.596  1.7525  0.2969  0.1602
12478SOL     OW39107   4.227   5.099   0.422  0.0225  0.6740  0.1370
12478SOL    HW139108   4.315   5.121   0.394 -0.8811  1.0867 -2.6174
12478SOL    HW239109   4.198   5.175   0.472  0.3818  1.5920 -1.0153
12479SOL     OW39110   3.316   9.584   8.377 -0.5059  0.3458 -0.1779
12479SOL    HW139111   3.284   9.675   8.380  0.0119  0.5103  0.7002
12479SOL    HW239112   3.318   9.557   8.469 -1.0182 -0.6952 -0.4596
12480SOL     OW39113   3.021   4.845   3.264 -0.1602 -0.4707 -0.7179
12480SOL    HW139114   3.045   4.777   3.328  1.3289 -0.2723 -1.0373
12480SOL    HW239115   3.044   4.808   3.179  1.4355  0.6993 -0.8442
12481SOL     OW39116   5.410   5.081   5.503  0.2682 -0.0944  0.5446
12481SOL    HW139117   5.505   5.068   5.508  0.4929  1.0018 -0.2943
12481SOL    HW239118   5.372   5.000   5.535  1.5041 -1.8392 -2.0462
12482SOL     OW39119   1.096   8.951   2.622  0.3425 -0.3432  0.2229
12482SOL    HW139120   1.026   8.914   2.675  1.7524 -1.7275  1.1974
12482SOL    HW239121   1.147   9.004   2.683  1.5417 -1.3358  0.1215
12483SOL     OW39122   7.518   4.569   2.022 -0.4214  0.0465 -0.2579
12483SOL    HW139123   7.468   4.535   1.948  0.1364  2.3139 -1.7590
12483SOL    HW239124   7.451   4.599   2.084 -0.8901 -1.9748  0.3110
12484SOL     OW39125   7.951   2.821   8.550 -0.0391  0.6988 -0.1991
12484SOL    HW139126   8.017   2.758   8.580  2.0423  1.6443 -2.4141
12484SOL    HW239127   7.995   2.906   8.556 -1.6761  1.5778 -0.2042
12485SOL     OW39128   1.335   0.858   8.477 -0.1268  0.3830 -0.0799
12485SOL    HW139129   1.255   0.907   8.499 -0.2696 -0.1114  0.5619
12485SOL    HW239130   1.322   0.773   8.520 -0.0530 -0.3538 -1.4837
12486SOL     OW39131   7.370   7.693   6.733 -0.0774 -0.7224  0.1454
12486SOL    HW139132   7.315   7.628   6.688  0.5039 -1.5165  0.5494
12486SOL    HW239133   7.309   7.743   6.787 -0.3618 -1.8618  0.9129
12487SOL     OW39134   7.423   1.945   3.301 -0.3771  0.4136 -0.0566
12487SOL    HW139135   7.510   1.918   3.332 -0.2594  1.4429  0.5397
12487SOL    HW239136   7.368   1.868   3.314  0.7272 -0.7522 -1.7385
12488SOL     OW39137   5.720   0.419   8.580 -0.2966 -0.2749 -0.5980
12488SOL    HW139138   5.743   0.497   8.530  0.5260 -0.7509 -0.9740
12488SOL    HW239139   5.752   0.436   8.669 -2.2704  0.8150 -0.0426
12489SOL     OW39140   2.535   7.671   3.375 -0.3853 -0.2242  0.2682
12489SOL    HW139141   2.567   7.694   3.463 -0.8686  1.9541 -0.0585
12489SOL    HW239142   2.613   7.673   3.320 -0.5470  2.1599  0.0155
12490SOL     OW39143   1.680   5.449   4.278 -0.1670  0.4573 -0.0356
12490SOL    HW139144   1.748   5.383   4.264 -0.2690  0.1965  0.6868
12490SOL    HW239145   1.678   5.499   4.196 -0.6304 -0.9331 -0.9186
12491SOL     OW39146   3.673   0.433   1.661  0.5087 -0.2258 -0.1446
12491SOL    HW139147   3.663   0.338   1.654  1.5732 -0.4277  0.7781
12491SOL    HW239148   3.768   0.446   1.664  0.3900  0.9270 -0.8638
12492SOL     OW39149   8.336   6.973   3.055  0.1558 -0.0022  0.0339
12492SOL    HW139150   8.422   7.011   3.075  0.6127 -1.1386  0.3345
12492SOL    HW239151   8.280   7.049   3.038  1.4882  0.7432 -1.3531
12493SOL     OW39152   1.701   4.526   3.820 -0.3268  0.2410 -0.0340
12493SOL    HW139153   1.725   4.519   3.728 -0.0429 -0.9239  0.1069
12493SOL    HW239154   1.738   4.609   3.849  0.0330  0.3680 -0.8318
12494SOL     OW39155   1.073   0.172   5.669  0.8048 -0.2468  0.1209
12494SOL    HW139156   1.073   0.213   5.582  0.3890 -0.7933 -0.1423
12494SOL    HW239157   1.134   0.225   5.720  0.2178  0.7658 -0.1816
12495SOL     OW39158   7.386   8.330   7.906  0.2173  0.2123  0.2515
12495SOL    HW139159   7.412   8.410   7.860  0.5004 -1.4041 -2.6381
12495SOL    HW239160   7.461   8.272   7.898  0.4067 -0.1202  3.1782
12496SOL     OW39161   7.600   4.468   7.157  0.0496 -0.2744 -0.0249
12496SOL    HW139162   7.524   4.448   7.212  0.8760 -1.2969  0.7983
12496SOL    HW239163   7.597   4.402   7.088 -0.0078 -0.0890 -0.2000
12497SOL     OW39164   8.179   1.844   3.236  0.1230  0.0618 -0.0917
12497SOL    HW139165   8.100   1.882   3.276 -0.5471 -0.0887 -1.2367
12497SOL    HW239166   8.196   1.766   3.289 -1.0393 -0.4065 -0.3637
12498SOL     OW39167   2.170   1.344   9.393 -0.3160 -0.1058 -0.5237
12498SOL    HW139168   2.135   1.272   9.446  0.0844  0.0523 -0.0296
12498SOL    HW239169   2.229   1.391   9.453 -1.7399  1.5559 -0.3588
12499SOL     OW39170   6.564   7.032   3.038 -0.1019 -0.5487  0.3361
12499SOL    HW139171   6.613   7.110   3.065  1.1013 -1.5163  1.0608
12499SOL    HW239172   6.540   7.050   2.947 -2.6052  1.9863  1.3353
12500SOL     OW39173   5.894   4.278   7.224 -0.4951  0.6407 -0.3189
12500SOL    HW139174   5.936   4.361   7.203  1.9052 -0.9118 -2.3768
12500SOL    HW239175   5.810   4.281   7.179 -0.3157  1.8315 -0.6170
12501SOL     OW39176   0.747   7.141   2.168 -0.3709 -0.7018  0.3196
12501SOL    HW139177   0.677   7.203   2.186 -0.1231 -0.5193  0.6693
12501SOL    HW239178   0.786   7.123   2.254  2.1314  1.6895 -0.1718
12502SOL     OW39179   6.204   0.334   1.778 -0.5083  0.0663 -0.0985
12502SOL    HW139180   6.165   0.266   1.832 -1.4456  0.1987 -0.5807
12502SOL    HW239181   6.143   0.408   1.786 -0.6414  0.0985 -1.2906
12503SOL     OW39182   0.158   2.903   3.021  0.5479 -0.2067  0.5087
12503SOL    HW139183   0.152   2.827   3.078  2.5198 -1.3399 -0.6587
12503SOL    HW239184   0.071   2.911   2.981  0.4935 -2.3629  0.0924
12504SOL     OW39185   5.128   0.611   8.298  1.2379  0.0064 -0.3107
12504SOL    HW139186   5.200   0.653   8.251  0.2157  1.5456 -0.5963
12504SOL    HW239187   5.078   0.565   8.229  0.2577  1.4997 -0.6479
12505SOL     OW39188   7.612   1.425   7.263 -0.7952  0.1471 -0.2344
12505SOL    HW139189   7.695   1.456   7.299 -0.3653 -1.2499  0.0615
12505SOL    HW239190   7.585   1.355   7.323 -0.8933 -1.1319 -1.7111
12506SOL     OW39191   1.699   6.393   0.248 -0.1123  0.3581 -0.0655
12506SOL    HW139192   1.612   6.368   0.218 -0.6586 -0.8209  2.2334
12506SOL    HW239193   1.717   6.476   0.204 -1.7821 -0.0592 -1.6660
12507SOL     OW39194   9.592   7.840   0.121 -0.4436  0.4207 -0.3512
12507SOL    HW139195   9.620   7.751   0.142 -2.1996 -0.0495  0.1044
12507SOL    HW239196   9.667   7.878   0.075  0.8625 -0.8124  0.6783
12508SOL     OW39197   3.214   4.210   4.148  0.1043  0.3610 -0.0697
12508SOL    HW139198   3.147   4.160   4.101  1.1394 -4.2025  2.7167
12508SOL    HW239199   3.176   4.227   4.234  2.0480 -1.7271  1.3229
12509SOL     OW39200   7.859   2.625   5.471  0.2458  0.2066 -0.3396
12509SOL    HW139201   7.899   2.702   5.431  0.8438  0.3264  0.4741
12509SOL    HW239202   7.808   2.660   5.545  0.7807 -0.2059  0.2268
12510SOL     OW39203   2.502   5.538   3.919 -0.2634  0.1856 -0.3192
12510SOL    HW139204   2.580   5.591   3.899 -0.9006  0.1302 -3.5049
12510SOL    HW239205   2.537   5.452   3.942  0.6793  1.0447  1.6626
12511SOL     OW39206   4.516   2.957   1.293  0.1426 -0.2725 -0.5941
12511SOL    HW139207   4.510   3.005   1.376 -0.0554 -1.6941  0.2489
12511SOL    HW239208   4.579   3.007   1.241 -0.8393  1.4700 -0.1908
12512SOL     OW39209   5.747   7.349   1.669 -0.1550  0.6294  0.1788
12512SOL    HW139210   5.823   7.407   1.661  0.4224 -0.0391  0.6592
12512SOL    HW239211   5.680   7.389   1.614 -0.2223  2.4637  1.5003
12513SOL     OW39212   9.504   7.469   7.341 -0.1635 -0.4135  0.4008
12513SOL    HW139213   9.447   7.450   7.416  1.0294 -0.4731  1.3333
12513SOL    HW239214   9.450   7.451   7.264 -1.9639  1.2053  1.2115
12514SOL     OW39215   6.619   2.342   3.460  0.3090 -0.3905  0.3871
12514SOL    HW139216   6.588   2.420   3.413  1.4427 -0.0840  0.1218
12514SOL    HW239217   6.618   2.368   3.552 -1.5587 -0.8680  0.5511
12515SOL     OW39218   4.379   5.066   2.662  0.4942  0.5312 -0.0093
12515SOL    HW139219   4.415   5.121   2.731 -1.8268  0.3421  1.4449
12515SOL    HW239220   4.300   5.028   2.699 -2.2556  2.2852 -3.4923
12516SOL     OW39221   0.577   9.472   8.252  0.7401 -0.3461 -0.3715
12516SOL    HW139222   0.504   9.492   8.194  1.3178  0.3593 -0.8935
12516SOL    HW239223   0.596   9.380   8.236 -0.6543 -0.8062  0.5096
12517SOL     OW39224   6.634   6.885   0.915 -0.3896 -0.7776  0.0652
12517SOL    HW139225   6.655   6.976   0.937 -0.3561 -0.7519 -0.0734
12517SOL    HW239226   6.718   6.840   0.916 -0.4236 -0.8377  0.2759
12518SOL     OW39227   5.615   3.482   3.643  0.0506  0.2768 -0.1312
12518SOL    HW139228   5.604   3.570   3.679 -2.1354  0.4243 -0.9917
12518SOL    HW239229   5.673   3.493   3.568  0.1519  0.9068  0.0372
12519SOL     OW39230   7.348   7.003   6.817  0.4129  0.3999 -0.4785
12519SOL    HW139231   7.376   7.047   6.897  0.8574  0.7001 -0.7937
12519SOL    HW239232   7.331   6.913   6.843  2.3976  0.0196 -0.4223
12520SOL     OW39233   0.971   3.195   7.480 -0.3338 -0.1645 -0.5398
12520SOL    HW139234   0.904   3.148   7.529 -0.1348 -0.4494 -0.5418
12520SOL    HW239235   1.015   3.250   7.545  0.4360 -1.1085 -0.2446
12521SOL     OW39236   1.416   7.213   3.905  0.3240  0.3643 -0.2488
12521SOL    HW139237   1.355   7.141   3.920  0.1426  1.0922  3.4395
12521SOL    HW239238   1.500   7.170   3.892 -0.1322 -0.5336 -0.3752
12522SOL     OW39239   2.018   7.012   6.323  0.4365  0.2196 -0.0503
12522SOL    HW139240   1.967   7.009   6.403  1.6663 -0.2943  0.7505
12522SOL    HW239241   2.079   6.939   6.331 -0.3479 -0.7393 -2.1230
12523SOL     OW39242   3.742   8.225   5.284 -0.1079 -0.3682  0.6798
12523SOL    HW139243   3.736   8.301   5.343 -1.2677 -0.6568  0.9513
12523SOL    HW239244   3.719   8.260   5.198 -0.7203 -0.4284  0.8191
12524SOL     OW39245   7.220   2.975   0.686 -0.4066  0.5598 -0.4388
12524SOL    HW139246   7.212   2.880   0.688  1.4871  0.3412 -1.0553
12524SOL    HW239247   7.215   3.001   0.778 -0.1468 -0.2264 -0.1921
12525SOL     OW39248   1.680   4.895   6.448  0.5156  0.0216 -0.1223
12525SOL    HW139249   1.754   4.931   6.497  1.3372 -0.4525 -0.9957
12525SOL    HW239250   1.647   4.969   6.397  0.0636  0.3563  0.6467
12526SOL     OW39251   2.988   6.207   1.890 -0.0780 -0.3374 -0.0041
12526SOL    HW139252   2.929   6.135   1.867  0.4756 -0.2316 -1.9297
12526SOL    HW239253   2.931   6.283   1.894 -0.1464 -0.2439 -1.8006
12527SOL     OW39254   8.014   4.785   3.303  0.1276  0.7971  0.2148
12527SOL    HW139255   8.091   4.837   3.278 -0.1417  0.1010 -2.3183
12527SOL    HW239256   8.045   4.731   3.376  1.3887  2.0428  0.6660
12528SOL     OW39257   2.977   3.355   4.347  0.1361  0.3698 -0.1136
12528SOL    HW139258   3.031   3.289   4.304  0.0592  0.7089 -0.7486
12528SOL    HW239259   2.997   3.346   4.440  0.6382 -0.0856 -0.2622
12529SOL     OW39260   2.007   8.783   5.407 -0.2801 -0.4280  0.3832
12529SOL    HW139261   2.000   8.802   5.313  0.9833 -0.3235  0.2904
12529SOL    HW239262   2.077   8.841   5.438  0.4165 -1.5824  1.0554
12530SOL     OW39263   0.153   8.257   8.893  0.2006  0.1082 -0.4395
12530SOL    HW139264   0.175   8.337   8.846 -1.3327  1.5267  1.0938
12530SOL    HW239265   0.156   8.282   8.985 -0.6027 -1.5284  0.0690
12531SOL     OW39266   3.456   2.005   7.134  0.0202 -0.4095 -0.2297
12531SOL    HW139267   3.495   2.067   7.196 -1.3036 -0.9745  1.2131
12531SOL    HW239268   3.426   2.060   7.062  1.5314  0.2642 -0.3906
12532SOL     OW39269   0.403   4.998   2.237 -0.2529 -0.1999  0.8659
12532SOL    HW139270   0.451   4.935   2.184  0.7115 -0.1334  1.6328
12532SOL    HW239271   0.323   4.951   2.263 -0.2593 -0.5695  0.1805
12533SOL     OW39272   0.599   7.536   0.259 -0.9763 -0.4482 -0.3682
12533SOL    HW139273   0.612   7.555   0.352 -1.9961  0.9340 -0.4621
12533SOL    HW239274   0.680   7.495   0.231  0.5285  1.7216  0.4960
12534SOL     OW39275   7.958   6.753   7.404  0.3498 -0.6890  0.0495
12534SOL    HW139276   8.000   6.681   7.450 -1.0881 -2.6002 -1.4774
12534SOL    HW239277   7.869   6.754   7.440  0.5424  0.8573  0.5709
12535SOL     OW39278   1.185   3.867   0.510  0.1309  0.2639 -0.3502
12535SOL    HW139279   1.256   3.827   0.561  0.3198  0.8117 -0.1735
12535SOL    HW239280   1.202   3.961   0.516  1.3479  0.3017 -3.1357
12536SOL     OW39281   6.192   6.298   0.040 -0.7683  0.5529  0.2841
12536SOL    HW139282   6.220   6.390   0.041  0.1613  0.2898 -0.0846
12536SOL    HW239283   6.267   6.250   0.075  0.2002 -0.4051 -2.7457
12537SOL     OW39284   0.173   0.463   0.245 -0.1751  0.3001 -0.0592
12537SOL    HW139285   0.245   0.459   0.182 -0.7272  0.3320 -0.7093
12537SOL    HW239286   0.141   0.553   0.239  0.5011  0.6295  1.1151
12538SOL     OW39287   2.190   4.726   2.628  0.3341 -0.3603  0.3935
12538SOL    HW139288   2.204   4.809   2.673 -2.3869  1.8926 -2.3881
12538SOL    HW239289   2.110   4.691   2.668 -1.5286  1.1582 -1.7576
12539SOL     OW39290   7.803   7.752   4.111 -0.4611 -0.4112 -0.3825
12539SOL    HW139291   7.800   7.657   4.103  1.8711 -0.5811  0.0625
12539SOL    HW239292   7.836   7.783   4.027 -0.3816 -0.0730 -0.2322
12540SOL     OW39293   3.087   8.611   7.407  0.4756  0.1453  0.2137
12540SOL    HW139294   3.123   8.576   7.488 -0.3605 -2.1021 -0.3057
12540SOL    HW239295   3.118   8.552   7.339 -2.8635 -1.1328 -0.4254
12541SOL     OW39296   7.235   9.396   0.584  0.3542 -0.3343  0.1605
12541SOL    HW139297   7.294   9.428   0.516 -0.9452  1.0209 -0.3976
12541SOL    HW239298   7.212   9.308   0.558  2.3409 -1.0325  0.5666
12542SOL     OW39299   8.220   0.725   9.234 -0.2255  0.1588 -0.2892
12542SOL    HW139300   8.169   0.695   9.309 -0.2940  0.9624  0.0003
12542SOL    HW239301   8.155   0.758   9.172 -0.1150  0.4117 -0.2741
12543SOL     OW39302   4.967   8.692   4.492  0.1718  0.2795  0.4862
12543SOL    HW139303   4.902   8.691   4.421  1.0391 -0.4022 -0.3341
12543SOL    HW239304   5.050   8.710   4.448  0.9322 -1.4628  1.1220
12544SOL     OW39305   1.762   0.560   3.555  0.0646 -0.1861 -0.3503
12544SOL    HW139306   1.742   0.610   3.476  0.0848 -0.3422 -0.4571
12544SOL    HW239307   1.759   0.623   3.626 -2.8389 -0.5419 -0.0494
12545SOL     OW39308   3.901   2.974   4.001 -0.4713 -0.2599  0.4659
12545SOL    HW139309   3.928   2.882   4.002  1.3380  0.2220 -0.4197
12545SOL    HW239310   3.821   2.976   4.055 -0.0424 -2.1799  1.2612
12546SOL     OW39311   2.146   2.707   8.614  0.5481 -0.4000  0.6659
12546SOL    HW139312   2.177   2.645   8.549 -0.9744  0.0516 -0.5529
12546SOL    HW239313   2.226   2.742   8.654  1.5501 -0.2357 -1.3755
12547SOL     OW39314   4.765   2.355   3.212  0.2012 -0.0148 -0.5084
12547SOL    HW139315   4.845   2.384   3.255  0.9071 -2.0176 -0.3694
12547SOL    HW239316   4.739   2.429   3.158  1.7962  0.9123 -0.0682
12548SOL     OW39317   4.329   6.172   3.943  0.4791 -0.1171  0.0787
12548SOL    HW139318   4.419   6.174   3.910  0.5672  1.5171  0.3165
12548SOL    HW239319   4.334   6.218   4.027 -0.8385  1.3493 -0.6114
12549SOL     OW39320   8.853   8.597   1.916 -0.5021  0.3003 -0.1244
12549SOL    HW139321   8.776   8.545   1.894 -0.5188  0.9418 -1.7000
12549SOL    HW239322   8.819   8.673   1.962 -0.7842  0.4202 -0.5278
12550SOL     OW39323   2.711   9.215   0.082  0.3560 -0.0179  0.2821
12550SOL    HW139324   2.767   9.269   0.027  1.0103  0.1041  1.0506
12550SOL    HW239325   2.631   9.267   0.094  1.2338  1.1170  1.5656
12551SOL     OW39326   0.458   4.278   3.810  0.2406 -0.4564  0.1435
12551SOL    HW139327   0.446   4.363   3.851  0.8475  0.0905 -0.7744
12551SOL    HW239328   0.390   4.223   3.849 -1.5006  0.9791 -0.6790
12552SOL     OW39329   3.659   0.828   7.346 -0.2602  0.0978  0.7273
12552SOL    HW139330   3.652   0.920   7.375 -0.7252  0.3830 -0.2582
12552SOL    HW239331   3.587   0.784   7.391 -1.2930  0.6434 -0.3389
12553SOL     OW39332   7.831   0.070   5.057 -0.4274  0.2568  0.7037
12553SOL    HW139333   7.884   0.145   5.082 -1.9590  1.3573  0.8148
12553SOL    HW239334   7.755   0.108   5.012  0.6552 -1.4308 -2.9862
12554SOL     OW39335   0.256   6.965   7.596  0.1895  0.2689 -0.2586
12554SOL    HW139336   0.228   6.987   7.685  0.5771  2.5724 -0.6281
12554SOL    HW239337   0.176   6.965   7.545 -0.1544 -1.9620  0.1982
12555SOL     OW39338   9.274   8.444   6.690 -0.2608 -0.3932 -0.2099
12555SOL    HW139339   9.236   8.455   6.603  1.0717  1.0859 -0.6347
12555SOL    HW239340   9.287   8.533   6.722  0.3217 -0.9052  1.0421
12556SOL     OW39341   3.067   2.789   8.029 -0.5311  0.4204 -0.3046
12556SOL    HW139342   3.084   2.883   8.026 -0.4387  0.3913 -1.0038
12556SOL    HW239343   3.051   2.765   7.938 -4.1144  0.3983  0.2125
12557SOL     OW39344   7.987   9.484   3.835  0.1029 -0.0759  0.2278
12557SOL    HW139345   7.997   9.394   3.805 -0.2086  0.5778 -1.9950
12557SOL    HW239346   8.074   9.509   3.868  0.1375 -1.2168  1.0429
12558SOL     OW39347   5.547   3.896   7.661 -0.2249  0.2304  0.0019
12558SOL    HW139348   5.498   3.879   7.742 -0.7187 -0.5914 -0.4657
12558SOL    HW239349   5.638   3.884   7.686 -0.2466  1.4507  0.7980
12559SOL     OW39350   0.745   1.371   4.387 -0.2396 -0.4205 -0.5666
12559SOL    HW139351   0.837   1.378   4.361 -0.1554 -0.6313 -0.3324
12559SOL    HW239352   0.698   1.353   4.306 -0.0975 -0.1234 -0.7175
12560SOL     OW39353   3.002   1.586   2.728 -0.3375 -0.1359  0.3161
12560SOL    HW139354   3.066   1.581   2.799  0.2099 -2.1412 -0.2616
12560SOL    HW239355   3.055   1.594   2.648 -0.7979 -1.1403 -0.1100
12561SOL     OW39356   7.286   8.351   3.715 -0.6430 -0.1413  0.0522
12561SOL    HW139357   7.240   8.428   3.747 -0.5776 -0.0264 -0.1343
12561SOL    HW239358   7.326   8.313   3.794 -1.5651 -0.5910  0.3156
12562SOL     OW39359   9.018   8.955   1.634 -0.0090  0.0681  0.0563
12562SOL    HW139360   9.017   8.860   1.647  0.6523  0.2881  1.9595
12562SOL    HW239361   9.110   8.975   1.612 -0.2316  0.2407 -0.7597
12563SOL     OW39362   6.625   5.291   5.632 -0.1507 -0.5254  0.5042
12563SOL    HW139363   6.645   5.199   5.620 -2.7474 -1.0543 -0.3384
12563SOL    HW239364   6.694   5.323   5.691  1.1201 -2.8262  0.3781
12564SOL     OW39365   7.811   7.931   5.113 -0.4464 -0.8817  0.8436
12564SOL    HW139366   7.855   7.899   5.192 -1.2283 -0.2309  1.5607
12564SOL    HW239367   7.744   7.864   5.095 -0.0241 -1.2208  0.4972
12565SOL     OW39368   5.256   9.275   2.481  0.2686 -0.2968  0.1231
12565SOL    HW139369   5.191   9.236   2.541  0.6928 -1.2522 -0.0124
12565SOL    HW239370   5.282   9.202   2.424 -0.0065  0.5477 -1.1320
12566SOL     OW39371   8.880   8.577   7.198  0.0102 -0.1591 -0.3245
12566SOL    HW139372   8.829   8.643   7.150 -0.2612 -0.1254  0.0061
12566SOL    HW239373   8.900   8.511   7.132  0.4423  0.3424 -0.7075
12567SOL     OW39374   3.898   7.642   5.551  0.3375 -0.5500 -0.0755
12567SOL    HW139375   3.861   7.593   5.625 -1.2933 -0.2832 -0.6568
12567SOL    HW239376   3.966   7.696   5.589 -1.4657  0.7114  1.5595
12568SOL     OW39377   4.342   4.066   5.910  0.0265  0.0415 -0.5468
12568SOL    HW139378   4.355   3.971   5.915 -3.5891 -0.5237  0.9854
12568SOL    HW239379   4.308   4.081   5.823 -0.9788 -0.3512 -0.2316
12569SOL     OW39380   6.364   0.165   4.313  0.2739 -0.0126 -0.0830
12569SOL    HW139381   6.431   0.231   4.329  0.1378 -0.1620  1.1581
12569SOL    HW239382   6.285   0.216   4.295  0.2488  0.1743  0.5268
12570SOL     OW39383   0.474   2.893   2.499  0.4489  0.0089 -0.0599
12570SOL    HW139384   0.528   2.935   2.565 -0.3172 -0.1619  0.7002
12570SOL    HW239385   0.534   2.836   2.451  0.5460 -2.3017  2.5190
12571SOL     OW39386   4.416   4.826   1.645  0.1669 -0.0396 -0.0405
12571SOL    HW139387   4.374   4.893   1.698  1.1548  0.6422 -0.0834
12571SOL    HW239388   4.413   4.747   1.699 -1.7596 -0.2011 -0.3347
12572SOL     OW39389   5.766   5.790   2.623 -0.2114 -0.2469  0.0048
12572SOL    HW139390   5.760   5.774   2.717 -0.2804  1.2832  0.2865
12572SOL    HW239391   5.835   5.855   2.614  0.7030 -1.3231 -1.1497
12573SOL     OW39392   4.527   2.691   5.149  0.1257  0.0326 -0.1719
12573SOL    HW139393   4.442   2.695   5.104  0.4722 -0.2663 -0.8697
12573SOL    HW239394   4.513   2.627   5.219 -0.2766  0.1203 -0.1677
12574SOL     OW39395   2.394   0.075   3.744 -0.2020  0.5602 -0.5720
12574SOL    HW139396   2.408   0.023   3.823 -1.1067 -0.5054 -1.0840
12574SOL    HW239397   2.468   0.135   3.741 -0.3070  0.8345  1.2483
12575SOL     OW39398   6.620   1.819   4.892 -0.3525 -0.0899  0.2601
12575SOL    HW139399   6.623   1.830   4.797  1.9649 -1.9261  0.0153
12575SOL    HW239400   6.636   1.906   4.927 -0.8125  0.5326 -1.0329
12576SOL     OW39401   0.987   1.794   6.174 -0.4221 -0.0056  0.8074
12576SOL    HW139402   0.997   1.712   6.125  0.0907  1.4572 -1.6701
12576SOL    HW239403   1.075   1.833   6.175 -0.5290  0.3011  2.4777
12577SOL     OW39404   5.661   5.244   8.135  0.7559  0.2862 -0.2463
12577SOL    HW139405   5.671   5.195   8.217 -0.4949 -0.0060 -0.2390
12577SOL    HW239406   5.734   5.215   8.080  0.6713 -0.7596  0.1703
12578SOL     OW39407   1.773   1.733   5.836 -0.0727  0.0238  0.0612
12578SOL    HW139408   1.748   1.813   5.883 -0.1146  0.2388 -0.3170
12578SOL    HW239409   1.692   1.682   5.831 -0.2037  0.2596 -0.2733
12579SOL     OW39410   3.853   1.139   5.320 -0.3828 -0.2074 -0.3623
12579SOL    HW139411   3.795   1.123   5.394  0.7959 -0.0269  0.6332
12579SOL    HW239412   3.896   1.055   5.304 -0.7723 -0.2966 -0.9790
12580SOL     OW39413   2.664   0.476   2.487 -0.0292  0.1927  0.2790
12580SOL    HW139414   2.710   0.536   2.546  1.4407 -0.4909 -0.1224
12580SOL    HW239415   2.733   0.440   2.431 -1.2201 -0.0398 -1.1102
12581SOL     OW39416   9.623   8.461   0.431  0.0433  0.3483  0.0728
12581SOL    HW139417   9.559   8.467   0.501  0.1684 -0.4699  0.2724
12581SOL    HW239418   9.634   8.367   0.416  1.5661  0.4436  0.4025
12582SOL     OW39419   2.079   2.203   2.257 -0.3416 -0.4497 -0.3043
12582SOL    HW139420   2.133   2.128   2.231 -0.3167  0.0107 -1.6421
12582SOL    HW239421   2.030   2.226   2.178 -1.0864  0.3313  0.3680
12583SOL     OW39422   3.655   8.896   3.058 -0.0466  0.3159 -0.3086
12583SOL    HW139423   3.590   8.964   3.076  0.0727  1.3242 -3.1688
12583SOL    HW239424   3.732   8.944   3.027  1.1297 -1.0022  0.4704
12584SOL     OW39425   0.996   1.879   4.825  0.0738 -0.0189 -0.1845
12584SOL    HW139426   0.917   1.924   4.855  0.3242  0.0652  0.3619
12584SOL    HW239427   0.967   1.791   4.801 -0.3921  0.3794 -1.1089
12585SOL     OW39428   8.733   2.122   3.261 -0.2644  0.1112 -0.0215
12585SOL    HW139429   8.785   2.159   3.189 -0.7344 -0.5984 -0.7504
12585SOL    HW239430   8.773   2.037   3.279  1.0791  1.0980  1.9426
12586SOL     OW39431   2.235   7.449   0.602 -0.3245 -0.0975  0.5320
12586SOL    HW139432   2.262   7.365   0.565 -0.8305 -0.7978  1.6920
12586SOL    HW239433   2.315   7.503   0.600 -0.2962 -0.1244 -1.4077
12587SOL     OW39434   7.125   6.614   6.689  0.5617  0.3058 -0.6694
12587SOL    HW139435   7.066   6.689   6.678 -0.9183 -0.2002  2.5870
12587SOL    HW239436   7.077   6.541   6.651 -0.8515 -0.0194  1.5698
12588SOL     OW39437   5.392   0.263   6.077 -0.5940 -0.4783  0.0001
12588SOL    HW139438   5.463   0.327   6.076  0.1618 -1.2942  0.3410
12588SOL    HW239439   5.335   0.289   6.005  0.1159  0.1099 -0.3586
12589SOL     OW39440   5.184   7.300   8.739 -0.1670 -0.2798  0.2379
12589SOL    HW139441   5.277   7.309   8.762 -0.3683  0.7462  0.7171
12589SOL    HW239442   5.156   7.220   8.783 -0.0097  0.5109  1.8469
12590SOL     OW39443   8.183   2.977   5.043  0.4916  0.2892  0.1518
12590SOL    HW139444   8.218   2.978   4.954 -0.0223  0.4633 -0.0531
12590SOL    HW239445   8.214   3.059   5.082 -0.2968  0.8013 -0.2746
12591SOL     OW39446   4.305   0.126   1.344 -0.4709  0.7202  0.1745
12591SOL    HW139447   4.276   0.039   1.316  0.8169  0.4195 -0.3132
12591SOL    HW239448   4.397   0.114   1.369 -0.3816  1.8601  0.4648
12592SOL     OW39449   4.866   4.081   2.314  0.0441 -0.0696  0.2780
12592SOL    HW139450   4.849   4.112   2.403  1.3639  0.4425  0.3674
12592SOL    HW239451   4.804   4.128   2.259  0.3578  0.8848  0.7263
12593SOL     OW39452   3.491   9.310   7.045  0.3625  0.4410 -0.2969
12593SOL    HW139453   3.424   9.377   7.036  1.4665  2.0361  2.2642
12593SOL    HW239454   3.553   9.327   6.974 -1.0249 -0.0290 -1.6795
12594SOL     OW39455   5.020   3.682   8.728 -0.3696 -0.4227 -0.1257
12594SOL    HW139456   4.983   3.681   8.816 -0.6055 -1.3402 -0.2335
12594SOL    HW239457   5.115   3.682   8.741 -0.4039 -0.0060  0.1290
12595SOL     OW39458   0.683   9.451   9.228 -0.3250  0.8831  0.1444
12595SOL    HW139459   0.678   9.356   9.213 -0.4794  0.3342  3.1007
12595SOL    HW239460   0.685   9.489   9.140 -1.0179 -1.8014 -1.1320
12596SOL     OW39461   0.831   7.914   0.540 -0.0089 -0.0288  0.4868
12596SOL    HW139462   0.919   7.949   0.525  0.2103 -0.3812  0.9151
12596SOL    HW239463   0.811   7.939   0.631  0.5022 -1.7226  1.1064
12597SOL     OW39464   8.554   4.089   6.860  0.2247  0.4261 -0.1600
12597SOL    HW139465   8.484   4.065   6.920  0.8767 -1.6622 -0.1572
12597SOL    HW239466   8.537   4.039   6.781  0.3100  1.8736 -1.1429
12598SOL     OW39467   2.236   6.993   2.566  0.2575  0.1681  0.0725
12598SOL    HW139468   2.233   7.068   2.507  0.3653  1.1476  1.2572
12598SOL    HW239469   2.312   6.942   2.538 -1.1688 -0.8070 -2.2377
12599SOL     OW39470   6.948   9.509   4.392  0.2076  0.2977  0.3953
12599SOL    HW139471   6.894   9.587   4.398 -2.4814 -1.3902 -0.1268
12599SOL    HW239472   6.888   9.436   4.408  2.4496 -1.7252  0.2785
12600SOL     OW39473   1.732   6.091   7.350 -0.3673 -0.5639  0.2181
12600SOL    HW139474   1.762   6.159   7.411  0.8316 -0.7365 -0.1502
12600SOL    HW239475   1.677   6.034   7.404  0.2855 -0.4478  1.0377
12601SOL     OW39476   7.485   5.899   3.026 -0.2817  0.1200  0.4102
12601SOL    HW139477   7.486   5.832   3.095 -2.1331  0.0743  0.4207
12601SOL    HW239478   7.487   5.982   3.073  0.6357  0.0936  0.4357
12602SOL     OW39479   7.023   7.787   3.340 -0.0981 -0.2515 -0.4807
12602SOL    HW139480   7.038   7.702   3.298 -0.3338 -0.0439 -0.9952
12602SOL    HW239481   6.928   7.799   3.337 -0.3259 -1.0749  1.8032
12603SOL     OW39482   6.075   0.535   6.569  0.2512  0.4133 -0.2691
12603SOL    HW139483   6.055   0.560   6.479 -0.7002 -3.0353 -1.1589
12603SOL    HW239484   6.170   0.546   6.576  0.2208  1.5948 -1.3353
12604SOL     OW39485   2.014   2.953   4.803 -0.2168  0.5852 -0.0976
12604SOL    HW139486   2.024   2.907   4.720 -2.5215 -0.2990  0.0425
12604SOL    HW239487   2.076   2.909   4.862 -0.5424 -0.6627 -0.6490
12605SOL     OW39488   0.566   2.520   5.290 -0.0007 -0.0143  0.4048
12605SOL    HW139489   0.532   2.544   5.376  0.5642  2.0518  0.1156
12605SOL    HW239490   0.602   2.602   5.255  2.2713 -1.3805 -0.6620
12606SOL     OW39491   3.098   7.808   1.606 -0.0301 -0.3759  0.9302
12606SOL    HW139492   3.029   7.859   1.647  0.7581  1.3879  0.1581
12606SOL    HW239493   3.053   7.752   1.543 -0.7320  1.4816 -0.3069
12607SOL     OW39494   7.425   6.451   6.565 -0.0038  0.8026 -0.1244
12607SOL    HW139495   7.362   6.489   6.504  1.3376 -0.1815 -2.2344
12607SOL    HW239496   7.510   6.484   6.536  0.9086 -1.5259 -0.2944
12608SOL     OW39497   9.553   6.274   6.393  0.0427 -0.2379 -0.9391
12608SOL    HW139498   9.512   6.267   6.479  1.1003  0.3168 -0.3723
12608SOL    HW239499   9.640   6.237   6.404  0.0397 -0.5716 -1.8983
12609SOL     OW39500   5.639   3.741   8.492  0.0381  0.6311  0.4223
12609SOL    HW139501   5.608   3.653   8.513 -1.4082  1.1517  0.5935
12609SOL    HW239502   5.639   3.787   8.576 -0.9013  1.2897  0.0676
12610SOL     OW39503   5.256   1.945   1.217  0.0916  0.5862 -0.1728
12610SOL    HW139504   5.343   1.973   1.245 -0.1699  1.3863 -0.1362
12610SOL    HW239505   5.222   1.895   1.291 -0.7039  2.9184  1.1296
12611SOL     OW39506   7.012   4.059   0.431 -0.8683 -0.7568  1.1709
12611SOL    HW139507   7.087   4.004   0.457 -1.4781 -2.6528 -0.7964
12611SOL    HW239508   6.942   4.033   0.491 -0.9150 -1.5656  0.7829
12612SOL     OW39509   2.635   1.767   8.612 -0.4412  0.2066  0.4973
12612SOL    HW139510   2.591   1.739   8.532 -1.0849 -1.3056  1.3339
12612SOL    HW239511   2.594   1.850   8.635 -0.2375  0.6625 -0.7354
12613SOL     OW39512   1.726   4.054   0.465  0.1865 -0.7446  0.7137
12613SOL    HW139513   1.803   4.099   0.500  0.2537 -1.4221  1.4755
12613SOL    HW239514   1.761   4.000   0.394  0.3201 -0.6209  0.6839
12614SOL     OW39515   2.167   7.671   2.088 -0.1924 -0.4329  0.0315
12614SOL    HW139516   2.130   7.609   2.150  0.4976 -1.8927 -0.9532
12614SOL    HW239517   2.098   7.684   2.023  0.6151 -2.4628 -1.3204
12615SOL     OW39518   7.845   1.484   9.106  0.5924  0.2592  0.2671
12615SOL    HW139519   7.926   1.434   9.115 -1.0709 -2.5877  0.4783
12615SOL    HW239520   7.800   1.472   9.190 -1.8177 -1.6868 -1.1829
12616SOL     OW39521   0.468   6.585   5.832  0.3135  0.2321  0.3348
12616SOL    HW139522   0.499   6.614   5.918  0.3743 -1.3322  0.8675
12616SOL    HW239523   0.540   6.534   5.796  0.3241  0.9657 -0.7093
12617SOL     OW39524   4.925   5.289   4.344 -0.2006  0.0284  0.0406
12617SOL    HW139525   4.974   5.248   4.273 -0.5686 -0.0329 -0.1790
12617SOL    HW239526   4.840   5.246   4.343 -0.5908  0.7842 -0.1838
12618SOL     OW39527   3.182   9.251   3.262  0.2715  0.1207 -0.4981
12618SOL    HW139528   3.137   9.169   3.282  1.3763 -0.4018 -0.0810
12618SOL    HW239529   3.242   9.264   3.335  4.0334 -1.5134 -3.0425
12619SOL     OW39530   0.436   2.578   2.754 -0.8785 -0.6206 -0.2441
12619SOL    HW139531   0.491   2.652   2.726 -1.3168 -0.4717 -0.7260
12619SOL    HW239532   0.357   2.618   2.790 -0.2490 -0.8063  1.4260
12620SOL     OW39533   7.416   0.063   6.987  0.2477  0.6186 -0.1314
12620SOL    HW139534   7.358   0.123   6.941  0.4571  0.9181 -0.0078
12620SOL    HW239535   7.360  -0.009   7.014  0.5480 -0.9773 -3.2537
12621SOL     OW39536   9.027   4.407   4.153  0.2120 -0.1645  0.4556
12621SOL    HW139537   8.956   4.452   4.199 -1.0608 -1.1255 -0.4842
12621SOL    HW239538   9.088   4.477   4.131 -0.8184  0.8291  0.6301
12622SOL     OW39539   1.134   2.719   4.191 -0.1598  0.2377 -0.3252
12622SOL    HW139540   1.180   2.646   4.232 -1.0547  0.3297  0.8693
12622SOL    HW239541   1.068   2.745   4.254 -2.1811 -0.1705 -2.1380
12623SOL     OW39542   0.182   5.230   5.914 -0.6147 -0.2843  0.0924
12623SOL    HW139543   0.164   5.312   5.868 -2.1059 -1.1470 -0.9500
12623SOL    HW239544   0.117   5.227   5.984 -1.7275 -1.3281 -0.9301
12624SOL     OW39545   3.835   7.462   3.984  0.4497  0.5241  0.2533
12624SOL    HW139546   3.883   7.521   3.926  2.2249 -1.1885 -0.1743
12624SOL    HW239547   3.853   7.375   3.948 -1.8944 -0.3288  0.9540
12625SOL     OW39548   8.349   6.580   2.195 -0.0912 -0.1369  0.6134
12625SOL    HW139549   8.401   6.502   2.215 -0.4954 -0.4572  0.4296
12625SOL    HW239550   8.274   6.547   2.146 -1.2227  0.1389  2.1202
12626SOL     OW39551   4.079   0.582   1.243  1.0107 -0.2450 -0.2551
12626SOL    HW139552   4.147   0.648   1.260  2.1854 -1.5735  0.4718
12626SOL    HW239553   4.100   0.549   1.156  1.1866 -0.5053 -0.1171
12627SOL     OW39554   2.314   0.354   6.475  0.5102  0.3133 -0.2317
12627SOL    HW139555   2.323   0.425   6.539  1.1823 -1.0740  1.3018
12627SOL    HW239556   2.245   0.383   6.416  0.3630  1.9700  0.6986
12628SOL     OW39557   5.146   6.594   4.788  0.3775 -0.2729  0.0951
12628SOL    HW139558   5.109   6.681   4.805 -0.5841 -0.4110 -1.1712
12628SOL    HW239559   5.189   6.570   4.870  0.8954  1.5048  0.3881
12629SOL     OW39560   5.606   3.846   8.737  0.2395 -0.4908 -0.1922
12629SOL    HW139561   5.613   3.833   8.831  1.7025  2.0305  0.1282
12629SOL    HW239562   5.532   3.907   8.727  1.4911  1.0453 -0.4155
12630SOL     OW39563   8.762   5.850   4.946  0.7542 -0.0720 -0.9202
12630SOL    HW139564   8.790   5.760   4.961 -0.0995  0.1506  3.1472
12630SOL    HW239565   8.843   5.898   4.930  1.7794 -0.9463  1.2307
12631SOL     OW39566   0.386   3.196   3.844  0.4268  0.2529 -0.5440
12631SOL    HW139567   0.298   3.228   3.823  0.2534 -1.0603 -1.9556
12631SOL    HW239568   0.424   3.265   3.899 -0.2778  2.4269 -2.6414
12632SOL     OW39569   4.193   0.157   7.785 -0.3480 -0.2751 -0.4087
12632SOL    HW139570   4.172   0.250   7.773 -0.2210 -0.2336 -0.3167
12632SOL    HW239571   4.208   0.149   7.879  1.2854 -0.0413 -0.6279
12633SOL     OW39572   2.566   9.561   1.190 -0.0323  0.2527  0.0083
12633SOL    HW139573   2.560   9.514   1.106 -0.6868  1.2259 -0.4976
12633SOL    HW239574   2.542   9.495   1.255  2.0812 -1.0013 -0.3759
12634SOL     OW39575   6.051   1.023   1.324 -0.1668  0.1488  0.5914
12634SOL    HW139576   6.040   1.111   1.289  0.6961 -0.3789 -1.1432
12634SOL    HW239577   6.002   1.023   1.406 -1.5984  1.7440 -0.2049
12635SOL     OW39578   4.655   8.468   1.277 -0.7158 -0.2957  0.6196
12635SOL    HW139579   4.575   8.508   1.244 -2.2193 -2.3162  1.6053
12635SOL    HW239580   4.660   8.496   1.368  1.1881  1.9127 -0.0665
12636SOL     OW39581   9.363   2.505   5.535  0.0326 -0.3767  0.2845
12636SOL    HW139582   9.421   2.574   5.567 -0.7155  0.2510  0.3237
12636SOL    HW239583   9.415   2.425   5.539  0.4837 -0.0400  1.5385
12637SOL     OW39584   0.756   5.956   8.438 -0.6539  0.3511 -0.1429
12637SOL    HW139585   0.779   6.039   8.479 -1.5130  0.4373  0.1959
12637SOL    HW239586   0.692   5.916   8.497 -0.2234 -0.5806 -0.2770
12638SOL     OW39587   4.503   2.917   0.976  0.4491 -0.3466  0.6444
12638SOL    HW139588   4.596   2.912   0.998  0.0692 -1.4075  2.1888
12638SOL    HW239589   4.478   2.826   0.956 -0.0818  0.0524 -0.5925
12639SOL     OW39590   9.598   0.164   1.018 -0.2753  0.3607  0.5584
12639SOL    HW139591   9.565   0.078   0.995 -3.7345  1.4047  1.0380
12639SOL    HW239592   9.654   0.149   1.095  0.5328 -1.5588 -0.3413
12640SOL     OW39593   0.500   6.358   7.498  0.0572  0.0735  0.0248
12640SOL    HW139594   0.499   6.286   7.435 -1.9875  0.6533 -0.6875
12640SOL    HW239595   0.421   6.408   7.478  0.9054  1.9576  1.1538
12641SOL     OW39596   5.912   4.003   0.885  0.0625 -0.2377  0.1628
12641SOL    HW139597   5.834   4.059   0.895 -0.4412 -0.8176 -0.3939
12641SOL    HW239598   5.957   4.039   0.809 -0.0161 -0.3076  0.0833
12642SOL     OW39599   1.459   2.286   3.479  0.4068  0.1610 -0.3243
12642SOL    HW139600   1.382   2.341   3.490  0.4877  0.1995  0.0728
12642SOL    HW239601   1.428   2.198   3.500  0.7317  0.3363  0.9786
12643SOL     OW39602   8.169   2.639   2.955 -0.3000  0.1783 -0.2164
12643SOL    HW139603   8.259   2.626   2.984 -0.0212  1.5736 -0.3675
12643SOL    HW239604   8.147   2.728   2.985 -2.3614 -0.8743  1.7056
12644SOL     OW39605   4.916   0.545   5.453  0.1323  0.1594 -0.1665
12644SOL    HW139606   4.884   0.593   5.376  0.7452 -2.5415 -2.2344
12644SOL    HW239607   4.986   0.490   5.420 -1.2761 -3.0717  1.7327
12645SOL     OW39608   1.215   4.577   2.824  0.1085 -0.2532 -0.2007
12645SOL    HW139609   1.223   4.668   2.795  0.0396  0.0475  0.6622
12645SOL    HW239610   1.133   4.547   2.786 -0.3415  0.3592  0.2465
12646SOL     OW39611   0.611   2.439   4.528  0.0016 -0.9804  0.2246
12646SOL    HW139612   0.517   2.455   4.535 -0.2972 -1.9912 -0.9513
12646SOL    HW239613   0.650   2.525   4.517 -0.9186 -0.6202 -0.3476
12647SOL     OW39614   8.938   3.487   7.787 -0.8758 -0.0645  0.1699
12647SOL    HW139615   8.876   3.533   7.731  0.1205  0.9575 -0.1248
12647SOL    HW239616   9.018   3.540   7.784 -0.0345 -1.2492  0.6735
12648SOL     OW39617   3.808   5.765   9.590 -0.6537 -0.1257 -0.0929
12648SOL    HW139618   3.791   5.671   9.586 -1.7934  0.0239  0.7769
12648SOL    HW239619   3.741   5.799   9.649 -0.1418  1.2112 -0.2510
12649SOL     OW39620   0.491   5.985   4.773  0.3938 -0.0203 -0.1820
12649SOL    HW139621   0.481   6.070   4.730 -0.5443 -0.8495 -1.6701
12649SOL    HW239622   0.543   6.004   4.851  1.1117  1.7392 -1.0386
12650SOL     OW39623   4.299   6.225   9.407 -0.1119 -0.3239 -0.0736
12650SOL    HW139624   4.392   6.211   9.393 -0.4684 -1.6792 -1.3292
12650SOL    HW239625   4.270   6.274   9.331 -0.2011  1.3348  0.9775
12651SOL     OW39626   2.487   9.346   1.364  0.2590  0.1522 -0.4880
12651SOL    HW139627   2.398   9.366   1.336 -0.5101 -0.9955  0.9908
12651SOL    HW239628   2.491   9.251   1.365  1.2184  0.1838  0.2897
12652SOL     OW39629   1.977   2.192   6.516  0.0124 -0.2698 -0.4530
12652SOL    HW139630   1.940   2.223   6.599  1.7344 -0.5273  0.4642
12652SOL    HW239631   2.004   2.271   6.470  0.8125 -0.2000  0.1175
12653SOL     OW39632   0.344   0.679   4.512 -0.3670 -0.5515 -0.2925
12653SOL    HW139633   0.308   0.684   4.423  0.4905  0.4074 -0.6001
12653SOL    HW239634   0.434   0.648   4.500 -0.6900 -1.8500  0.3828
12654SOL     OW39635   0.674   3.625   2.724  0.1204 -0.1723  0.9952
12654SOL    HW139636   0.637   3.708   2.753  0.6314 -0.0639  1.3543
12654SOL    HW239637   0.624   3.558   2.772  1.5209  0.0285  2.8626
12655SOL     OW39638   0.558   9.022   8.854 -0.1899 -0.3990 -0.2574
12655SOL    HW139639   0.565   9.040   8.760 -0.5086 -0.8457 -0.3706
12655SOL    HW239640   0.465   9.032   8.873 -0.2762 -1.2433 -0.1918
12656SOL     OW39641   5.068   2.587   3.291  0.1471  0.6120 -0.1865
12656SOL    HW139642   5.011   2.611   3.364 -0.5470 -1.9755  0.2199
12656SOL    HW239643   5.153   2.568   3.331 -0.2788 -0.9693  0.0064
12657SOL     OW39644   1.202   2.051   1.136  1.5011  0.0696  0.2614
12657SOL    HW139645   1.152   1.978   1.101  0.6407 -0.2757  2.0740
12657SOL    HW239646   1.164   2.129   1.096  0.0826 -0.2560  0.9226
12658SOL     OW39647   6.254   1.828   9.283  0.3284  0.2703 -0.0921
12658SOL    HW139648   6.230   1.761   9.346  2.0196  0.3798  0.7283
12658SOL    HW239649   6.257   1.783   9.199  2.7889 -1.1009  0.6259
12659SOL     OW39650   7.893   5.599   3.911 -0.6553 -0.1201  0.3309
12659SOL    HW139651   7.873   5.523   3.856 -0.5030  0.5713 -0.7188
12659SOL    HW239652   7.878   5.674   3.854  1.7933  0.5760  0.4847
12660SOL     OW39653   8.632   7.760   5.763  0.3995  0.3973  0.2599
12660SOL    HW139654   8.648   7.848   5.729 -0.0708  0.3482 -0.0967
12660SOL    HW239655   8.689   7.754   5.840  0.3259  1.0673  0.3755
12661SOL     OW39656   1.776   2.296   7.767 -0.1553 -0.5259  0.0337
12661SOL    HW139657   1.777   2.384   7.731 -1.6176 -0.2291  0.6597
12661SOL    HW239658   1.848   2.251   7.722  0.0976  0.7414 -0.8796
12662SOL     OW39659   8.149   6.355   4.231  0.8619  0.5579 -0.4997
12662SOL    HW139660   8.070   6.307   4.256  0.9481  0.5397 -0.2602
12662SOL    HW239661   8.136   6.442   4.269  1.2750  0.3416  0.1390
12663SOL     OW39662   9.073   5.234   5.738  1.0216 -0.1176 -0.7993
12663SOL    HW139663   9.136   5.293   5.695  1.4665  0.1037  0.1381
12663SOL    HW239664   9.127   5.177   5.793  0.3159  1.4390  1.6722
12664SOL     OW39665   3.979   1.636   9.345  0.5228 -0.1460  0.2562
12664SOL    HW139666   4.066   1.598   9.354  0.4967 -0.3460 -0.3518
12664SOL    HW239667   3.941   1.631   9.433  1.1776  0.0784  0.5564
12665SOL     OW39668   2.611   5.015   4.271  0.1255 -0.2797 -0.6015
12665SOL    HW139669   2.582   5.075   4.202 -1.5499 -3.2625 -2.7095
12665SOL    HW239670   2.533   4.963   4.291  1.0996 -0.8099  2.2470
12666SOL     OW39671   4.243   2.936   5.553 -0.3379  0.2317  0.0635
12666SOL    HW139672   4.219   2.881   5.478  0.8242  0.5099 -0.5231
12666SOL    HW239673   4.229   3.025   5.523 -1.7927  0.3196  0.8733
12667SOL     OW39674   9.342   1.129   0.472  0.0226  0.2091  0.1111
12667SOL    HW139675   9.369   1.188   0.543  0.8978 -0.6549  0.5256
12667SOL    HW239676   9.408   1.141   0.405  2.2227 -2.6788  1.5509
12668SOL     OW39677   2.853   4.318   4.658 -0.5297  0.0929  0.1589
12668SOL    HW139678   2.946   4.338   4.645 -0.6184  2.1487  2.0378
12668SOL    HW239679   2.853   4.235   4.705  0.3946  0.1578  0.3012
12669SOL     OW39680   4.237   0.616   8.637 -0.0436 -0.2415  0.3767
12669SOL    HW139681   4.296   0.691   8.638  0.1566 -0.3965  0.5671
12669SOL    HW239682   4.261   0.568   8.557  0.8790 -0.9069  1.0209
12670SOL     OW39683   3.099   7.959   0.400  0.1458  0.2388 -0.7180
12670SOL    HW139684   3.146   7.938   0.480 -1.7308  0.4149  0.5113
12670SOL    HW239685   3.126   8.048   0.378 -1.6241  1.4477  1.5876
12671SOL     OW39686   8.453   1.303   3.251 -0.3001 -0.5968 -0.4848
12671SOL    HW139687   8.458   1.212   3.221 -1.3969 -0.7464 -0.2521
12671SOL    HW239688   8.511   1.306   3.327  0.7233 -0.7851 -1.2468
12672SOL     OW39689   8.998   5.722   4.324 -0.1496  0.2970 -0.7163
12672SOL    HW139690   9.026   5.771   4.248  1.3064 -1.3914 -1.3414
12672SOL    HW239691   8.920   5.768   4.356  1.7910  3.7171 -0.4506
12673SOL     OW39692   7.261   3.027   3.453 -0.0152 -0.6297 -0.5977
12673SOL    HW139693   7.227   3.093   3.393 -2.1618 -1.0525  0.0654
12673SOL    HW239694   7.222   3.048   3.538  0.0891 -2.1178 -0.1488
12674SOL     OW39695   7.498   7.323   0.003  0.2541 -0.2989  0.0751
12674SOL    HW139696   7.503   7.375   0.083 -0.7062 -0.9558  0.5781
12674SOL    HW239697   7.589   7.317  -0.028  0.3881  1.7145 -0.0429
12675SOL     OW39698   6.032   1.309   6.496 -0.5385 -0.1698 -0.6055
12675SOL    HW139699   5.994   1.379   6.548  0.7336  0.0517  0.0495
12675SOL    HW239700   5.996   1.322   6.408 -0.1344  1.4327 -0.5494
12676SOL     OW39701   2.938   9.166   2.821 -0.6408 -0.0266  0.1875
12676SOL    HW139702   2.969   9.106   2.889 -2.5285 -0.6573  0.5417
12676SOL    HW239703   2.844   9.174   2.837 -1.1869 -0.3428 -2.4665
12677SOL     OW39704   5.580   9.338   1.775 -0.9307  1.0421 -0.1906
12677SOL    HW139705   5.521   9.270   1.742  0.2804  0.2594 -0.8229
12677SOL    HW239706   5.534   9.421   1.756 -1.6671  0.4769 -0.9670
12678SOL     OW39707   2.470   3.989   9.118  0.0288 -0.0342 -0.6583
12678SOL    HW139708   2.548   4.011   9.168 -0.4038  0.2488 -0.0857
12678SOL    HW239709   2.478   4.039   9.037  1.6188 -1.8884 -1.7249
12679SOL     OW39710   9.427   4.811   0.264  0.1072  0.7464 -0.1370
12679SOL    HW139711   9.342   4.841   0.298 -0.2564  1.1572 -1.3567
12679SOL    HW239712   9.461   4.754   0.333 -0.8372  1.1218  0.6790
12680SOL     OW39713   6.866   4.656   1.831  0.4671  0.0807 -0.2799
12680SOL    HW139714   6.826   4.569   1.828 -0.8908  0.5407  2.2096
12680SOL    HW239715   6.928   4.652   1.904  2.4073  0.4789 -1.8095
12681SOL     OW39716   7.115   8.889   8.893 -0.4825  0.3918  0.0648
12681SOL    HW139717   7.120   8.964   8.953  0.1361 -0.1498  0.6982
12681SOL    HW239718   7.069   8.924   8.816 -0.5976  1.3036  0.5262
12682SOL     OW39719   3.944   6.032   5.450  0.2192 -0.1919 -0.1756
12682SOL    HW139720   3.914   5.945   5.478  0.3631  0.1696  1.2156
12682SOL    HW239721   3.870   6.090   5.470  1.9669  0.9284  4.4821
12683SOL     OW39722   0.132   5.824   4.810  0.1407 -0.1237 -0.5959
12683SOL    HW139723   0.189   5.895   4.839  0.0771  0.3284 -1.5584
12683SOL    HW239724   0.188   5.746   4.813 -0.2532 -0.3986  2.1338
12684SOL     OW39725   6.676   1.805   4.605  0.1868  0.3088 -0.5565
12684SOL    HW139726   6.583   1.809   4.627  0.9174  0.1813  3.3916
12684SOL    HW239727   6.680   1.755   4.524 -3.0856 -1.4546  0.2123
12685SOL     OW39728   4.727   7.530   0.209  0.9040 -0.1444  0.0076
12685SOL    HW139729   4.728   7.626   0.209  1.3606 -0.1495 -0.1647
12685SOL    HW239730   4.636   7.508   0.228  0.8700  0.3209  0.4159
12686SOL     OW39731   2.098   2.114   3.432  0.0168 -0.4158 -0.3660
12686SOL    HW139732   2.042   2.041   3.407 -0.4972 -0.3874  0.6717
12686SOL    HW239733   2.039   2.189   3.437 -0.2585 -0.7194  2.4653
12687SOL     OW39734   3.064   3.155   2.248  0.1496 -0.6838 -0.1940
12687SOL    HW139735   3.087   3.113   2.331  2.8465  1.6186  0.3779
12687SOL    HW239736   3.122   3.115   2.184 -0.4361 -0.9483 -0.5693
12688SOL     OW39737   5.979   3.727   6.012 -0.4946 -0.4605 -0.2315
12688SOL    HW139738   6.022   3.741   6.096  0.4326 -0.5087 -0.6916
12688SOL    HW239739   5.896   3.685   6.034 -0.3183 -0.3522  0.6664
12689SOL     OW39740   9.260   1.879   4.412 -0.7249 -0.4803 -0.1173
12689SOL    HW139741   9.282   1.812   4.476  0.1389 -0.1039 -0.0094
12689SOL    HW239742   9.200   1.938   4.459  0.5384  0.2456  0.6306
12690SOL     OW39743   3.935   1.830   9.136  0.4426  0.1390  0.1744
12690SOL    HW139744   3.975   1.789   9.212  0.2055 -1.2535 -0.4276
12690SOL    HW239745   3.841   1.817   9.149  0.3310  0.9368  0.2109
12691SOL     OW39746   5.104   3.543   5.550 -0.0785  0.6007 -0.5697
12691SOL    HW139747   5.071   3.629   5.522 -0.5551  0.7789  0.4737
12691SOL    HW239748   5.085   3.540   5.644  3.5989  1.0593  0.3434
12692SOL     OW39749   9.495   5.445   2.742 -0.4367  0.0450  0.6465
12692SOL    HW139750   9.429   5.396   2.693  0.6121 -1.1703  0.3898
12692SOL    HW239751   9.464   5.536   2.741 -1.7819 -0.3974  0.0302
12693SOL     OW39752   0.593   7.502   2.415  0.2114 -0.3518  0.0273
12693SOL    HW139753   0.553   7.569   2.470 -0.5628 -0.2860 -0.5887
12693SOL    HW239754   0.561   7.419   2.452  0.2600 -0.3349  0.1072
12694SOL     OW39755   7.860   0.188   1.506 -1.0481  0.0615  0.1018
12694SOL    HW139756   7.895   0.104   1.537  0.1622  0.5896  0.1853
12694SOL    HW239757   7.769   0.167   1.481 -0.2432 -1.7308 -1.6550
12695SOL     OW39758   3.646   6.124   8.032 -0.1823 -0.4352  0.3168
12695SOL    HW139759   3.564   6.120   8.081  0.0104 -0.1551  0.6742
12695SOL    HW239760   3.627   6.182   7.958  0.8502  3.4312  2.7967
12696SOL     OW39761   2.605   3.095   3.922 -0.3065 -0.6993 -0.0909
12696SOL    HW139762   2.579   3.152   3.994 -0.2979 -2.2036  1.1473
12696SOL    HW239763   2.695   3.070   3.942 -0.3458 -1.2368 -0.5467
12697SOL     OW39764   7.881   6.703   4.786 -0.5713  0.0141 -0.1560
12697SOL    HW139765   7.802   6.752   4.764 -0.7033  0.8018  1.8428
12697SOL    HW239766   7.853   6.642   4.854  0.3742 -0.2836 -0.0146
12698SOL     OW39767   9.226   7.922   3.433 -0.1885 -0.0984  0.2927
12698SOL    HW139768   9.132   7.916   3.419 -1.0175  3.7220  2.5974
12698SOL    HW239769   9.238   7.904   3.526  1.5934 -1.7191 -0.1952
12699SOL     OW39770   2.031   8.688   1.827  0.6771 -0.2264  0.3551
12699SOL    HW139771   2.001   8.619   1.886  0.3316 -0.1298  0.2950
12699SOL    HW239772   2.106   8.649   1.782  0.1702 -0.7583 -0.0581
12700SOL     OW39773   3.356   3.716   4.684  0.6429  0.3808  0.2307
12700SOL    HW139774   3.268   3.747   4.705  0.5368 -0.5238  1.1846
12700SOL    HW239775   3.406   3.795   4.666 -0.5247  0.8856 -1.0175
12701SOL     OW39776   7.178   2.865   0.084 -0.3311  0.3644  0.1101
12701SOL    HW139777   7.222   2.921   0.020 -0.6474  0.6650  0.1496
12701SOL    HW239778   7.189   2.776   0.050 -2.0315  0.6395 -1.3455
12702SOL     OW39779   4.113   4.595   0.075 -0.1637 -0.2022 -0.0054
12702SOL    HW139780   4.187   4.648   0.043  0.3976 -0.9561  0.0258
12702SOL    HW239781   4.037   4.652   0.064 -0.0250 -0.4053 -2.7120
12703SOL     OW39782   9.329   5.408   5.894 -0.1015  0.3222  0.4074
12703SOL    HW139783   9.284   5.473   5.840 -1.1035  0.7241  1.6730
12703SOL    HW239784   9.371   5.349   5.831 -0.2699  1.4243 -0.7787
12704SOL     OW39785   4.815   8.818   1.697  0.0518  0.2729 -0.0637
12704SOL    HW139786   4.909   8.814   1.681  0.5904 -1.3572  2.7723
12704SOL    HW239787   4.797   8.911   1.710  1.2969  0.5916 -0.5151
12705SOL     OW39788   1.772   8.671   8.013  0.0770 -0.3493 -0.0984
12705SOL    HW139789   1.680   8.666   8.040  0.2720  0.1619  0.6995
12705SOL    HW239790   1.787   8.764   7.996  0.2052 -0.5507 -1.1618
12706SOL     OW39791   6.169   6.837   8.900  0.3871 -0.8588  0.0660
12706SOL    HW139792   6.173   6.867   8.809  0.9551 -1.3523 -0.0810
12706SOL    HW239793   6.177   6.741   8.894 -1.4173 -1.0701  0.5153
12707SOL     OW39794   3.051   6.291   2.557  0.5035 -0.0814  0.6779
12707SOL    HW139795   3.088   6.215   2.512 -0.6090 -0.0487 -0.3344
12707SOL    HW239796   3.068   6.364   2.498  0.7671  0.3129  1.2365
12708SOL     OW39797   2.001   0.878   1.151  0.1333 -0.6208  0.5705
12708SOL    HW139798   2.036   0.874   1.240  2.3270 -1.7277 -0.2845
12708SOL    HW239799   1.966   0.967   1.144 -0.5445 -0.6496  2.6657
12709SOL     OW39800   0.182   8.630   7.710  0.4938  0.0285  0.1477
12709SOL    HW139801   0.124   8.559   7.683 -0.2074  0.6335  0.0199
12709SOL    HW239802   0.123   8.701   7.736  1.1735  0.7480 -0.2224
12710SOL     OW39803   6.741   1.674   5.393 -0.0684 -0.0534  0.4533
12710SOL    HW139804   6.795   1.645   5.467  1.1509 -0.5961 -0.5957
12710SOL    HW239805   6.763   1.766   5.382 -1.0661  0.3169  1.4133
12711SOL     OW39806   0.739   4.142   9.072  0.2392 -0.4097 -0.1696
12711SOL    HW139807   0.662   4.157   9.127  0.7133 -0.7671  0.6201
12711SOL    HW239808   0.811   4.181   9.122  1.1380 -3.1621  0.8674
12712SOL     OW39809   3.948   7.176   0.462  0.2239 -0.1630  0.2334
12712SOL    HW139810   3.991   7.091   0.451  2.0146  0.8609 -1.3295
12712SOL    HW239811   3.910   7.194   0.376  1.5785  1.4539 -0.0710
12713SOL     OW39812   7.173   0.428   1.554 -0.1345 -0.0958  0.0524
12713SOL    HW139813   7.168   0.490   1.627 -0.9899 -0.1935  0.0906
12713SOL    HW239814   7.226   0.473   1.488  0.4781  0.0774  0.6532
12714SOL     OW39815   2.586   5.681   1.852  0.1604  0.6091 -0.2592
12714SOL    HW139816   2.589   5.741   1.927 -0.4464 -1.7103  1.7572
12714SOL    HW239817   2.509   5.709   1.802 -0.3042  1.3040  0.8013
12715SOL     OW39818   8.617   3.784   5.078 -0.5543  0.4893 -0.3584
12715SOL    HW139819   8.545   3.818   5.024 -1.3237 -0.3419  0.1051
12715SOL    HW239820   8.573   3.748   5.155 -0.3552 -4.7148 -2.2203
12716SOL     OW39821   2.053   7.355   3.162 -0.1753 -0.1617  0.2225
12716SOL    HW139822   2.026   7.277   3.211 -0.2149  1.0302  2.1959
12716SOL    HW239823   2.121   7.323   3.103 -1.5999 -2.0497 -0.5012
12717SOL     OW39824   7.069   7.275   0.640 -0.1897  0.2205  0.1878
12717SOL    HW139825   7.147   7.242   0.597 -0.2738 -0.3554  0.4670
12717SOL    HW239826   7.087   7.368   0.656  0.4956  0.0521  0.3917
12718SOL     OW39827   6.533   0.377   4.225 -0.7022  0.0390 -0.2994
12718SOL    HW139828   6.521   0.446   4.161  1.6739  0.6841 -0.1594
12718SOL    HW239829   6.523   0.420   4.310 -1.5642 -0.3228 -0.2067
12719SOL     OW39830   3.857   8.965   6.868 -0.8838 -0.3727 -0.4418
12719SOL    HW139831   3.874   8.913   6.947 -0.6679 -0.6854 -0.6879
12719SOL    HW239832   3.902   8.917   6.799 -0.6182  0.1888 -0.6635
12720SOL     OW39833   3.713   1.007   4.142  0.0214 -0.0327 -0.0495
12720SOL    HW139834   3.678   1.087   4.181 -0.3110 -0.2663  0.1369
12720SOL    HW239835   3.677   0.936   4.196  0.3399 -0.3055 -0.1921
12721SOL     OW39836   9.003   5.675   1.596  0.0804  0.4927 -0.0340
12721SOL    HW139837   8.931   5.649   1.654  2.1281 -1.5739  1.7658
12721SOL    HW239838   9.016   5.601   1.538  1.9489 -0.0227  0.9651
12722SOL     OW39839   5.935   4.829   6.593 -1.3848  0.2733 -0.3393
12722SOL    HW139840   5.970   4.834   6.504 -0.3312 -1.1157 -0.0332
12722SOL    HW239841   5.888   4.912   6.605 -1.6870  0.4152 -2.2345
12723SOL     OW39842   4.167   3.232   4.960  0.3142 -0.2118 -0.9552
12723SOL    HW139843   4.251   3.225   5.006 -0.4682 -0.4627  0.4983
12723SOL    HW239844   4.168   3.320   4.922  0.0875  0.9639  1.5141
12724SOL     OW39845   5.095   5.986   8.968  0.4964 -0.6054 -0.1010
12724SOL    HW139846   5.158   6.058   8.957 -0.4944  0.0829 -1.6444
12724SOL    HW239847   5.041   5.989   8.889 -0.8340 -1.8221  0.7109
12725SOL     OW39848   6.596   7.274   1.425 -0.7086 -0.0871 -0.2673
12725SOL    HW139849   6.549   7.316   1.497  1.2086  0.8459  0.5087
12725SOL    HW239850   6.662   7.338   1.398 -0.6678 -0.8462 -2.1461
12726SOL     OW39851   5.903   8.335   8.172 -0.1287 -0.1082  0.5439
12726SOL    HW139852   5.869   8.364   8.088  1.1083  0.8111  0.3390
12726SOL    HW239853   5.986   8.292   8.151 -0.0575 -0.3376  1.2502
12727SOL     OW39854   5.131   9.485   9.220  0.0416 -0.2586  0.7793
12727SOL    HW139855   5.142   9.580   9.214  0.3958 -0.1136  3.0366
12727SOL    HW239856   5.157   9.453   9.133  1.4864  1.5627  0.4635
12728SOL     OW39857   2.503   0.785   0.150 -0.1312 -0.3206 -0.0506
12728SOL    HW139858   2.542   0.724   0.212  0.5873  0.6274  0.4528
12728SOL    HW239859   2.504   0.869   0.195 -0.5851  0.1773 -0.9436
12729SOL     OW39860   1.154   8.991   8.441  0.1766 -0.5649  0.4704
12729SOL    HW139861   1.079   9.048   8.422  1.0274  0.7837  1.0329
12729SOL    HW239862   1.195   9.030   8.518  1.2970 -1.4546  0.3450
12730SOL     OW39863   5.959   3.496   5.600  0.5777  0.0505  0.5961
12730SOL    HW139864   5.964   3.586   5.631 -0.0362  1.3100 -2.5414
12730SOL    HW239865   5.865   3.474   5.605  0.6268 -0.1508  0.6644
12731SOL     OW39866   3.420   6.354   2.208 -0.1599  0.0032 -0.0837
12731SOL    HW139867   3.487   6.338   2.275 -0.8719 -0.7970  0.4707
12731SOL    HW239868   3.461   6.414   2.146  0.3876  1.0715  1.2697
12732SOL     OW39869   7.922   9.547   6.251 -0.3888  0.0168 -0.4857
12732SOL    HW139870   7.985   9.617   6.237 -0.4279  0.1050 -0.2277
12732SOL    HW239871   7.972   9.478   6.295 -0.6389  0.3818  0.3998
12733SOL     OW39872   3.599   5.035   4.305 -0.1492 -0.1077 -0.1080
12733SOL    HW139873   3.555   4.972   4.248 -1.0245  0.4332 -0.0645
12733SOL    HW239874   3.592   5.119   4.258 -0.6317  0.2918  0.6502
12734SOL     OW39875   3.271   9.457   6.950  0.1845 -0.1825  0.0032
12734SOL    HW139876   3.228   9.372   6.951  0.3170 -0.2634 -0.8302
12734SOL    HW239877   3.220   9.509   6.888  0.4889  0.1444  0.0238
12735SOL     OW39878   2.708   6.206   3.541  0.2036 -0.1589 -0.1105
12735SOL    HW139879   2.661   6.232   3.620  0.0632 -0.2004 -0.1799
12735SOL    HW239880   2.690   6.112   3.533  0.4858 -0.2224 -0.0101
12736SOL     OW39881   0.941   2.144   7.304 -0.1929 -0.3911 -0.1459
12736SOL    HW139882   0.978   2.070   7.256 -0.2169  1.5285 -3.3934
12736SOL    HW239883   0.846   2.137   7.287 -0.4753 -0.8158  1.4470
12737SOL     OW39884   8.429   4.519   6.636  0.5202 -0.0452  0.4551
12737SOL    HW139885   8.456   4.481   6.720  0.6428  1.2054  1.0029
12737SOL    HW239886   8.467   4.607   6.637 -0.6777  0.4924 -0.2825
12738SOL     OW39887   6.497   9.125   9.011 -0.7382 -0.0471 -0.5134
12738SOL    HW139888   6.567   9.094   8.954  0.0373 -2.6711  1.6258
12738SOL    HW239889   6.428   9.058   9.004 -0.5726 -0.5266  1.5748
12739SOL     OW39890   7.221   6.142   0.959 -0.4141 -0.5250 -0.0599
12739SOL    HW139891   7.188   6.184   0.879 -0.6951  1.5042  1.0366
12739SOL    HW239892   7.295   6.196   0.985 -0.7285 -0.7371  1.3892
12740SOL     OW39893   8.750   4.510   5.425  0.0178  0.5103  0.1105
12740SOL    HW139894   8.755   4.601   5.396 -0.8813 -0.0025 -1.7956
12740SOL    HW239895   8.657   4.488   5.419  0.0108 -0.1361  1.9384
12741SOL     OW39896   4.286   2.421   1.817 -0.4667 -0.9682  0.1587
12741SOL    HW139897   4.270   2.349   1.755 -0.2678 -1.6137  0.8399
12741SOL    HW239898   4.200   2.443   1.852 -0.9506  1.0179 -2.0513
12742SOL     OW39899   4.426   3.349   0.522 -0.8539  0.0113 -0.6121
12742SOL    HW139900   4.350   3.333   0.579  0.6464 -1.0361  1.2263
12742SOL    HW239901   4.465   3.429   0.557 -1.8992  1.4018 -2.5060
12743SOL     OW39902   7.682   3.639   3.969  0.2521 -0.3827  0.2794
12743SOL    HW139903   7.708   3.658   4.060  0.4665 -0.3423  0.2103
12743SOL    HW239904   7.590   3.666   3.965 -0.0766 -1.3705  0.7762
12744SOL     OW39905   4.765   4.035   5.648  0.1104  0.2574 -0.3293
12744SOL    HW139906   4.730   4.087   5.720  0.6430 -0.9060  0.8119
12744SOL    HW239907   4.800   3.956   5.690  1.6600  0.1569 -1.7146
12745SOL     OW39908   8.369   5.378   2.859  0.2921 -0.0745  0.5792
12745SOL    HW139909   8.314   5.416   2.790  0.9544 -1.3920 -0.7335
12745SOL    HW239910   8.308   5.340   2.921 -0.3121 -0.5745 -0.3051
12746SOL     OW39911   0.103   3.922   5.471  0.3907 -0.1876 -0.2838
12746SOL    HW139912   0.163   3.994   5.489  1.4410 -0.6800 -1.5867
12746SOL    HW239913   0.076   3.935   5.380 -0.3315 -0.7805 -0.1647
12747SOL     OW39914   2.008   2.581   6.543  0.5294  0.5407 -0.0176
12747SOL    HW139915   1.947   2.537   6.603  1.3400 -0.3072  0.2142
12747SOL    HW239916   1.961   2.659   6.514 -0.5358  0.0783  0.4078
12748SOL     OW39917   8.059   5.605   4.897  0.0087  0.7649  0.0229
12748SOL    HW139918   8.072   5.698   4.877  0.1790  0.5106 -1.1171
12748SOL    HW239919   8.115   5.559   4.834  0.0146 -0.1143  0.6504
12749SOL     OW39920   7.934   0.315   4.831 -0.2655 -0.2618 -0.2580
12749SOL    HW139921   7.852   0.358   4.857 -0.5387 -0.3877 -0.8924
12749SOL    HW239922   7.983   0.306   4.913 -0.6655  0.2748  0.0521
12750SOL     OW39923   1.103   7.962   8.474 -0.1383  0.3589  0.6466
12750SOL    HW139924   1.155   7.896   8.521  1.1307  1.3848  0.7478
12750SOL    HW239925   1.132   8.045   8.511 -1.6907  1.0026  0.4935
12751SOL     OW39926   6.570   9.024   1.242  0.5065  0.2215  0.3805
12751SOL    HW139927   6.530   9.098   1.288 -0.4179  0.3796 -0.6245
12751SOL    HW239928   6.592   9.060   1.155  1.2529 -0.3433  0.3268
12752SOL     OW39929   4.091   1.685   7.092  0.5901  0.0787  0.2463
12752SOL    HW139930   4.184   1.701   7.108  0.4484  0.0059  1.1896
12752SOL    HW239931   4.050   1.771   7.096  0.6206  0.1171 -0.2208
12753SOL     OW39932   6.015   8.020   2.407 -0.2632  0.1790 -0.8332
12753SOL    HW139933   6.083   7.954   2.388  0.8229  1.2310 -0.7237
12753SOL    HW239934   6.056   8.078   2.472 -0.9702  1.3190 -1.3824
12754SOL     OW39935   3.707   6.105   1.363  0.1071  0.3608 -0.1896
12754SOL    HW139936   3.733   6.013   1.349  0.0486  0.4987 -1.2960
12754SOL    HW239937   3.669   6.106   1.451 -0.0300 -0.7099 -0.2220
12755SOL     OW39938   8.660   4.961   1.652  0.2804  0.2098  0.0644
12755SOL    HW139939   8.742   4.971   1.602 -0.2668 -1.8882 -1.3885
12755SOL    HW239940   8.597   5.017   1.606  0.1788 -0.4887 -0.6683
12756SOL     OW39941   6.153   7.004   5.062  0.0629 -0.1983  0.3569
12756SOL    HW139942   6.065   6.993   5.098  0.6427 -0.4817  1.7807
12756SOL    HW239943   6.153   6.950   4.983 -0.8067 -0.8597  0.7815
12757SOL     OW39944   4.580   0.165   4.084 -0.1803  0.2985  0.4324
12757SOL    HW139945   4.644   0.172   4.014 -0.2597  1.4856  0.4613
12757SOL    HW239946   4.496   0.185   4.042 -0.4170 -0.3418  0.5850
12758SOL     OW39947   6.639   5.778   5.872  0.3577 -0.0127 -0.1188
12758SOL    HW139948   6.644   5.770   5.777 -1.8924  1.2235 -0.4112
12758SOL    HW239949   6.628   5.872   5.887  0.7901 -0.1841  1.3789
12759SOL     OW39950   9.042   8.382   7.512 -0.3899 -0.3367 -0.8323
12759SOL    HW139951   9.005   8.304   7.470 -1.0797  0.9616 -2.7500
12759SOL    HW239952   8.975   8.449   7.503 -0.5471  0.0824  2.4001
12760SOL     OW39953   8.334   5.969   7.445  0.0775 -0.0303 -0.1391
12760SOL    HW139954   8.348   5.911   7.519  0.1480 -0.4990 -0.5134
12760SOL    HW239955   8.385   6.048   7.466  2.2873 -1.1761 -0.8535
12761SOL     OW39956   8.318   4.613   3.494  0.3961  0.4274 -0.2614
12761SOL    HW139957   8.337   4.522   3.474  0.9608  0.2014  1.1827
12761SOL    HW239958   8.223   4.619   3.488  0.4141 -0.0313 -1.1973
12762SOL     OW39959   6.142   4.278   5.887  0.3405  0.1009 -0.2451
12762SOL    HW139960   6.148   4.290   5.793  0.0276  1.6607 -0.0901
12762SOL    HW239961   6.137   4.183   5.899 -0.1137 -0.0937 -1.8114
12763SOL     OW39962   2.199   2.247   5.908 -0.3016  0.7606 -0.1626
12763SOL    HW139963   2.223   2.166   5.952  2.4462  1.8150  0.4551
12763SOL    HW239964   2.135   2.220   5.842  0.0304 -1.7967  0.4624
12764SOL     OW39965   5.504   0.310   9.183 -0.0530  0.2475 -0.0368
12764SOL    HW139966   5.470   0.336   9.097 -1.3550 -0.4243  0.2461
12764SOL    HW239967   5.560   0.383   9.209  1.1070  0.0596 -1.8410
12765SOL     OW39968   7.562   9.437   0.718  0.5377 -0.2038  0.0365
12765SOL    HW139969   7.629   9.471   0.658 -1.0283  0.8131 -1.2072
12765SOL    HW239970   7.533   9.355   0.676  0.4667 -0.2487  0.1740
12766SOL     OW39971   2.605   4.650   4.930 -0.4763  0.5110  0.5111
12766SOL    HW139972   2.611   4.592   4.854  1.5115 -1.2114  1.8755
12766SOL    HW239973   2.541   4.609   4.987 -1.0243  1.1229  0.3497
12767SOL     OW39974   1.342   7.160   0.510  0.0912 -0.3294 -0.2803
12767SOL    HW139975   1.281   7.234   0.511 -0.1982 -0.4660 -2.3083
12767SOL    HW239976   1.428   7.199   0.522 -0.1504  0.2442 -0.3969
12768SOL     OW39977   3.627   1.123   7.097  0.1656 -0.2910  0.0194
12768SOL    HW139978   3.665   1.151   7.013  0.3526 -0.0716  0.1741
12768SOL    HW239979   3.703   1.095   7.148  0.3646  1.8279  0.9843
12769SOL     OW39980   0.808   7.917   6.010 -0.0834  0.7760 -0.3905
12769SOL    HW139981   0.750   7.886   6.079 -0.3929 -0.0193 -0.9943
12769SOL    HW239982   0.771   7.880   5.929  1.8692 -0.6604 -0.6840
12770SOL     OW39983   4.989   0.880   7.380  0.3403 -0.4361  0.6051
12770SOL    HW139984   4.923   0.812   7.368 -0.4918  0.5446 -0.5283
12770SOL    HW239985   5.065   0.848   7.330 -0.5239  0.0873 -1.1089
12771SOL     OW39986   1.030   0.813   4.583  0.2411  0.0574  0.0384
12771SOL    HW139987   1.111   0.859   4.565  0.7812 -0.6088  0.6898
12771SOL    HW239988   1.057   0.734   4.631 -0.7458 -0.3816 -0.0923
12772SOL     OW39989   6.048   4.608   2.359 -0.0271 -0.1076 -0.1216
12772SOL    HW139990   6.118   4.668   2.388  1.5230 -1.9251  0.0868
12772SOL    HW239991   6.044   4.621   2.264  0.5494  0.0802 -0.1272
12773SOL     OW39992   0.731   6.692   8.466  0.1298 -0.3526  0.1390
12773SOL    HW139993   0.726   6.760   8.533  1.2022  1.0094 -1.1130
12773SOL    HW239994   0.817   6.651   8.480  0.1863 -0.3359 -0.1727
12774SOL     OW39995   6.264   0.901   1.481  0.3080  0.2799  0.2847
12774SOL    HW139996   6.350   0.874   1.448 -0.2965  0.0965 -1.1909
12774SOL    HW239997   6.222   0.943   1.406 -1.0081  0.1085  0.9129
12775SOL     OW39998   5.824   7.895   9.599 -0.4577  0.4224  0.0099
12775SOL    HW139999   5.821   7.827   9.533  1.2755 -1.5365  1.7806
12775SOL    HW240000   5.890   7.957   9.566 -0.9098  0.4311 -0.9001
12776SOL     OW40001   5.845   1.615   2.042  0.0877 -0.5826  0.2871
12776SOL    HW140002   5.801   1.531   2.053  0.4422 -0.7133  0.7185
12776SOL    HW240003   5.918   1.613   2.104 -0.3931  0.3858  0.9012
12777SOL     OW40004   6.777   3.797   5.329 -0.0754  0.6222  0.3750
12777SOL    HW140005   6.766   3.726   5.393 -1.0831  0.5026  0.0863
12777SOL    HW240006   6.863   3.781   5.290 -0.5650 -0.8739 -0.1843
12778SOL     OW40007   4.438   2.099   8.391  0.4579 -0.0108  0.1401
12778SOL    HW140008   4.528   2.068   8.381  0.0112 -1.4282  0.2782
12778SOL    HW240009   4.409   2.062   8.475 -0.6485 -0.6375 -0.4971
12779SOL     OW40010   9.076   2.557   5.014  0.1982 -0.3631 -0.0047
12779SOL    HW140011   9.073   2.626   5.080  1.6608 -1.8929  1.7462
12779SOL    HW240012   9.031   2.595   4.938 -0.8814  1.7310  1.5790
12780SOL     OW40013   3.419   0.838   5.870  0.6698  0.3288 -0.3131
12780SOL    HW140014   3.508   0.828   5.905  0.1213  0.0103  1.0780
12780SOL    HW240015   3.385   0.749   5.866  0.2271  0.4961 -0.3214
12781SOL     OW40016   3.186   3.180   6.704  0.0599  0.1624 -0.0959
12781SOL    HW140017   3.191   3.192   6.609  3.3500  0.0643 -0.0593
12781SOL    HW240018   3.250   3.242   6.739  0.2655 -1.0855  1.9173
12782SOL     OW40019   1.847   6.810   6.518  0.3229 -0.1398 -0.2445
12782SOL    HW140020   1.935   6.772   6.523  0.1858 -0.4576 -0.2628
12782SOL    HW240021   1.788   6.735   6.511 -0.0517  0.0084  1.0425
12783SOL     OW40022   5.165   3.710   8.280 -0.0232  0.0496  0.0327
12783SOL    HW140023   5.168   3.776   8.349 -0.7482  0.4614 -0.3256
12783SOL    HW240024   5.237   3.733   8.221  0.6729 -0.3719  0.6981
12784SOL     OW40025   1.715   1.595   0.646 -0.5728  0.0668  0.5760
12784SOL    HW140026   1.810   1.604   0.641 -0.7376  0.9533 -2.5297
12784SOL    HW240027   1.697   1.509   0.610 -1.0617  1.4448 -2.8839
12785SOL     OW40028   1.111   4.102   9.022  0.2217 -0.1149 -0.6318
12785SOL    HW140029   1.207   4.096   9.030  0.2769  0.6663 -0.6404
12785SOL    HW240030   1.085   4.020   8.980  0.6185 -1.5247  1.6456
12786SOL     OW40031   8.331   7.294   1.877 -0.0146 -0.1628  0.2588
12786SOL    HW140032   8.310   7.370   1.823 -0.0452 -0.7237 -0.5394
12786SOL    HW240033   8.395   7.326   1.940 -1.2260  0.9209  0.9960
12787SOL     OW40034   9.408   2.410   6.263  0.0243 -0.5408  0.0882
12787SOL    HW140035   9.394   2.488   6.210  1.5471 -0.0846  0.3147
12787SOL    HW240036   9.359   2.341   6.218  1.3930 -0.2083 -2.0352
12788SOL     OW40037   8.602   5.248   7.268  0.3121 -0.5428  0.3502
12788SOL    HW140038   8.529   5.306   7.244  0.0451 -1.4305 -1.1031
12788SOL    HW240039   8.642   5.291   7.344  0.6365  2.0220 -1.1303
12789SOL     OW40040   5.475   2.283   1.615 -0.1796  0.0405 -0.1869
12789SOL    HW140041   5.467   2.210   1.553 -0.0305  1.5192 -2.0257
12789SOL    HW240042   5.433   2.357   1.571  1.4003  1.5741  0.7688
12790SOL     OW40043   1.379   3.421   6.735  0.2858  0.1321 -0.3395
12790SOL    HW140044   1.290   3.423   6.771 -0.2843  0.5608 -1.6865
12790SOL    HW240045   1.411   3.511   6.744  0.8595 -0.1763  0.7743
12791SOL     OW40046   7.804   5.363   5.810  0.1996  0.3202 -0.3142
12791SOL    HW140047   7.847   5.278   5.798 -0.0408  0.4298 -2.2688
12791SOL    HW240048   7.722   5.355   5.761 -0.0619  1.5081 -0.1008
12792SOL     OW40049   7.688   3.879   3.656 -0.3124 -0.0718  0.3546
12792SOL    HW140050   7.687   3.905   3.748  2.5923 -1.9791  1.0479
12792SOL    HW240051   7.717   3.788   3.656  1.7544  0.4136 -2.4935
12793SOL     OW40052   3.376   9.428   8.004 -0.6429 -0.3746  0.4497
12793SOL    HW140053   3.355   9.338   7.981  0.2301 -0.4311 -0.1870
12793SOL    HW240054   3.334   9.481   7.936  0.0251 -0.4003  0.0046
12794SOL     OW40055   0.839   0.611   7.124  0.3305  0.2368 -0.2353
12794SOL    HW140056   0.824   0.645   7.212  1.0808 -0.2110  0.0770
12794SOL    HW240057   0.927   0.643   7.101 -0.5645  1.9029 -1.5710
12795SOL     OW40058   4.851   0.077   8.122 -0.4086 -0.4317  0.4048
12795SOL    HW140059   4.828   0.044   8.209  0.7807  0.6965  1.1733
12795SOL    HW240060   4.849   0.172   8.130  2.9286 -0.2275  0.1689
12796SOL     OW40061   5.060   3.814   4.263 -0.2313 -0.6255 -0.5571
12796SOL    HW140062   5.155   3.799   4.261  0.2552  1.8311  0.9397
12796SOL    HW240063   5.033   3.803   4.171  1.4264 -1.6504 -0.9714
12797SOL     OW40064   0.811   1.619   4.036  0.3887 -0.1717  0.3880
12797SOL    HW140065   0.791   1.560   3.965  1.4594 -3.1040  2.3336
12797SOL    HW240066   0.897   1.591   4.067  0.7104  2.0812  1.7961
12798SOL     OW40067   3.746   0.386   9.226  0.1296  0.5316 -0.5840
12798SOL    HW140068   3.698   0.448   9.171  0.5248  1.0245 -0.3818
12798SOL    HW240069   3.838   0.403   9.207  0.2582  0.4280 -0.0687
12799SOL     OW40070   4.717   1.362   6.103  0.1372  0.5552 -0.0801
12799SOL    HW140071   4.744   1.333   6.016  0.5281  0.3037  0.1234
12799SOL    HW240072   4.645   1.423   6.087  0.8599  1.2704 -0.6276
12800SOL     OW40073   4.614   3.919   3.800 -0.0204 -0.2903  0.0357
12800SOL    HW140074   4.591   3.830   3.829  0.0515 -0.5201 -0.6005
12800SOL    HW240075   4.681   3.948   3.862  0.3283 -0.8798 -0.0645
12801SOL     OW40076   6.966   5.463   3.098  0.3204 -0.5266 -0.0610
12801SOL    HW140077   6.938   5.382   3.140  0.7289 -0.6224  0.0292
12801SOL    HW240078   6.895   5.485   3.037  0.2721 -1.0254 -0.1864
12802SOL     OW40079   6.975   7.608   5.423  0.3667  0.1803 -0.6133
12802SOL    HW140080   7.008   7.547   5.490 -2.4878  1.0706  1.7719
12802SOL    HW240081   7.020   7.690   5.441 -0.3323  0.3948  0.1911
12803SOL     OW40082   2.485   7.288   8.770  0.0945 -0.1293  0.8389
12803SOL    HW140083   2.440   7.361   8.814 -0.6979 -0.5503  0.7335
12803SOL    HW240084   2.429   7.213   8.784  1.8576 -1.2059  2.6697
12804SOL     OW40085   5.687   7.541   3.167  0.6244  0.2921 -0.7276
12804SOL    HW140086   5.780   7.520   3.179 -0.1385 -2.8086  1.0001
12804SOL    HW240087   5.647   7.456   3.146 -2.1599  0.9945  1.2184
12805SOL     OW40088   7.474   1.104   0.066  0.5220  0.0126 -0.2476
12805SOL    HW140089   7.513   1.041   0.126  1.4288 -0.6007 -1.4320
12805SOL    HW240090   7.390   1.065   0.042 -0.8108  1.2029  2.0859
12806SOL     OW40091   6.722   2.836   8.598 -0.0399 -0.6579  0.3762
12806SOL    HW140092   6.710   2.912   8.540  0.4780 -1.2664 -0.5508
12806SOL    HW240093   6.754   2.874   8.680 -0.8092  0.2234  0.2893
12807SOL     OW40094   7.758   5.362   3.382 -0.1894  0.4475 -0.2372
12807SOL    HW140095   7.686   5.326   3.331 -0.2996 -0.1145  0.3053
12807SOL    HW240096   7.716   5.400   3.460  0.0790  0.2087  0.0292
12808SOL     OW40097   9.169   6.789   5.810  0.3426  0.3914 -0.3600
12808SOL    HW140098   9.090   6.738   5.829 -0.1001  0.2336 -2.4562
12808SOL    HW240099   9.228   6.728   5.765  0.5450  1.2162 -1.2531
12809SOL     OW40100   7.978   3.391   2.865 -0.2085  0.7759 -0.0993
12809SOL    HW140101   8.062   3.346   2.856 -1.0194 -0.5127 -1.6555
12809SOL    HW240102   7.955   3.381   2.958  0.3996 -0.6116 -0.0851
12810SOL     OW40103   8.594   6.917   1.124 -0.0011 -0.1169  0.2176
12810SOL    HW140104   8.605   6.859   1.048  1.0693 -0.9041  0.9302
12810SOL    HW240105   8.597   6.858   1.199 -1.1475  0.6379  0.8863
12811SOL     OW40106   5.648   5.865   8.798 -0.5395 -0.2393  0.2638
12811SOL    HW140107   5.626   5.842   8.888 -1.9259 -1.6263 -0.3874
12811SOL    HW240108   5.736   5.829   8.784 -0.0700  0.4875  1.2020
12812SOL     OW40109   0.362   7.075   9.358  0.1709 -0.1023 -0.1541
12812SOL    HW140110   0.397   6.988   9.338  0.3029  0.2924 -1.8576
12812SOL    HW240111   0.286   7.083   9.300 -1.4233 -0.0474  1.8284
12813SOL     OW40112   9.652   9.127   8.417  0.1227  0.3258  0.2387
12813SOL    HW140113   9.715   9.194   8.443  0.0167  1.6994 -2.6850
12813SOL    HW240114   9.577   9.177   8.384 -2.3829 -1.2567  3.0867
12814SOL     OW40115   7.674   1.878   7.893  0.3957  0.8372 -0.1916
12814SOL    HW140116   7.601   1.939   7.879 -1.7595 -1.8074 -1.5969
12814SOL    HW240117   7.632   1.792   7.899  3.1414 -0.5205  2.7456
12815SOL     OW40118   8.180   8.288   5.617 -0.4468  0.0357  0.2782
12815SOL    HW140119   8.235   8.257   5.688 -0.8207  0.5032  0.7736
12815SOL    HW240120   8.235   8.350   5.569  0.6708 -2.0429 -1.3147
12816SOL     OW40121   9.581   7.560   1.322  0.0897 -0.0928  0.8804
12816SOL    HW140122   9.613   7.650   1.330  2.4832 -0.8945  1.3698
12816SOL    HW240123   9.570   7.530   1.413  1.2595 -0.8748  0.7926
12817SOL     OW40124   8.004   6.268   5.154  0.0764  0.0272  0.5540
12817SOL    HW140125   8.095   6.299   5.148 -0.0379  0.0207 -2.2974
12817SOL    HW240126   7.977   6.254   5.063 -2.1991 -1.7561  1.4113
12818SOL     OW40127   1.269   9.611   6.720  0.4053 -0.7013  0.2310
12818SOL    HW140128   1.278   9.705   6.736 -0.1968 -0.9359  2.1138
12818SOL    HW240129   1.347   9.572   6.760 -0.7911 -1.2384  2.1613
12819SOL     OW40130   4.551   8.371   7.243  0.5244  0.3662 -0.2634
12819SOL    HW140131   4.620   8.438   7.239  0.5032  0.3373 -1.2908
12819SOL    HW240132   4.594   8.290   7.217  0.5071  0.0035  0.8096
12820SOL     OW40133   9.557   5.106   8.514 -0.3356  0.7069  0.0609
12820SOL    HW140134   9.483   5.049   8.538 -0.3614  0.2949 -0.9229
12820SOL    HW240135   9.625   5.045   8.486  0.2721  1.1033  0.6748
12821SOL     OW40136   1.667   0.071   3.276  0.0061 -0.2502 -0.0228
12821SOL    HW140137   1.611   0.104   3.205 -0.8166 -0.1585  0.6535
12821SOL    HW240138   1.677   0.146   3.335 -1.0939 -0.9136  1.0410
12822SOL     OW40139   4.827   7.225   7.711 -0.4372  0.6353  0.3130
12822SOL    HW140140   4.776   7.154   7.752 -0.1860  1.2482  1.7577
12822SOL    HW240141   4.865   7.272   7.785 -0.8783  2.5021 -0.6051
12823SOL     OW40142   3.969   8.107   5.230 -0.1527  0.1180 -0.0246
12823SOL    HW140143   3.957   8.017   5.201 -0.1147 -0.3029  1.1783
12823SOL    HW240144   3.882   8.146   5.222  0.0440  0.2958 -1.5088
12824SOL     OW40145   7.113   5.743   6.544 -0.3429  0.1662  0.4348
12824SOL    HW140146   7.164   5.728   6.465  1.3288 -1.2330  1.6809
12824SOL    HW240147   7.175   5.782   6.606 -1.4124  0.5827  1.2869
12825SOL     OW40148   2.480   7.888   5.108  0.4529 -0.5736  0.2391
12825SOL    HW140149   2.505   7.970   5.065  0.2999 -0.5215  0.2473
12825SOL    HW240150   2.408   7.913   5.165 -0.3113 -0.9081 -0.5533
12826SOL     OW40151   7.007   0.986   3.786  0.0606 -0.4089  0.4452
12826SOL    HW140152   7.029   0.897   3.759  0.8681 -0.1069  0.0603
12826SOL    HW240153   7.023   1.040   3.709 -0.4978  0.0596  0.6511
12827SOL     OW40154   9.369   5.248   8.726  0.5295  0.0587 -0.0298
12827SOL    HW140155   9.438   5.189   8.697  1.4934  1.4077 -0.6389
12827SOL    HW240156   9.319   5.268   8.647 -0.2009 -0.4343  0.2930
12828SOL     OW40157   0.379   7.350   5.654  0.1335  0.5234  0.7883
12828SOL    HW140158   0.345   7.404   5.725 -1.4762 -0.2656  0.6594
12828SOL    HW240159   0.340   7.264   5.669  3.9957 -1.2550  2.0525
12829SOL     OW40160   1.364   6.652   8.953 -0.2676  0.4552  0.7763
12829SOL    HW140161   1.359   6.665   8.858 -0.2341 -1.8428  0.4114
12829SOL    HW240162   1.450   6.685   8.977  0.3928 -0.4426 -0.2810
12830SOL     OW40163   3.423   4.146   6.630 -0.3129  0.5130 -0.3403
12830SOL    HW140164   3.370   4.221   6.657 -0.1555  0.5656 -0.1724
12830SOL    HW240165   3.500   4.184   6.588 -0.3373  0.4415 -0.4500
12831SOL     OW40166   1.209   9.486   3.722  0.0170 -0.4188 -0.0323
12831SOL    HW140167   1.215   9.531   3.806  0.8000  0.9623 -0.8020
12831SOL    HW240168   1.267   9.411   3.730 -0.0979 -0.4282  0.7309
12832SOL     OW40169   4.225   2.989   3.713  1.0055 -0.1427 -0.1406
12832SOL    HW140170   4.249   2.912   3.661 -3.6268 -1.6687 -0.5058
12832SOL    HW240171   4.222   3.061   3.650 -0.3178 -1.0281 -1.1399
12833SOL     OW40172   2.798   9.196   7.704  0.0477  0.1060 -0.1869
12833SOL    HW140173   2.869   9.258   7.688  0.2939 -0.3999 -1.1285
12833SOL    HW240174   2.721   9.239   7.666  0.3874 -0.5292 -1.6529
12834SOL     OW40175   4.874   4.535   3.384  0.3436  0.0531  0.2907
12834SOL    HW140176   4.824   4.592   3.325  1.3281  0.4699 -0.1672
12834SOL    HW240177   4.910   4.467   3.327  3.2591  1.7534 -0.1177
12835SOL     OW40178   3.603   5.770   8.808 -0.0857 -0.5883  0.3434
12835SOL    HW140179   3.549   5.699   8.775  0.1188 -0.9740  0.8214
12835SOL    HW240180   3.610   5.753   8.902  0.7092 -0.4422  0.3213
12836SOL     OW40181   1.324   9.315   9.086  0.0790  0.1242  0.3565
12836SOL    HW140182   1.333   9.241   9.146 -1.9257 -1.2382 -0.8841
12836SOL    HW240183   1.262   9.374   9.129 -0.3002 -0.1872  0.2461
12837SOL     OW40184   7.955   9.005   6.666  0.3805  0.5942 -0.1213
12837SOL    HW140185   7.911   8.952   6.600  1.2408 -0.6934  0.2925
12837SOL    HW240186   8.032   9.040   6.620  1.5847 -1.1878  0.4121
12838SOL     OW40187   4.185   1.113   3.109  0.6901 -0.3536  0.6776
12838SOL    HW140188   4.194   1.048   3.039  1.3233  0.7058 -0.2558
12838SOL    HW240189   4.127   1.071   3.173  1.0537 -1.8142  0.0932
12839SOL     OW40190   6.325   2.200   0.571 -0.5354  0.0391  0.3186
12839SOL    HW140191   6.337   2.112   0.537 -0.4401  0.2543 -0.2158
12839SOL    HW240192   6.328   2.257   0.494  1.7309  0.7395  0.8517
12840SOL     OW40193   6.086   3.069   0.541  0.4203 -0.2901 -0.1800
12840SOL    HW140194   6.181   3.076   0.545  0.5218 -1.7454  0.4372
12840SOL    HW240195   6.063   3.109   0.456  1.6432 -0.5867 -0.6768
12841SOL     OW40196   4.029   4.493   2.836  0.1294  0.7175  0.2882
12841SOL    HW140197   4.056   4.553   2.768 -0.6401  0.2680 -0.4360
12841SOL    HW240198   3.960   4.539   2.884  0.1013  0.7200  0.2448
12842SOL     OW40199   4.895   7.376   3.555 -0.0732  0.1119 -0.1865
12842SOL    HW140200   4.969   7.434   3.571 -0.0869  0.1506 -0.2635
12842SOL    HW240201   4.838   7.389   3.631  1.7566 -2.7556  1.9212
12843SOL     OW40202   3.667   2.189   7.653  0.4439  0.3974  0.3253
12843SOL    HW140203   3.714   2.218   7.575 -0.9834  1.3976 -0.2057
12843SOL    HW240204   3.632   2.103   7.628 -0.1240  0.7704 -0.2238
12844SOL     OW40205   3.135   6.371   1.408 -0.7580 -0.3986 -0.1922
12844SOL    HW140206   3.140   6.340   1.317  2.1140  1.0199 -0.6002
12844SOL    HW240207   3.097   6.459   1.401  0.3934  0.1097 -0.1488
12845SOL     OW40208   1.835   2.707   5.326  0.3455  0.2288  0.2431
12845SOL    HW140209   1.926   2.738   5.329  0.2576  0.3888  2.9526
12845SOL    HW240210   1.831   2.656   5.245  2.4652  1.3237 -0.6474
12846SOL     OW40211   2.533   4.017   3.021  0.0025 -0.1824  0.1844
12846SOL    HW140212   2.511   4.008   2.928 -0.1496  1.8424 -0.0361
12846SOL    HW240213   2.616   4.066   3.021  0.4243 -0.8728  1.1131
12847SOL     OW40214   2.973   4.825   2.910 -0.3329 -0.3941 -0.1476
12847SOL    HW140215   3.012   4.912   2.912  1.2838 -1.0018 -1.9227
12847SOL    HW240216   2.881   4.841   2.888 -0.0506  0.8668 -0.4857
12848SOL     OW40217   7.181   1.708   1.324 -0.2401  0.1302  0.0841
12848SOL    HW140218   7.268   1.684   1.292 -0.7673 -0.7753 -0.7495
12848SOL    HW240219   7.196   1.748   1.409  1.2375  2.4639 -1.1695
12849SOL     OW40220   0.864   0.642   3.814  0.0365  0.2234 -0.2379
12849SOL    HW140221   0.931   0.708   3.828 -0.5924  1.2227 -1.6763
12849SOL    HW240222   0.828   0.625   3.901  2.6861 -1.0020  0.7288
12850SOL     OW40223   1.690   2.173   9.456  0.6451 -0.4838  0.5130
12850SOL    HW140224   1.673   2.194   9.548 -0.5004  1.2100 -0.0493
12850SOL    HW240225   1.648   2.243   9.407  2.0423 -0.8394 -1.2934
12851SOL     OW40226   6.311   2.018   6.529  0.2169  0.3879  0.2863
12851SOL    HW140227   6.334   2.063   6.447  1.4493  0.2695  0.5547
12851SOL    HW240228   6.218   1.998   6.519  0.1100  1.2534 -0.6691
12852SOL     OW40229   7.631   6.739   6.201  0.1142 -0.2266 -0.2903
12852SOL    HW140230   7.613   6.660   6.150  0.6460  0.2643 -1.2830
12852SOL    HW240231   7.586   6.808   6.153  0.0228  0.1412  0.3215
12853SOL     OW40232   1.378   7.709   3.391  0.2196 -0.1400  0.0099
12853SOL    HW140233   1.337   7.736   3.472 -0.8887 -0.3675 -0.4573
12853SOL    HW240234   1.468   7.686   3.416 -0.3484 -1.0804  1.3434
12854SOL     OW40235   2.919   8.914   5.419  0.4554  0.0516  0.7114
12854SOL    HW140236   2.972   8.965   5.480  0.7092  0.1964  0.3756
12854SOL    HW240237   2.862   8.861   5.475  0.7805  0.0780  1.0742
12855SOL     OW40238   1.858   3.084   5.017  0.2247  0.2653  0.7662
12855SOL    HW140239   1.914   3.026   4.966  0.6248  0.0954  1.3912
12855SOL    HW240240   1.906   3.098   5.098 -1.1975 -0.9105  1.8680
12856SOL     OW40241   1.812   4.507   9.528  0.0750 -0.1751  0.8715
12856SOL    HW140242   1.856   4.491   9.445 -0.6698 -0.4372  0.5125
12856SOL    HW240243   1.849   4.443   9.588  0.0901 -0.4814  0.5403
12857SOL     OW40244   9.567   4.530   7.515  0.1050 -0.6436  0.6342
12857SOL    HW140245   9.482   4.538   7.557 -0.1126  0.1489  0.0701
12857SOL    HW240246   9.581   4.615   7.472  0.6861 -1.1358 -0.1857
12858SOL     OW40247   6.119   5.788   3.252  0.2250 -0.4594  0.3316
12858SOL    HW140248   6.154   5.745   3.174  1.5062 -0.1889  0.7298
12858SOL    HW240249   6.166   5.872   3.256 -0.3347 -0.1720  1.0080
12859SOL     OW40250   1.676   8.076   5.212  0.0670 -0.7863 -0.2829
12859SOL    HW140251   1.591   8.117   5.220 -0.5240 -2.2063  1.1858
12859SOL    HW240252   1.739   8.148   5.217 -1.0091  0.2976 -1.6295
12860SOL     OW40253   4.988   8.117   3.892  0.9076 -0.1226 -0.3720
12860SOL    HW140254   5.025   8.169   3.964  1.8427 -0.8867 -0.2825
12860SOL    HW240255   4.991   8.027   3.924  0.1274 -0.3345 -0.8750
12861SOL     OW40256   9.411   2.997   3.845 -0.0963 -0.1798 -0.1266
12861SOL    HW140257   9.454   2.916   3.819 -2.1191 -0.5033 -2.9176
12861SOL    HW240258   9.348   2.970   3.912  0.0232 -0.7272 -0.2315
12862SOL     OW40259   4.315   5.285   4.912  0.4882  0.4169 -0.3062
12862SOL    HW140260   4.274   5.256   4.830 -0.6627  0.3140  0.2956
12862SOL    HW240261   4.350   5.372   4.892 -0.2072  0.5939 -0.7773
12863SOL     OW40262   4.380   4.900   9.330  0.1598 -0.1577 -0.0178
12863SOL    HW140263   4.425   4.982   9.353 -0.0689 -0.2980  0.9738
12863SOL    HW240264   4.443   4.831   9.350 -0.6748 -0.4036  2.0436
12864SOL     OW40265   0.207   9.275   8.436 -0.1477 -0.8450  0.2655
12864SOL    HW140266   0.274   9.268   8.503 -0.0449 -1.5985  0.0910
12864SOL    HW240267   0.248   9.241   8.357 -0.5506 -0.7827  0.0232
12865SOL     OW40268   6.035   7.612   8.136 -0.5670  0.1776 -0.5491
12865SOL    HW140269   6.041   7.651   8.224 -1.0179  0.9400 -0.8546
12865SOL    HW240270   6.109   7.552   8.133 -1.3260 -0.9099  0.8705
12866SOL     OW40271   0.389   5.043   7.415  0.3016  0.0993 -0.4132
12866SOL    HW140272   0.354   5.031   7.327 -0.1777 -0.7139 -0.1326
12866SOL    HW240273   0.338   5.115   7.452 -0.9651 -0.8937 -0.1073
12867SOL     OW40274   7.386   3.235   4.535  0.2871 -0.5020  0.1192
12867SOL    HW140275   7.464   3.250   4.588 -0.1532  1.7831  0.2181
12867SOL    HW240276   7.316   3.222   4.599  0.4063 -1.7078  0.0324
12868SOL     OW40277   7.713   2.646   7.916  0.1906  0.3728 -0.4585
12868SOL    HW140278   7.784   2.686   7.865 -0.3282  0.8565 -0.8124
12868SOL    HW240279   7.754   2.571   7.959  0.9667  0.7614 -0.4967
12869SOL     OW40280   7.886   5.580   2.636 -0.9139  0.6269 -0.1313
12869SOL    HW140281   7.887   5.647   2.705 -0.1112  2.2486 -1.6296
12869SOL    HW240282   7.964   5.526   2.655 -0.5226  1.2431  0.0535
12870SOL     OW40283   6.488   5.025   1.274  0.0753  0.0734 -0.4120
12870SOL    HW140284   6.402   4.991   1.247 -0.3061  0.1812  0.5961
12870SOL    HW240285   6.551   4.961   1.241 -0.4755 -0.4852 -0.3958
12871SOL     OW40286   0.713   6.894   7.287  0.0986 -0.4526 -0.8246
12871SOL    HW140287   0.677   6.978   7.256 -0.6120 -0.6465 -0.5470
12871SOL    HW240288   0.638   6.849   7.325  1.1740  0.4088  2.6227
12872SOL     OW40289   1.179   4.599   8.208 -0.4610 -0.0213 -0.3970
12872SOL    HW140290   1.200   4.657   8.281 -0.3591 -0.3979 -0.1214
12872SOL    HW240291   1.257   4.545   8.197 -0.6376 -0.2554 -0.5045
12873SOL     OW40292   3.184   4.942   3.720 -0.0718  0.3908  0.1268
12873SOL    HW140293   3.149   5.015   3.771 -1.4570 -0.1055 -0.0564
12873SOL    HW240294   3.108   4.886   3.703  0.7362 -0.4916 -0.7469
12874SOL     OW40295   8.694   4.698   0.348  0.4242  0.2707  0.2044
12874SOL    HW140296   8.607   4.703   0.385  0.1425  1.0520 -0.5347
12874SOL    HW240297   8.718   4.788   0.328  1.4280  0.0743  0.4528
12875SOL     OW40298   6.382   6.944   6.807  0.0511  0.2260 -0.4327
12875SOL    HW140299   6.427   6.940   6.891 -0.2076  2.3164 -0.1499
12875SOL    HW240300   6.443   6.988   6.748 -1.5342  3.2298 -0.0018
12876SOL     OW40301   6.281   8.077   3.139 -0.3517  1.2482 -0.1706
12876SOL    HW140302   6.262   8.157   3.187  0.7596  1.3099  0.2080
12876SOL    HW240303   6.367   8.050   3.171 -0.5620  0.0787 -0.5279
12877SOL     OW40304   1.320   6.706   3.698  0.3509  0.2784  0.6868
12877SOL    HW140305   1.391   6.645   3.683 -0.8952 -0.7081 -1.7439
12877SOL    HW240306   1.325   6.768   3.625  0.3432  1.8982  1.9939
12878SOL     OW40307   5.085   6.307   2.281 -0.0791  0.0494  0.1625
12878SOL    HW140308   5.071   6.382   2.339 -1.6779 -0.0337 -0.0743
12878SOL    HW240309   5.016   6.245   2.306  1.2932 -1.4223  0.4587
12879SOL     OW40310   4.128   2.247   8.233  0.4183 -0.4744 -0.6633
12879SOL    HW140311   4.222   2.265   8.235  0.4958 -0.9208  0.6529
12879SOL    HW240312   4.111   2.223   8.142  1.1728  1.5609 -1.4237
12880SOL     OW40313   7.192   4.647   0.102  0.1048 -0.3053  0.1620
12880SOL    HW140314   7.126   4.584   0.074  0.3322 -1.1155  1.3600
12880SOL    HW240315   7.229   4.681   0.021 -2.3863  0.8700 -0.5645
12881SOL     OW40316   1.963   0.856   3.720  0.3194 -0.0912 -0.0737
12881SOL    HW140317   2.025   0.867   3.648  1.3183 -0.5594  0.6896
12881SOL    HW240318   2.017   0.831   3.794 -0.2376  3.4672  1.7359
12882SOL     OW40319   0.628   8.519   2.391 -0.5874 -0.0575  0.0651
12882SOL    HW140320   0.595   8.460   2.323 -2.4026  1.8881 -0.8461
12882SOL    HW240321   0.673   8.588   2.343 -1.4956  1.1054  0.8408
12883SOL     OW40322   7.620   6.791   2.584  0.0345 -0.1422 -0.0675
12883SOL    HW140323   7.675   6.740   2.643  1.7400  0.3372 -1.1502
12883SOL    HW240324   7.678   6.814   2.511 -1.4069  1.0718 -0.9033
12884SOL     OW40325   0.347   0.816   3.790 -0.1487 -0.8284  0.0006
12884SOL    HW140326   0.429   0.849   3.827 -0.5881  1.0860 -0.6090
12884SOL    HW240327   0.330   0.873   3.716 -2.1063 -1.0999  0.1927
12885SOL     OW40328   2.534   4.780   1.593  0.4098 -0.7865  0.4863
12885SOL    HW140329   2.537   4.685   1.605 -1.2400 -1.1107 -1.2883
12885SOL    HW240330   2.458   4.809   1.643  1.9545 -0.0658  2.5619
12886SOL     OW40331   5.020   5.246   6.984 -0.1000 -0.1246  0.1392
12886SOL    HW140332   5.026   5.327   7.036  0.3451 -0.8869  1.3130
12886SOL    HW240333   5.110   5.231   6.954  0.0839 -0.8778  1.0321
12887SOL     OW40334   3.640   5.025   2.391 -0.0087  0.3084 -0.1095
12887SOL    HW140335   3.577   4.985   2.451  3.0078  0.7244  3.7203
12887SOL    HW240336   3.692   4.952   2.358  1.4054  0.4155  1.7648
12888SOL     OW40337   9.318   3.443   4.653 -0.5957 -0.1231  0.4353
12888SOL    HW140338   9.304   3.441   4.558  3.1480  0.5251 -0.3025
12888SOL    HW240339   9.281   3.526   4.682  0.7048  1.0247 -1.0371
12889SOL     OW40340   3.529   7.129   6.707 -0.1782  0.1718 -0.1233
12889SOL    HW140341   3.470   7.153   6.779 -4.1293  0.1240 -3.0110
12889SOL    HW240342   3.580   7.208   6.691 -1.8296  1.4272  0.4957
12890SOL     OW40343   6.157   3.385   3.301 -0.1527  0.4044 -0.3852
12890SOL    HW140344   6.158   3.461   3.242 -3.7981  0.0709 -1.0728
12890SOL    HW240345   6.216   3.322   3.260 -0.5832  1.1729 -2.2643
12891SOL     OW40346   5.327   8.648   1.367 -1.0091  0.5634 -0.5001
12891SOL    HW140347   5.273   8.570   1.354 -0.4172 -0.1147  0.8417
12891SOL    HW240348   5.412   8.613   1.396 -0.8861  1.7178  0.6004
12892SOL     OW40349   6.925   8.626   8.986 -0.2613 -0.3253 -0.2864
12892SOL    HW140350   6.837   8.657   9.007  0.9195  1.7038  2.1882
12892SOL    HW240351   6.977   8.706   8.977  1.6516 -1.5051 -0.2052
12893SOL     OW40352   0.979   4.045   4.918 -0.1361  0.1889  0.0820
12893SOL    HW140353   0.962   4.047   5.013 -1.1380 -1.9830  0.0115
12893SOL    HW240354   0.931   4.120   4.883  0.1155  0.9295  1.2663
12894SOL     OW40355   3.096   3.636   2.613 -0.1248 -0.0319 -0.3574
12894SOL    HW140356   3.066   3.716   2.570  2.3287  0.4516 -1.3140
12894SOL    HW240357   3.103   3.572   2.541  1.6492  0.0554 -0.2847
12895SOL     OW40358   7.295   0.110   9.166 -0.3381 -0.1452  0.1191
12895SOL    HW140359   7.273   0.181   9.106 -1.2961 -0.8918 -0.4580
12895SOL    HW240360   7.285   0.030   9.113  0.9417 -0.7088  0.6755
12896SOL     OW40361   9.073   7.790   8.353  0.1453  0.4394  0.4733
12896SOL    HW140362   9.027   7.842   8.418  1.5722  0.2201  1.7128
12896SOL    HW240363   9.089   7.706   8.396  1.3305  0.3709 -0.0453
12897SOL     OW40364   4.053   0.651   4.711  0.0242  0.6606 -0.0580
12897SOL    HW140365   4.019   0.625   4.796 -1.1401 -1.5019 -1.0829
12897SOL    HW240366   4.011   0.735   4.693  0.3109  1.1599  1.4870
12898SOL     OW40367   2.523   3.938   7.151 -0.1344  0.1272 -0.0627
12898SOL    HW140368   2.486   4.004   7.092 -2.0312 -1.4313 -0.6993
12898SOL    HW240369   2.483   3.957   7.236 -0.1681  0.2146 -0.0980
12899SOL     OW40370   2.163   4.860   5.382  0.1410 -0.0744  0.3229
12899SOL    HW140371   2.207   4.833   5.301  0.7136 -0.0133  0.6131
12899SOL    HW240372   2.072   4.833   5.369  0.2716 -0.2626 -0.2527
12900SOL     OW40373   2.005   5.518   0.422  0.5459 -0.5230  0.4006
12900SOL    HW140374   1.942   5.487   0.357  0.6281  1.1729 -0.5618
12900SOL    HW240375   1.951   5.557   0.491  0.4954  0.7895 -0.3485
12901SOL     OW40376   0.263   6.331   7.960  0.1922  0.1776  0.1237
12901SOL    HW140377   0.196   6.276   7.921  0.7636 -0.4820  0.0607
12901SOL    HW240378   0.338   6.325   7.900  0.5879  0.2760  0.5980
12902SOL     OW40379   1.527   6.398   7.613 -0.0276 -0.2471 -0.3469
12902SOL    HW140380   1.499   6.442   7.694  0.4163 -1.9385  0.7727
12902SOL    HW240381   1.566   6.316   7.643  1.1092 -0.4373 -2.2303
12903SOL     OW40382   0.443   7.517   8.414  0.1927 -0.2820  0.0202
12903SOL    HW140383   0.484   7.515   8.500  0.4837  1.9508 -0.0148
12903SOL    HW240384   0.408   7.606   8.405 -0.5770 -0.7054 -1.8328
12904SOL     OW40385   2.552   6.506   9.106  0.2792 -0.2839 -0.4872
12904SOL    HW140386   2.605   6.584   9.120  0.5508 -0.8221  1.9826
12904SOL    HW240387   2.470   6.539   9.068  0.9748  0.9844 -0.9509
12905SOL     OW40388   1.435   0.960   8.827 -0.3276 -0.0831 -0.1755
12905SOL    HW140389   1.450   1.039   8.775  1.2572 -0.1194  0.1747
12905SOL    HW240390   1.491   0.894   8.788 -0.9030 -0.7794  0.1474
12906SOL     OW40391   6.422   4.428   7.667 -0.6932 -0.1070 -0.3661
12906SOL    HW140392   6.385   4.508   7.629  0.9065  0.5261 -0.6554
12906SOL    HW240393   6.469   4.458   7.745 -2.1967 -1.1209  0.9995
12907SOL     OW40394   4.161   9.284   0.500 -0.1152 -0.3955 -0.3098
12907SOL    HW140395   4.201   9.267   0.585 -1.6017 -1.4412  0.2136
12907SOL    HW240396   4.207   9.225   0.440  2.7866  2.2053 -0.8469
12908SOL     OW40397   7.455   8.255   6.547 -0.1500 -0.5080 -0.4300
12908SOL    HW140398   7.404   8.332   6.522 -0.6760  0.5234  3.1692
12908SOL    HW240399   7.390   8.197   6.589  0.8249 -1.3582 -0.0527
12909SOL     OW40400   9.158   2.774   0.737  0.5264 -0.3906  0.0820
12909SOL    HW140401   9.122   2.775   0.649  1.5463 -1.8572 -0.3923
12909SOL    HW240402   9.088   2.807   0.793 -0.4895 -0.4239 -1.1519
12910SOL     OW40403   3.888   3.553   0.633 -0.0226 -0.2395 -0.0763
12910SOL    HW140404   3.913   3.638   0.670  0.4125  0.8813 -2.7487
12910SOL    HW240405   3.799   3.538   0.665 -0.4657  1.6977 -0.2737
12911SOL     OW40406   9.627   8.673   3.838 -0.0571 -0.3442 -0.2730
12911SOL    HW140407   9.654   8.637   3.753  1.6418 -1.7254  0.7801
12911SOL    HW240408   9.540   8.636   3.853 -0.4414  0.0337 -1.4454
12912SOL     OW40409   9.359   5.832   4.728 -0.2797 -0.2694  0.1056
12912SOL    HW140410   9.424   5.903   4.731 -1.1633  0.5826 -0.5492
12912SOL    HW240411   9.354   5.807   4.636 -1.5615  0.3229  0.0004
12913SOL     OW40412   1.384   3.867   3.730  0.0397 -0.0393  0.0633
12913SOL    HW140413   1.372   3.931   3.661  1.1502 -0.4736 -0.5520
12913SOL    HW240414   1.456   3.901   3.783 -0.3897 -0.0228  0.6562
12914SOL     OW40415   7.236   5.192   7.232  0.1698  0.6182 -0.3113
12914SOL    HW140416   7.314   5.144   7.258  0.7227  1.2793 -0.7175
12914SOL    HW240417   7.229   5.179   7.138 -0.3257  0.4076 -0.2519
12915SOL     OW40418   4.003   0.132   7.201 -0.5826  0.9644  0.1920
12915SOL    HW140419   3.949   0.167   7.129 -0.0636  0.9857 -0.1882
12915SOL    HW240420   4.046   0.208   7.238  2.3531  0.5791 -2.0973
12916SOL     OW40421   1.931   6.045   4.231 -0.9899  0.1936 -0.8625
12916SOL    HW140422   1.948   5.983   4.160 -1.4476 -0.3285 -0.5194
12916SOL    HW240423   1.840   6.070   4.219 -0.4921  1.7440 -1.7237
12917SOL     OW40424   2.484   5.943   8.427  0.1789 -0.0920 -0.4227
12917SOL    HW140425   2.434   5.922   8.348 -1.9839  2.0619  0.2370
12917SOL    HW240426   2.422   5.928   8.499 -0.7680  5.2023  0.2818
12918SOL     OW40427   4.810   3.003   2.130  0.0183 -0.5797 -0.4993
12918SOL    HW140428   4.774   2.924   2.172 -0.0014 -0.5792 -0.5151
12918SOL    HW240429   4.822   3.065   2.202  1.4290 -1.1000 -0.2455
12919SOL     OW40430   6.229   5.940   1.019 -0.1278 -0.1142  0.2645
12919SOL    HW140431   6.200   5.874   0.955  1.9593 -1.0785  0.2499
12919SOL    HW240432   6.206   6.023   0.978 -1.7996 -0.7542 -0.2305
12920SOL     OW40433   8.141   8.239   1.212 -0.6037  0.4071 -0.0394
12920SOL    HW140434   8.056   8.224   1.253  0.0556  0.3061  1.3387
12920SOL    HW240435   8.129   8.209   1.122 -1.7976 -0.3624  0.3461
12921SOL     OW40436   8.117   9.570   9.255  0.2382 -0.6616  0.3208
12921SOL    HW140437   8.033   9.548   9.297  0.3602 -1.5205  0.1465
12921SOL    HW240438   8.101   9.554   9.162 -0.1467  1.5941 -0.0621
12922SOL     OW40439   5.600   0.032   6.901 -0.5616 -0.7759 -0.5209
12922SOL    HW140440   5.527   0.061   6.846  0.7847 -0.5245 -2.2559
12922SOL    HW240441   5.657  -0.017   6.842  1.0959 -0.2704  0.5950
12923SOL     OW40442   4.461   5.613   5.197  0.1970  0.3884 -0.0077
12923SOL    HW140443   4.445   5.703   5.224 -1.2490 -0.2978  1.5983
12923SOL    HW240444   4.555   5.599   5.212  0.2376  1.3166  0.6564
12924SOL     OW40445   1.910   7.558   8.322 -0.2533  0.0892 -0.0276
12924SOL    HW140446   1.823   7.569   8.284  0.5544  1.6443 -1.5503
12924SOL    HW240447   1.927   7.464   8.317 -0.9843  0.0228 -1.7222
12925SOL     OW40448   1.418   1.876   4.769 -0.0282  0.0098 -0.1988
12925SOL    HW140449   1.362   1.849   4.696 -0.3841 -0.0691  0.1001
12925SOL    HW240450   1.479   1.939   4.731 -0.8552  0.7337 -0.3477
12926SOL     OW40451   9.472   9.388   0.218 -0.1733 -0.1644  0.0780
12926SOL    HW140452   9.408   9.317   0.213 -0.1334 -0.1593 -0.6503
12926SOL    HW240453   9.547   9.356   0.168  0.2882 -0.0568  0.6899
12927SOL     OW40454   6.167   6.031   0.686  0.1560  0.5497 -0.1614
12927SOL    HW140455   6.190   6.112   0.640 -1.1690  1.6783  1.0270
12927SOL    HW240456   6.076   6.045   0.714  0.4077 -0.6776  1.4345
12928SOL     OW40457   2.899   1.107   2.956 -0.0981 -0.5675  1.2908
12928SOL    HW140458   2.836   1.141   2.892  0.2174 -2.0809  0.1085
12928SOL    HW240459   2.844   1.067   3.024 -0.4295 -0.3142  1.1760
12929SOL     OW40460   8.863   3.427   8.261 -0.1337 -0.2622 -0.3327
12929SOL    HW140461   8.884   3.370   8.187  0.1714 -2.5361  1.3908
12929SOL    HW240462   8.797   3.378   8.310  1.9607 -0.3871  2.5893
12930SOL     OW40463   3.267   6.107   9.139  0.2032  0.2830 -0.0858
12930SOL    HW140464   3.272   6.138   9.229 -1.3985  0.3858  0.0094
12930SOL    HW240465   3.241   6.015   9.147 -1.5588  0.7063 -0.4190
12931SOL     OW40466   7.217   5.681   9.029  0.1905  0.2718 -0.0655
12931SOL    HW140467   7.288   5.625   9.000  0.1645  0.7483 -1.0660
12931SOL    HW240468   7.209   5.662   9.123 -0.5758 -2.2421 -0.5433
12932SOL     OW40469   0.167   2.533   6.774  0.3887  0.2621 -0.2514
12932SOL    HW140470   0.219   2.602   6.816  1.5225 -0.2731 -0.7169
12932SOL    HW240471   0.194   2.536   6.682  0.2741 -0.6284 -0.3257
12933SOL     OW40472   8.690   3.988   1.898  0.0569  0.7203 -0.4176
12933SOL    HW140473   8.641   3.906   1.902  0.8191  0.2911  0.4596
12933SOL    HW240474   8.700   4.006   1.805 -0.6834  0.1679 -0.6149
12934SOL     OW40475   4.175   2.274   5.048  0.2716  0.2493  0.3348
12934SOL    HW140476   4.240   2.215   5.086  0.0269  0.4157  1.0341
12934SOL    HW240477   4.179   2.258   4.954 -1.3142 -2.4975  0.6235
12935SOL     OW40478   4.062   8.572   6.005  0.0244  0.2174 -0.4350
12935SOL    HW140479   4.019   8.554   5.921 -0.9192 -0.6352  0.2174
12935SOL    HW240480   4.009   8.641   6.045  0.7909  1.0145 -0.7641
12936SOL     OW40481   6.238   8.674   8.601 -0.1660 -0.0095  0.0614
12936SOL    HW140482   6.182   8.638   8.532  0.0063  0.6187 -0.4172
12936SOL    HW240483   6.326   8.645   8.578  0.3989  2.7354 -1.8032
12937SOL     OW40484   5.433   1.752   1.668  0.3363 -0.0537 -0.3625
12937SOL    HW140485   5.477   1.692   1.607 -0.4670  0.4447 -1.4567
12937SOL    HW240486   5.484   1.833   1.663  0.7377 -0.2584  0.2472
12938SOL     OW40487   5.474   6.091   4.707  0.5705  0.0665  0.2036
12938SOL    HW140488   5.514   6.014   4.747 -1.4058 -1.7385 -1.0353
12938SOL    HW240489   5.400   6.112   4.764 -0.3968 -0.5932 -0.7531
12939SOL     OW40490   4.986   4.647   1.025 -0.0713  0.4042  0.4616
12939SOL    HW140491   5.013   4.739   1.016  3.4138 -0.3899  1.4680
12939SOL    HW240492   4.905   4.651   1.075  0.0640  2.9166  0.6006
12940SOL     OW40493   8.765   2.416   5.682  0.3955 -0.0250 -0.9137
12940SOL    HW140494   8.716   2.437   5.602 -2.8469 -0.2779  0.8292
12940SOL    HW240495   8.755   2.321   5.692  2.5023 -0.3177 -1.1797
12941SOL     OW40496   1.569   2.656   6.795  0.4448  0.2844 -0.4214
12941SOL    HW140497   1.603   2.619   6.713  1.1508  1.4993 -0.7044
12941SOL    HW240498   1.479   2.625   6.799  0.6105 -0.3633 -1.3097
12942SOL     OW40499   4.556   2.482   8.144 -0.3495  0.4386 -0.0982
12942SOL    HW140500   4.607   2.410   8.106  1.3721  0.6088  1.7206
12942SOL    HW240501   4.498   2.439   8.207  1.4303  0.6483  1.7719
12943SOL     OW40502   0.608   0.594   9.258 -0.2695 -0.0814  0.0023
12943SOL    HW140503   0.658   0.521   9.293  0.3825  0.0237 -0.6939
12943SOL    HW240504   0.538   0.553   9.207 -0.2405 -0.2107  0.0654
12944SOL     OW40505   9.658   3.087   1.169 -0.1811  0.4205 -0.6611
12944SOL    HW140506   9.660   3.071   1.263 -1.8949 -0.4691 -0.7315
12944SOL    HW240507   9.681   3.180   1.159 -0.7419  0.7246  0.7033
12945SOL     OW40508   9.347   5.991   1.786 -0.5610  0.2788 -0.4105
12945SOL    HW140509   9.274   5.973   1.726  0.6952 -0.8445 -1.7003
12945SOL    HW240510   9.386   6.072   1.753  0.5517 -0.6913 -1.6685
12946SOL     OW40511   7.214   4.494   2.685 -0.0658  0.5412  0.0104
12946SOL    HW140512   7.204   4.582   2.649  0.9892  1.6100  2.1527
12946SOL    HW240513   7.309   4.478   2.684 -0.3131 -1.4029 -2.0443
12947SOL     OW40514   2.840   0.067   5.371 -0.2239 -0.3018 -0.2073
12947SOL    HW140515   2.803   0.119   5.441  0.8344 -0.8133  0.7616
12947SOL    HW240516   2.785  -0.011   5.367 -1.1653  0.3826 -0.9487
12948SOL     OW40517   8.391   2.124   1.016 -0.3204 -0.6024  0.6426
12948SOL    HW140518   8.444   2.085   0.947  0.6684 -0.9502  1.5610
12948SOL    HW240519   8.447   2.191   1.054 -1.1096  0.0538  0.6621
12949SOL     OW40520   8.476   9.368   7.817 -0.3356  0.0070 -0.3377
12949SOL    HW140521   8.501   9.410   7.734  0.3760 -0.8388 -0.5644
12949SOL    HW240522   8.473   9.440   7.880  1.1079  0.3847 -0.6563
12950SOL     OW40523   5.181   1.872   0.947 -0.1724 -0.6977 -0.4931
12950SOL    HW140524   5.089   1.888   0.969  0.6865  2.2983  1.5048
12950SOL    HW240525   5.227   1.881   1.030  1.9879 -2.1281 -1.4460
12951SOL     OW40526   9.551   1.770   0.372  0.5077  0.4192  0.6652
12951SOL    HW140527   9.516   1.691   0.331  2.2295 -0.6605  1.1659
12951SOL    HW240528   9.636   1.783   0.330  1.3005  0.6054  2.2529
12952SOL     OW40529   3.005   2.342   2.363  0.1125 -0.3628  0.4370
12952SOL    HW140530   3.052   2.272   2.409  0.6789 -1.1403 -1.2263
12952SOL    HW240531   2.934   2.296   2.317  0.7773  0.0605 -1.0540
12953SOL     OW40532   7.468   3.394   6.886  0.3823 -0.1749 -0.2844
12953SOL    HW140533   7.513   3.425   6.965 -0.6583 -0.3643  0.3943
12953SOL    HW240534   7.425   3.313   6.913  1.2766 -1.0848 -1.4706
12954SOL     OW40535   8.502   7.101   3.656  0.2990 -0.3824  0.6958
12954SOL    HW140536   8.527   7.098   3.564 -0.8549  1.9848  0.2323
12954SOL    HW240537   8.533   7.018   3.692  2.3248 -0.6314 -1.4036
12955SOL     OW40538   7.989   2.592   8.260 -0.9561  0.3538 -0.0736
12955SOL    HW140539   7.990   2.658   8.191 -0.6060  1.0914  0.6156
12955SOL    HW240540   8.080   2.586   8.290 -0.7992 -1.1524 -0.7650
12956SOL     OW40541   6.607   7.838   9.119 -0.1683  0.1339  0.3761
12956SOL    HW140542   6.583   7.835   9.027 -0.9525  0.7090  0.5518
12956SOL    HW240543   6.702   7.824   9.120 -0.3227 -1.1126 -0.4178
12957SOL     OW40544   4.702   0.570   7.738 -0.2318  0.2845  0.7478
12957SOL    HW140545   4.786   0.569   7.784  0.9593 -2.0038 -1.2348
12957SOL    HW240546   4.670   0.480   7.743 -1.2278  0.5014 -0.7807
12958SOL     OW40547   9.289   3.995   5.001  0.1666 -0.5010  0.2522
12958SOL    HW140548   9.316   3.961   4.916  1.6309 -2.3391  1.3683
12958SOL    HW240549   9.341   4.074   5.014  1.9469 -1.6534  0.5157
12959SOL     OW40550   1.431   1.569   9.328  0.3543  0.0484  0.0458
12959SOL    HW140551   1.489   1.637   9.294 -0.0834 -1.2976 -3.9583
12959SOL    HW240552   1.343   1.600   9.306 -0.0517 -0.4598  0.9342
12960SOL     OW40553   4.510   2.338   3.049  0.1415  0.0999  0.3885
12960SOL    HW140554   4.508   2.380   2.963 -1.5635 -2.6883 -1.0826
12960SOL    HW240555   4.597   2.296   3.053 -0.7826 -2.2209 -1.4073
12961SOL     OW40556   3.821   8.405   1.591  0.2531  0.0334 -0.1478
12961SOL    HW140557   3.892   8.456   1.629  0.3135 -1.0927  1.3465
12961SOL    HW240558   3.821   8.322   1.640 -2.1715  0.0540  0.0432
12962SOL     OW40559   0.598   1.834   4.788  0.3514  0.2421  0.1056
12962SOL    HW140560   0.551   1.897   4.733  2.0502 -0.5045 -2.3931
12962SOL    HW240561   0.644   1.888   4.852 -0.1246  1.3508 -0.4618
12963SOL     OW40562   4.648   5.215   4.311 -0.0102  0.0531  0.0084
12963SOL    HW140563   4.617   5.259   4.390  1.4105 -0.8953  1.1573
12963SOL    HW240564   4.608   5.128   4.315  0.8575 -0.3448  0.2360
12964SOL     OW40565   1.625   1.732   4.333  0.1248 -0.3210 -0.0739
12964SOL    HW140566   1.667   1.707   4.415  0.0882 -0.4390 -0.0907
12964SOL    HW240567   1.540   1.768   4.359  0.5039  0.5319  0.0058
12965SOL     OW40568   5.913   9.316   7.315  0.2805 -0.4153  0.5314
12965SOL    HW140569   5.894   9.257   7.389  1.1170 -0.3407  0.8201
12965SOL    HW240570   5.861   9.281   7.243  0.7117 -1.4978  0.7147
12966SOL     OW40571   5.737   5.028   9.507 -0.3371 -0.4818 -0.1464
12966SOL    HW140572   5.687   5.105   9.480 -1.4350 -1.0087  0.3004
12966SOL    HW240573   5.779   4.996   9.427 -1.2008 -0.3637 -0.6545
12967SOL     OW40574   3.913   6.731   1.014  0.0688 -0.8713  0.0520
12967SOL    HW140575   3.880   6.734   1.104 -0.9981 -1.9148 -0.2675
12967SOL    HW240576   3.977   6.660   1.014  0.6427 -0.3617  0.1512
12968SOL     OW40577   2.457   4.637   8.810 -0.2789  0.2583 -0.1822
12968SOL    HW140578   2.411   4.564   8.852  0.2091  0.0341 -0.0257
12968SOL    HW240579   2.407   4.714   8.835 -0.4085  0.0496  0.2128
12969SOL     OW40580   1.569   7.933   1.262  0.4080 -0.4777  0.3677
12969SOL    HW140581   1.550   7.848   1.301  1.3134 -0.3461  1.1582
12969SOL    HW240582   1.535   7.997   1.325 -1.5102 -0.2149 -0.8631
12970SOL     OW40583   8.832   1.918   1.885 -0.0470  0.6016 -0.5208
12970SOL    HW140584   8.840   2.013   1.893  0.3179  0.4665  1.1733
12970SOL    HW240585   8.841   1.901   1.791  0.6978  2.1652 -0.7731
12971SOL     OW40586   5.365   2.448   5.485  0.5127  0.0596 -0.0764
12971SOL    HW140587   5.350   2.457   5.579  0.9628  1.4840 -0.1223
12971SOL    HW240588   5.288   2.489   5.445 -0.3717 -1.7829 -0.3665
12972SOL     OW40589   4.367   4.748   2.336 -0.0112 -0.3195 -0.0118
12972SOL    HW140590   4.387   4.717   2.248 -1.4257 -0.6607 -0.2410
12972SOL    HW240591   4.287   4.800   2.325 -0.3775 -0.6170  1.0996
12973SOL     OW40592   8.880   0.528   9.179 -0.3572  0.1603 -0.0424
12973SOL    HW140593   8.798   0.577   9.169  0.2380  0.9344 -1.3874
12973SOL    HW240594   8.921   0.532   9.092 -0.1617 -2.5441 -0.1623
12974SOL     OW40595   5.476   0.800   6.665 -0.3702 -0.7874  0.0412
12974SOL    HW140596   5.503   0.892   6.674 -1.1625 -0.3476 -1.7126
12974SOL    HW240597   5.405   0.802   6.602 -1.6587 -2.4301  1.3411
12975SOL     OW40598   8.497   4.554   2.906  0.0134 -0.6727 -0.7823
12975SOL    HW140599   8.407   4.530   2.883 -0.4724  1.5129 -1.3831
12975SOL    HW240600   8.500   4.649   2.896  1.7161 -0.3786  1.6675
12976SOL     OW40601   7.037   9.015   3.909 -0.0026 -0.0027 -0.0143
12976SOL    HW140602   7.127   9.003   3.877 -0.1118 -1.0153  0.0054
12976SOL    HW240603   7.023   8.941   3.969 -1.1901 -0.4716 -0.8212
12977SOL     OW40604   3.888   3.535   0.324  0.2782 -0.0583  0.5066
12977SOL    HW140605   3.852   3.620   0.348  0.3360 -0.2929  1.4813
12977SOL    HW240606   3.890   3.536   0.229 -2.4719 -0.0978  0.3669
12978SOL     OW40607   3.963   5.437   3.843 -0.4985 -0.0689  0.1933
12978SOL    HW140608   4.050   5.462   3.875 -0.2346 -0.4927 -0.1771
12978SOL    HW240609   3.924   5.387   3.915 -0.9639  1.2250  0.8730
12979SOL     OW40610   5.493   6.115   4.157 -0.1091  0.3259  0.1964
12979SOL    HW140611   5.550   6.121   4.080 -0.2115 -1.6116 -0.0791
12979SOL    HW240612   5.552   6.086   4.227 -0.5835 -1.0019  0.0755
12980SOL     OW40613   0.212   9.164   0.651 -0.5576 -0.6108  0.3098
12980SOL    HW140614   0.195   9.246   0.604  0.4399  0.6594  2.0604
12980SOL    HW240615   0.145   9.161   0.719 -0.5511 -1.2363  0.2989
12981SOL     OW40616   3.336   7.333   5.548 -0.4425  0.0787 -0.5209
12981SOL    HW140617   3.292   7.344   5.633  0.8324 -0.0947  0.1840
12981SOL    HW240618   3.278   7.376   5.485 -1.5296  0.0032  0.4029
12982SOL     OW40619   7.862   8.453   6.790  0.0618 -0.4724 -0.3971
12982SOL    HW140620   7.955   8.477   6.796 -0.1486  0.5819 -1.1689
12982SOL    HW240621   7.844   8.407   6.872  0.9725  0.3552  0.2928
12983SOL     OW40622   1.559   3.007   8.512 -0.6949 -0.5123  0.4534
12983SOL    HW140623   1.597   2.977   8.429  0.9936  2.1681  0.1571
12983SOL    HW240624   1.464   3.005   8.497 -0.4322  0.0838 -1.6375
12984SOL     OW40625   6.971   1.411   7.764 -0.2830 -0.0569  0.0814
12984SOL    HW140626   6.899   1.395   7.703 -1.9047 -1.0647  2.1234
12984SOL    HW240627   7.015   1.489   7.731 -2.3181  0.5910 -1.2527
12985SOL     OW40628   1.709   5.966   5.906  0.0002  0.5628 -0.3926
12985SOL    HW140629   1.694   5.962   6.000  1.5541 -1.4462 -0.1752
12985SOL    HW240630   1.626   5.936   5.868  0.1686 -1.0979  0.4529
12986SOL     OW40631   4.393   0.198   7.573 -0.4765  0.1751  0.2586
12986SOL    HW140632   4.374   0.120   7.624 -0.4664  0.0318  0.0445
12986SOL    HW240633   4.307   0.232   7.548 -0.5090  0.7358  1.1017
12987SOL     OW40634   0.517   0.326   3.137  0.2453 -0.5583  0.1803
12987SOL    HW140635   0.572   0.317   3.059 -0.6595  0.6792 -0.6429
12987SOL    HW240636   0.439   0.274   3.116 -0.2226  0.1918  0.0230
12988SOL     OW40637   5.377   6.865   9.433 -0.3516  0.6564 -0.5865
12988SOL    HW140638   5.385   6.782   9.481 -1.3488  0.3704 -0.9026
12988SOL    HW240639   5.387   6.840   9.342  2.7468  1.3538 -0.5405
12989SOL     OW40640   4.872   2.025   2.937 -0.0796  0.4836 -0.0862
12989SOL    HW140641   4.954   2.076   2.941  0.7823 -0.7674 -1.0599
12989SOL    HW240642   4.899   1.940   2.903 -1.7898  0.0110 -0.3155
12990SOL     OW40643   3.882   8.310   0.484  0.3260  0.0242  0.1123
12990SOL    HW140644   3.869   8.354   0.568  0.7655  2.0786 -0.8456
12990SOL    HW240645   3.794   8.300   0.448  0.2331  0.2135  0.2905
12991SOL     OW40646   4.861   7.976   2.846 -0.3042 -0.0158  0.4170
12991SOL    HW140647   4.848   8.069   2.864  1.5997  0.3802  0.0046
12991SOL    HW240648   4.861   7.934   2.932 -2.8866  0.0650  0.5118
12992SOL     OW40649   1.577   1.550   8.430  0.4339  0.5787 -0.4583
12992SOL    HW140650   1.630   1.535   8.508  0.8349 -1.1335 -1.0197
12992SOL    HW240651   1.499   1.498   8.444  1.1326 -0.8976 -1.7781
12993SOL     OW40652   8.467   3.947   4.421  0.1115 -0.3405 -0.2148
12993SOL    HW140653   8.444   4.035   4.391 -2.1960 -0.1135  1.8753
12993SOL    HW240654   8.559   3.955   4.448 -0.2412  1.6736  0.6107
12994SOL     OW40655   7.188   4.705   6.067 -0.4193 -0.0415  0.1693
12994SOL    HW140656   7.219   4.626   6.023 -0.6564 -0.0890  0.0849
12994SOL    HW240657   7.108   4.729   6.020 -0.6599 -0.0758  0.5540
12995SOL     OW40658   7.102   0.713   7.260 -0.1613 -0.0689 -0.0162
12995SOL    HW140659   7.034   0.652   7.289 -1.3114  0.6448 -1.1474
12995SOL    HW240660   7.156   0.662   7.200 -0.3269 -0.3309  0.0554
12996SOL     OW40661   3.525   5.226   3.931 -0.1243  0.2476  0.1812
12996SOL    HW140662   3.516   5.253   4.023  3.3714  0.3399  0.6195
12996SOL    HW240663   3.531   5.130   3.935  0.2704  0.2659  0.1021
12997SOL     OW40664   7.078   3.335   1.370 -0.3022 -0.0045  0.8990
12997SOL    HW140665   7.046   3.412   1.417 -0.6880 -0.6821  1.7883
12997SOL    HW240666   7.004   3.307   1.317  0.3465  1.1564 -0.6901
12998SOL     OW40667   1.034   7.906   2.379 -0.1038  0.3026  0.4477
12998SOL    HW140668   1.048   7.827   2.431 -0.5436  0.2328  0.4575
12998SOL    HW240669   1.118   7.919   2.334 -0.6739 -1.4271 -1.2734
12999SOL     OW40670   4.845   9.106   4.363  0.9857 -0.2186  0.2363
12999SOL    HW140671   4.918   9.166   4.375  2.7799 -2.6076  2.4907
12999SOL    HW240672   4.797   9.108   4.446  0.7001 -1.3516  0.1197
13000SOL     OW40673   1.955   8.284   3.917  0.1952  0.2608 -0.5313
13000SOL    HW140674   1.923   8.348   3.853 -1.3539  0.3978  0.3409
13000SOL    HW240675   1.879   8.230   3.936  0.1128  1.2560  2.4471
13001SOL     OW40676   9.385   3.060   4.946 -0.2439 -0.0624 -0.0998
13001SOL    HW140677   9.372   3.154   4.941  0.0451 -0.0347 -0.4033
13001SOL    HW240678   9.380   3.031   4.854  0.6893 -0.1974 -0.1139
13002SOL     OW40679   2.495   0.180   1.060 -0.1450  0.1324  0.3725
13002SOL    HW140680   2.527   0.100   1.020 -0.2843 -0.2772  1.0544
13002SOL    HW240681   2.401   0.180   1.042 -0.0451  0.4600 -0.1574
13003SOL     OW40682   2.650   1.490   3.003 -0.0520  0.4621  0.1718
13003SOL    HW140683   2.737   1.502   3.040 -0.4476  1.2653  0.8507
13003SOL    HW240684   2.640   1.395   2.996  0.8884  0.3659  0.0417
13004SOL     OW40685   6.417   9.280   7.677 -0.5482 -0.2269  0.1522
13004SOL    HW140686   6.366   9.199   7.680  1.1785 -1.4442 -1.2128
13004SOL    HW240687   6.424   9.301   7.584  1.6998 -0.3480  0.2253
13005SOL     OW40688   0.038   3.878   6.089 -0.0641 -0.4943 -0.2171
13005SOL    HW140689  -0.013   3.810   6.045  0.1942 -0.1199 -1.1189
13005SOL    HW240690  -0.027   3.944   6.114 -0.2800 -0.9472  0.4292
13006SOL     OW40691   9.649   9.175   9.505 -0.0693 -0.0672 -0.2742
13006SOL    HW140692   9.602   9.160   9.423  1.5452 -1.2162 -1.0253
13006SOL    HW240693   9.711   9.103   9.512  0.7788  0.7459  1.2881
13007SOL     OW40694   1.948   8.978   6.001  0.1934  0.0732  0.2640
13007SOL    HW140695   1.917   9.061   6.037 -0.5606 -0.2140  0.3055
13007SOL    HW240696   1.879   8.951   5.940  0.9521  0.0228 -0.5893
13008SOL     OW40697   6.665   3.891   3.082  0.4094  0.2584  0.3804
13008SOL    HW140698   6.759   3.887   3.062  0.5582 -2.4851  1.2758
13008SOL    HW240699   6.632   3.961   3.025  2.5469 -0.3291 -1.7529
13009SOL     OW40700   6.915   5.505   6.365 -0.1381 -0.7055  0.7946
13009SOL    HW140701   6.862   5.553   6.428 -0.3267 -0.4195  0.4243
13009SOL    HW240702   6.990   5.473   6.415  0.1836  0.2947  0.9681
13010SOL     OW40703   0.462   8.889   7.968 -0.0999  0.0901 -0.2543
13010SOL    HW140704   0.477   8.949   7.895  1.0173 -1.1751 -1.1082
13010SOL    HW240705   0.367   8.890   7.981 -0.4600 -0.5173 -2.5047
13011SOL     OW40706   4.445   6.769   3.864  0.1936 -0.5562  0.0201
13011SOL    HW140707   4.540   6.779   3.861  0.1054  1.6194  1.6870
13011SOL    HW240708   4.423   6.719   3.785  2.4865  0.9452 -1.7017
13012SOL     OW40709   7.219   4.143   0.770  0.2161  0.5882  0.1975
13012SOL    HW140710   7.191   4.180   0.853 -1.0560  1.0609 -0.4251
13012SOL    HW240711   7.196   4.050   0.776  0.6267  0.5067  0.5736
13013SOL     OW40712   3.940   1.924   3.749  0.0448 -0.2665 -0.0500
13013SOL    HW140713   4.010   1.988   3.748  1.2132 -1.4545 -2.0078
13013SOL    HW240714   3.908   1.924   3.839  1.5372  1.3851  0.5351
13014SOL     OW40715   6.875   3.273   1.171  0.2042 -0.1208  0.1073
13014SOL    HW140716   6.861   3.182   1.197 -2.6348  0.9178  2.7539
13014SOL    HW240717   6.788   3.306   1.150  0.7544  2.5732  1.5569
13015SOL     OW40718   3.664   0.339   5.920 -0.0473  0.0376  0.2501
13015SOL    HW140719   3.715   0.362   5.998 -1.5011  2.5819  0.5552
13015SOL    HW240720   3.600   0.275   5.951  0.9964 -0.8941  0.5323
13016SOL     OW40721   7.413   4.442   4.100 -0.3915  0.7210  0.0001
13016SOL    HW140722   7.363   4.408   4.174  0.0052  2.4237  1.0858
13016SOL    HW240723   7.368   4.522   4.074 -0.0530  0.5793 -1.1131
13017SOL     OW40724   0.625   1.091   4.974  0.3744  0.4336 -0.4857
13017SOL    HW140725   0.638   1.036   4.898  0.2492  0.6640 -0.6760
13017SOL    HW240726   0.665   1.175   4.951 -0.4043  0.7711 -0.6265
13018SOL     OW40727   9.529   8.919   1.099  0.1052  0.0489  0.8052
13018SOL    HW140728   9.591   8.957   1.161  2.2370 -2.4625  0.3963
13018SOL    HW240729   9.570   8.933   1.013 -0.3375 -0.8164  0.4431
13019SOL     OW40730   6.893   1.793   7.801  0.1562  0.2775  0.1472
13019SOL    HW140731   6.985   1.815   7.815 -0.2481  1.5501  0.9442
13019SOL    HW240732   6.855   1.790   7.889 -0.8053  0.9015 -0.2310
13020SOL     OW40733   8.074   6.834   3.013  0.3232  0.8046 -0.7244
13020SOL    HW140734   8.168   6.845   3.027  0.2016 -0.2309  1.2862
13020SOL    HW240735   8.034   6.911   3.052  0.1832 -0.5439  2.0382
13021SOL     OW40736   7.841   2.740   0.449  0.0469 -0.6921 -0.2640
13021SOL    HW140737   7.749   2.756   0.469  0.2594  0.0634  0.1480
13021SOL    HW240738   7.888   2.811   0.492  1.1323 -2.7953  2.3423
13022SOL     OW40739   4.225   5.490   2.234 -0.2828 -0.7015  0.4642
13022SOL    HW140740   4.309   5.529   2.256 -0.4267 -0.5050  0.6690
13022SOL    HW240741   4.203   5.526   2.148 -0.0902 -0.8674  0.3443
13023SOL     OW40742   0.040   7.033   3.460 -0.4196  0.3619 -0.2408
13023SOL    HW140743  -0.050   7.053   3.435  0.2536  0.4808 -2.8110
13023SOL    HW240744   0.059   6.949   3.418  0.3599 -0.2280  1.1923
13024SOL     OW40745   9.564   5.042   0.656 -0.2174 -0.0819 -0.5947
13024SOL    HW140746   9.501   5.031   0.584 -0.0022  0.7512 -0.9249
13024SOL    HW240747   9.587   5.134   0.653 -0.5055  0.0518  0.8209
13025SOL     OW40748   6.467   1.673   5.271 -0.0711  0.4780 -0.2862
13025SOL    HW140749   6.553   1.666   5.312 -0.2936  0.7480  0.2432
13025SOL    HW240750   6.453   1.767   5.260  0.8455  0.3644 -2.8811
13026SOL     OW40751   8.237   0.399   1.763  0.6238  0.2586  0.3987
13026SOL    HW140752   8.159   0.344   1.771  1.7484 -1.5708 -0.6084
13026SOL    HW240753   8.207   0.478   1.717 -0.9309  0.3332  1.4788
13027SOL     OW40754   7.432   8.917   3.584 -0.3443 -0.1509  0.2223
13027SOL    HW140755   7.513   8.949   3.544 -2.1934  1.9310 -2.2147
13027SOL    HW240756   7.453   8.911   3.678  2.7789 -0.3895 -0.3667
13028SOL     OW40757   9.543   8.502   4.492  0.2062 -0.6176 -0.4588
13028SOL    HW140758   9.520   8.482   4.582 -1.8454 -1.3353 -1.0991
13028SOL    HW240759   9.594   8.426   4.463 -1.0454 -1.4403 -0.5608
13029SOL     OW40760   5.784   6.593   2.803 -0.1922  0.6630  0.0074
13029SOL    HW140761   5.808   6.685   2.813 -2.6829  1.3234  0.8388
13029SOL    HW240762   5.830   6.548   2.874  1.5505  1.1204 -0.7909
13030SOL     OW40763   2.166   8.606   1.596 -0.0488 -0.4853 -0.4755
13030SOL    HW140764   2.110   8.529   1.594 -0.5699 -0.1112 -0.6973
13030SOL    HW240765   2.154   8.647   1.510 -0.0829  0.0524 -0.2228
13031SOL     OW40766   6.276   0.790   6.978 -0.5031 -0.2192 -0.6231
13031SOL    HW140767   6.304   0.876   6.947 -1.3284  0.9928  1.7837
13031SOL    HW240768   6.200   0.768   6.925  0.1447  0.1727 -1.7434
13032SOL     OW40769   3.149   9.625   6.463 -0.2301 -0.5339  0.0470
13032SOL    HW140770   3.093   9.639   6.539  0.0542 -1.1165  0.3739
13032SOL    HW240771   3.124   9.693   6.401 -0.4555 -0.0461  0.6701
13033SOL     OW40772   4.268   7.730   5.789 -0.4925  0.5133 -0.5101
13033SOL    HW140773   4.361   7.755   5.792 -0.6534  1.1909 -0.9373
13033SOL    HW240774   4.260   7.660   5.853  0.4600 -0.0099 -0.9499
13034SOL     OW40775   9.241   8.055   6.534  0.0044  0.3174 -0.2507
13034SOL    HW140776   9.306   8.124   6.548  1.2103 -0.8492  0.1598
13034SOL    HW240777   9.262   8.020   6.448 -0.4200  0.2778 -0.3378
13035SOL     OW40778   1.072   5.797   1.734 -0.2847 -0.6184 -0.3564
13035SOL    HW140779   1.021   5.866   1.691  0.2778  0.5341  0.7541
13035SOL    HW240780   1.149   5.786   1.679  0.1815  0.4700  0.0679
13036SOL     OW40781   0.756   8.340   0.776  0.4269  0.0067 -0.1962
13036SOL    HW140782   0.681   8.331   0.717  0.4156 -0.3097 -0.1335
13036SOL    HW240783   0.719   8.330   0.864  0.2234  1.7694 -0.0451
13037SOL     OW40784   6.285   4.023   3.098  0.2473 -0.3233  0.4848
13037SOL    HW140785   6.345   4.059   3.163  0.2984  0.8289 -0.1491
13037SOL    HW240786   6.223   4.094   3.081  0.2905 -0.5490 -0.7694
13038SOL     OW40787   4.792   3.739   7.662  0.1088 -0.0427  0.6437
13038SOL    HW140788   4.882   3.751   7.631  0.1906  0.1976  0.9684
13038SOL    HW240789   4.795   3.763   7.754 -0.3507  0.2624  0.5827
13039SOL     OW40790   6.127   2.387   3.432 -0.3703 -0.3078  0.3938
13039SOL    HW140791   6.203   2.329   3.432 -0.8878 -1.1529 -2.9222
13039SOL    HW240792   6.163   2.474   3.416 -0.0079 -0.4772  0.2855
13040SOL     OW40793   4.078   2.390   3.494 -0.8104  0.7638 -0.0404
13040SOL    HW140794   3.982   2.394   3.504 -0.6779  0.1419  2.1320
13040SOL    HW240795   4.095   2.299   3.469 -0.8069  1.0567 -1.1521
13041SOL     OW40796   0.079   4.550   1.989  0.3110 -0.0357  0.7495
13041SOL    HW140797   0.034   4.594   1.917 -0.6444  0.5542  1.6915
13041SOL    HW240798   0.109   4.467   1.950 -2.0356 -0.7052  0.2076
13042SOL     OW40799   9.020   0.008   1.870 -0.3674  0.0507 -0.3895
13042SOL    HW140800   8.932   0.047   1.862 -0.3431  0.3692  0.6950
13042SOL    HW240801   9.047  -0.008   1.780 -1.8525 -0.7613 -0.7233
13043SOL     OW40802   2.204   2.694   1.716  0.4509  0.3361  0.0217
13043SOL    HW140803   2.222   2.785   1.742  0.3063  0.6341 -0.8820
13043SOL    HW240804   2.234   2.689   1.625  2.5066 -1.1335  0.7031
13044SOL     OW40805   1.656   8.283   8.623  0.3623  0.0052  0.5468
13044SOL    HW140806   1.587   8.217   8.626  1.0632 -0.8405 -0.8792
13044SOL    HW240807   1.608   8.366   8.627 -0.6173 -0.5576  1.1304
13045SOL     OW40808   4.303   3.401   3.925  0.0324  0.2738 -0.0103
13045SOL    HW140809   4.323   3.457   3.999  1.6861  0.3626 -0.4807
13045SOL    HW240810   4.386   3.356   3.906 -0.4694 -0.0896 -1.4992
13046SOL     OW40811   4.612   4.047   0.953 -0.2457 -0.1777  0.3497
13046SOL    HW140812   4.635   4.138   0.933 -0.5783  0.0721  1.0693
13046SOL    HW240813   4.582   4.011   0.870  0.4229  0.1995 -0.0687
13047SOL     OW40814   5.899   3.502   8.423  0.0027  0.3876 -0.0685
13047SOL    HW140815   5.891   3.545   8.338  0.0256  0.2854 -0.1219
13047SOL    HW240816   5.941   3.568   8.479 -2.2395  1.4237  0.5581
13048SOL     OW40817   3.514   0.119   5.993 -0.0185 -0.4894  0.3781
13048SOL    HW140818   3.439   0.078   6.038 -0.2118 -0.8620 -0.2774
13048SOL    HW240819   3.590   0.069   6.023 -0.2510 -1.3416 -0.4117
13049SOL     OW40820   7.584   9.146   5.139 -0.2644 -0.0361 -0.5412
13049SOL    HW140821   7.529   9.208   5.187  1.6061  2.3253 -1.2516
13049SOL    HW240822   7.601   9.076   5.201 -3.0409 -0.2640  0.0778
13050SOL     OW40823   1.348   8.297   6.644  0.2811  0.6070  0.5626
13050SOL    HW140824   1.379   8.212   6.614  0.0899  0.5358  0.5695
13050SOL    HW240825   1.345   8.290   6.739  1.1969  0.9390  0.6293
13051SOL     OW40826   3.194   0.291   0.359  0.4659 -0.4493 -0.0770
13051SOL    HW140827   3.276   0.249   0.335  0.1943 -1.3404  0.5125
13051SOL    HW240828   3.170   0.343   0.283  0.6701 -1.5791 -0.9338
13052SOL     OW40829   6.681   7.022   5.763  0.2497 -0.1596  0.2417
13052SOL    HW140830   6.662   7.003   5.672  0.2871  0.9308 -0.0091
13052SOL    HW240831   6.705   6.937   5.801 -1.7195 -0.9982 -0.2468
13053SOL     OW40832   9.445   6.430   8.234  0.3187 -0.8571  0.4697
13053SOL    HW140833   9.430   6.398   8.145  0.2028  2.3536 -0.7865
13053SOL    HW240834   9.535   6.405   8.254  1.0824  0.1767 -1.4444
13054SOL     OW40835   0.774   6.495   0.815 -0.1470 -0.6971  0.3369
13054SOL    HW140836   0.852   6.440   0.809 -0.2001 -0.6946 -0.5502
13054SOL    HW240837   0.721   6.455   0.883  0.9332 -0.3076  1.4414
13055SOL     OW40838   1.513   6.566   2.606 -0.4035  0.4348  0.0121
13055SOL    HW140839   1.555   6.526   2.682 -0.3470  0.1222 -0.1794
13055SOL    HW240840   1.576   6.554   2.535 -1.0919 -0.6651 -0.4456
13056SOL     OW40841   9.140   2.282   4.477 -0.2241 -0.2226  0.6267
13056SOL    HW140842   9.152   2.201   4.526 -1.4848 -0.5594  0.4072
13056SOL    HW240843   9.169   2.351   4.538  2.5681 -0.8997  0.1834
13057SOL     OW40844   9.651   5.206   6.138 -0.2307 -0.0739  0.0738
13057SOL    HW140845   9.577   5.259   6.167 -0.0807  0.0099  0.3169
13057SOL    HW240846   9.640   5.123   6.183 -1.7502 -1.1322 -2.0929
13058SOL     OW40847   5.825   1.148   9.296 -0.7465 -0.1272  0.0172
13058SOL    HW140848   5.753   1.084   9.295 -0.7959 -0.0636 -0.4184
13058SOL    HW240849   5.873   1.132   9.215  0.4156 -0.9399  0.8379
13059SOL     OW40850   6.076   8.212   5.879  0.2503 -0.5860 -0.3436
13059SOL    HW140851   6.070   8.121   5.909 -2.0198 -0.1880  0.6151
13059SOL    HW240852   6.062   8.208   5.785  2.0589 -1.3446 -0.6348
13060SOL     OW40853   4.209   6.142   6.120  0.2668 -0.2410 -0.0314
13060SOL    HW140854   4.227   6.235   6.134 -1.2428  0.2424 -0.9621
13060SOL    HW240855   4.265   6.096   6.182  0.9010  1.3006  0.5780
13061SOL     OW40856   8.259   1.229   7.579 -0.5764  0.5074  0.0603
13061SOL    HW140857   8.175   1.189   7.559  0.3004 -0.0829 -2.9886
13061SOL    HW240858   8.251   1.319   7.546 -0.2262  0.6217  0.2853
13062SOL     OW40859   8.372   5.395   2.175  0.4404 -0.2525 -0.0785
13062SOL    HW140860   8.457   5.354   2.193  0.7955  1.0705  1.5169
13062SOL    HW240861   8.391   5.465   2.114  0.3242 -0.5899 -0.5032
13063SOL     OW40862   1.671   7.182   6.102 -0.3040  0.1102  0.6394
13063SOL    HW140863   1.758   7.143   6.097 -0.1372 -0.1470  3.8879
13063SOL    HW240864   1.686   7.277   6.096  0.2281  0.0702  1.2693
13064SOL     OW40865   6.457   7.040   6.374 -0.3234  0.1367  0.5540
13064SOL    HW140866   6.443   7.106   6.442  2.5077  1.6805 -0.1803
13064SOL    HW240867   6.503   6.969   6.418 -0.5310  0.1044  0.7177
13065SOL     OW40868   2.970   8.775   1.490  0.4195 -0.5073 -0.0686
13065SOL    HW140869   2.888   8.729   1.503 -0.2966  1.1264  1.7379
13065SOL    HW240870   3.027   8.743   1.560 -0.1034  1.2538  1.2361
13066SOL     OW40871   6.703   6.446   5.112 -0.9246  0.0944  0.5816
13066SOL    HW140872   6.616   6.485   5.123 -1.5362  0.2568 -3.2493
13066SOL    HW240873   6.752   6.474   5.189 -3.4432  2.3685  1.5293
13067SOL     OW40874   8.721   7.158   0.230 -0.2900 -0.0984 -0.3182
13067SOL    HW140875   8.718   7.233   0.171  0.9656 -0.3086 -0.6872
13067SOL    HW240876   8.796   7.175   0.287 -0.2072 -0.8931 -0.1751
13068SOL     OW40877   8.898   7.657   3.197 -0.3411  0.4711  0.0900
13068SOL    HW140878   8.898   7.577   3.144 -2.3040  0.0456  0.6257
13068SOL    HW240879   8.930   7.725   3.139  2.8871 -0.8927  0.0381
13069SOL     OW40880   2.299   2.964   4.908 -0.2396  0.0848  0.2688
13069SOL    HW140881   2.298   3.048   4.953  0.0340 -0.4349  1.2778
13069SOL    HW240882   2.299   2.899   4.978  2.2593 -0.7504 -0.3908
13070SOL     OW40883   7.203   4.541   7.059  0.5336 -0.1293 -0.1944
13070SOL    HW140884   7.150   4.567   7.135  1.0396 -0.6578  0.3539
13070SOL    HW240885   7.184   4.448   7.048 -0.7667  0.2671 -1.7364
13071SOL     OW40886   9.163   7.898   3.694 -0.3582  0.7461 -0.6075
13071SOL    HW140887   9.114   7.967   3.739 -0.7450  0.2727 -0.2889
13071SOL    HW240888   9.236   7.878   3.753 -2.5813 -2.0990  1.4860
13072SOL     OW40889   4.019   6.237   6.342 -0.0120 -0.3639  0.7252
13072SOL    HW140890   4.085   6.214   6.277  0.8513 -0.7482  1.7123
13072SOL    HW240891   4.038   6.328   6.365  0.4963 -0.6261  1.3681
13073SOL     OW40892   6.960   0.953   3.318  0.2499  0.7086  0.2141
13073SOL    HW140893   7.024   1.018   3.290  0.0308  0.5587 -0.6577
13073SOL    HW240894   7.007   0.897   3.379  0.9723  0.5685 -0.4587
13074SOL     OW40895   3.880   0.700   7.245 -0.1574 -0.2118 -0.0328
13074SOL    HW140896   3.935   0.666   7.315 -2.1462  0.4091  1.9378
13074SOL    HW240897   3.809   0.746   7.290 -2.1498 -0.7262 -2.4245
13075SOL     OW40898   2.367   1.454   1.133 -0.7164  0.3122 -0.0648
13075SOL    HW140899   2.288   1.401   1.142  0.0799 -0.7153  1.1969
13075SOL    HW240900   2.367   1.482   1.041 -1.1824 -1.8936 -0.7942
13076SOL     OW40901   5.026   5.618   8.059 -0.1088  0.3643 -0.3601
13076SOL    HW140902   5.006   5.537   8.011  1.1496  0.0946 -0.4687
13076SOL    HW240903   5.121   5.627   8.051 -0.2704  2.0500 -0.6459
13077SOL     OW40904   0.529   4.644   1.839  0.0744 -0.3944 -0.1607
13077SOL    HW140905   0.437   4.651   1.813  0.2363  1.4284 -0.3592
13077SOL    HW240906   0.575   4.619   1.759 -0.2735 -1.7611  0.0400
13078SOL     OW40907   8.032   9.465   3.186  0.1030 -0.2133  0.6528
13078SOL    HW140908   7.976   9.500   3.255  1.5250  0.0111  1.7421
13078SOL    HW240909   7.997   9.378   3.169 -1.8154  0.6604 -0.1820
13079SOL     OW40910   4.126   1.834   5.806  0.6660  0.0591  0.5449
13079SOL    HW140911   4.145   1.918   5.764 -0.8885  0.4475  0.5738
13079SOL    HW240912   4.146   1.848   5.898 -2.1627  1.3139  1.0541
13080SOL     OW40913   9.033   5.267   7.151 -0.5090  0.0138  0.2662
13080SOL    HW140914   9.123   5.268   7.118 -1.2108  1.4495 -1.8149
13080SOL    HW240915   8.989   5.200   7.099 -0.7470 -0.3866  0.9804
13081SOL     OW40916   2.907   9.058   6.475  0.2301  0.0459 -0.2007
13081SOL    HW140917   2.920   9.136   6.529  0.5051 -0.4403  0.4398
13081SOL    HW240918   2.878   9.093   6.390  1.0503  0.8804 -0.1507
13082SOL     OW40919   2.888   3.387   1.611 -0.2378  0.0335  0.4668
13082SOL    HW140920   2.967   3.439   1.626 -1.0143  1.1248  0.8961
13082SOL    HW240921   2.857   3.415   1.525 -0.0008 -0.6137  0.1665
13083SOL     OW40922   7.475   6.799   1.388 -0.1107 -0.4367  0.3679
13083SOL    HW140923   7.562   6.831   1.366 -0.6340  2.1020  1.5095
13083SOL    HW240924   7.429   6.794   1.305  0.5146  0.2947 -0.0326
13084SOL     OW40925   3.068   7.176   7.857 -0.0957 -0.1228  0.3061
13084SOL    HW140926   3.038   7.242   7.921  0.0297  0.0424  0.1959
13084SOL    HW240927   3.053   7.092   7.901 -0.9260 -0.0583  0.1698
13085SOL     OW40928   5.180   9.391   9.668 -0.4218 -0.1527 -0.3250
13085SOL    HW140929   5.122   9.467   9.672  1.0656  1.0003  0.4188
13085SOL    HW240930   5.187   9.369   9.575 -0.0412  1.3131 -0.6584
13086SOL     OW40931   1.588   0.767   9.042 -0.4751 -0.1629 -0.2447
13086SOL    HW140932   1.603   0.811   9.126 -2.5389  0.5030 -0.1706
13086SOL    HW240933   1.547   0.683   9.066  1.6883 -1.3683 -0.4865
13087SOL     OW40934   6.743   4.714   8.691 -0.2704 -0.3551  0.2086
13087SOL    HW140935   6.829   4.748   8.667 -0.1155 -1.4764 -0.9153
13087SOL    HW240936   6.681   4.778   8.655  0.0653  0.1198  0.4633
13088SOL     OW40937   5.904   2.194   9.450  0.2686  0.2932  0.2140
13088SOL    HW140938   5.950   2.146   9.381 -0.0685  0.3815 -0.0729
13088SOL    HW240939   5.965   2.192   9.524  0.8409  0.6261 -0.2363
13089SOL     OW40940   2.956   2.326   3.960  0.4317 -0.5208  0.6019
13089SOL    HW140941   2.996   2.259   3.905 -1.4962 -2.2968  1.2106
13089SOL    HW240942   2.929   2.279   4.039 -1.3749  0.8540  0.8820
13090SOL     OW40943   2.461   0.322   5.840 -0.2816  0.7680 -0.4819
13090SOL    HW140944   2.525   0.384   5.805  1.6480 -1.0341 -0.3393
13090SOL    HW240945   2.449   0.257   5.770 -0.3393 -0.0596  0.2765
13091SOL     OW40946   3.551   5.357   8.670 -0.2445  0.1627  0.1117
13091SOL    HW140947   3.519   5.285   8.616  1.7867 -2.4365  2.0768
13091SOL    HW240948   3.497   5.354   8.749  0.1132  0.5243  0.3734
13092SOL     OW40949   7.943   8.806   6.466  0.4038  0.1761  0.0993
13092SOL    HW140950   8.033   8.775   6.474 -0.4903 -2.9002 -0.2414
13092SOL    HW240951   7.928   8.813   6.372 -0.3286 -1.6987  0.0231
13093SOL     OW40952   5.990   6.351   0.589  0.2015  0.7685 -0.2637
13093SOL    HW140953   5.979   6.426   0.647  0.9309  1.5751 -1.1227
13093SOL    HW240954   6.062   6.376   0.531 -0.4678 -0.0159 -1.4818
13094SOL     OW40955   4.413   3.891   3.434  0.5999 -0.1133 -0.0390
13094SOL    HW140956   4.424   3.797   3.420  0.0945 -0.0881 -0.6208
13094SOL    HW240957   4.498   3.921   3.467 -0.0201 -1.2675  2.9283
13095SOL     OW40958   9.474   6.951   8.601 -0.0905 -0.0549 -0.3503
13095SOL    HW140959   9.464   6.862   8.633 -1.0291 -0.4093 -1.5530
13095SOL    HW240960   9.406   7.001   8.647  2.0455  0.6702  2.2806
13096SOL     OW40961   8.351   2.845   6.699 -0.8281  0.5164  0.3511
13096SOL    HW140962   8.427   2.903   6.709  0.5931 -1.1232 -0.4265
13096SOL    HW240963   8.304   2.880   6.623  0.7707 -0.0821 -0.9686
13097SOL     OW40964   5.579   2.681   4.302  0.6178 -0.7286 -0.6502
13097SOL    HW140965   5.571   2.714   4.213  1.5964 -0.4290 -0.6360
13097SOL    HW240966   5.656   2.725   4.338  0.9078 -1.6862 -0.0395
13098SOL     OW40967   1.204   5.404   4.509 -0.1872 -0.2490 -0.0529
13098SOL    HW140968   1.143   5.330   4.503 -0.7003  0.2787 -1.8665
13098SOL    HW240969   1.285   5.371   4.470 -0.7496  0.4302 -1.8943
13099SOL     OW40970   1.537   5.619   0.295  0.2053 -0.0507 -0.0421
13099SOL    HW140971   1.542   5.674   0.374 -2.3769 -0.0271  0.1765
13099SOL    HW240972   1.540   5.530   0.328 -1.9610 -0.0624  0.2719
13100SOL     OW40973   0.891   5.482   5.617  0.1712  0.1069 -0.2569
13100SOL    HW140974   0.945   5.403   5.615  0.9563  0.6438 -0.8849
13100SOL    HW240975   0.823   5.466   5.552  0.7657  0.2289 -0.9323
13101SOL     OW40976   0.713   4.941   2.716  0.4078  0.4426  0.1133
13101SOL    HW140977   0.623   4.911   2.726  1.3711 -2.9314 -0.1184
13101SOL    HW240978   0.718   4.973   2.625 -0.1519 -1.0822 -0.4740
13102SOL     OW40979   7.660   4.538   1.693  0.4029 -0.2346 -0.1526
13102SOL    HW140980   7.597   4.480   1.734 -0.5414  1.8470  1.5412
13102SOL    HW240981   7.727   4.553   1.760  1.2219 -0.2037 -0.9420
13103SOL     OW40982   2.711   9.406   4.942  0.3012 -0.4877  0.9621
13103SOL    HW140983   2.675   9.320   4.960  0.2271 -0.5967  0.3077
13103SOL    HW240984   2.773   9.422   5.014 -0.4892 -0.6113  1.6790
13104SOL     OW40985   7.724   5.795   7.615 -0.3781  0.3017  0.3736
13104SOL    HW140986   7.749   5.707   7.587  0.4171  0.2853  1.0937
13104SOL    HW240987   7.702   5.785   7.707 -0.5900  0.7997  0.3791
13105SOL     OW40988   6.042   4.299   8.901  0.2791  0.0001 -0.4436
13105SOL    HW140989   6.126   4.257   8.916 -0.3254 -1.4699 -0.9550
13105SOL    HW240990   6.058   4.359   8.828  1.1299  0.5954  0.2130
13106SOL     OW40991   9.537   5.039   8.870  0.6488  0.0046  0.1179
13106SOL    HW140992   9.604   5.010   8.809  0.5537 -1.2302  0.5794
13106SOL    HW240993   9.513   4.961   8.919 -0.4306  0.6343  0.6362
13107SOL     OW40994   6.083   4.187   7.420 -0.1797  0.0783 -1.2590
13107SOL    HW140995   6.035   4.172   7.339 -1.3643 -0.8190 -0.4326
13107SOL    HW240996   6.049   4.269   7.454 -0.9889 -0.4342 -0.7985
13108SOL     OW40997   5.009   9.575   7.731 -0.4315 -0.1291 -0.4454
13108SOL    HW140998   5.080   9.538   7.679  0.5129 -0.8270  1.2959
13108SOL    HW240999   4.949   9.612   7.665  1.6550  0.7969 -1.9478
13109SOL     OW41000   5.034   3.717   1.796  0.0901  0.0507 -0.2104
13109SOL    HW141001   5.041   3.795   1.851 -0.0247  0.3731 -0.6453
13109SOL    HW241002   5.069   3.745   1.711 -1.3875  0.1069 -0.8334
13110SOL     OW41003   6.580   5.063   4.976 -0.5297  0.2192 -0.9150
13110SOL    HW141004   6.668   5.064   5.015 -0.8361  2.2636 -0.1396
13110SOL    HW241005   6.584   4.995   4.909  1.8276  0.6549 -1.3013
13111SOL     OW41006   7.565   6.754   3.394  0.3063 -0.0961 -0.5091
13111SOL    HW141007   7.624   6.705   3.452  2.3392  1.0911 -1.4753
13111SOL    HW241008   7.557   6.698   3.316  1.3227  0.3338 -0.9445
13112SOL     OW41009   3.827   1.204   1.593  1.0117 -0.4715  0.0065
13112SOL    HW141010   3.737   1.203   1.561  1.4145 -2.5417 -1.2763
13112SOL    HW241011   3.881   1.193   1.514  2.3362 -0.2055  0.8427
13113SOL     OW41012   8.429   0.724   4.088  0.0304  0.2624 -0.1261
13113SOL    HW141013   8.357   0.681   4.136  1.5284 -1.6803  0.4888
13113SOL    HW241014   8.489   0.754   4.157  1.0190 -0.3648 -0.6957
13114SOL     OW41015   5.149   5.919   1.990  0.2940  0.1730 -0.2903
13114SOL    HW141016   5.223   5.942   1.934  0.4063  0.2793 -0.0979
13114SOL    HW241017   5.093   5.997   1.988  0.6974  0.4865  0.3993
13115SOL     OW41018   6.477   5.216   6.857  0.4158 -0.1038 -0.3318
13115SOL    HW141019   6.482   5.268   6.936  0.9556 -2.2262  1.1218
13115SOL    HW241020   6.533   5.262   6.794  1.9146  0.3848  1.2947
13116SOL     OW41021   0.552   8.277   2.190  0.8551 -0.7563  0.1315
13116SOL    HW141022   0.537   8.308   2.101  1.4311  1.0733  0.6191
13116SOL    HW241023   0.479   8.219   2.209 -1.9798  2.4425  0.0618
13117SOL     OW41024   9.350   2.417   2.356  0.4691  0.0662 -0.1461
13117SOL    HW141025   9.275   2.444   2.303 -1.1792  0.0335  2.0056
13117SOL    HW241026   9.391   2.347   2.306 -1.5633 -0.6147 -0.9916
13118SOL     OW41027   9.573   6.591   2.354  0.5978 -0.5970  0.4476
13118SOL    HW141028   9.657   6.633   2.338 -0.1581  0.5411 -0.6450
13118SOL    HW241029   9.550   6.549   2.271  0.4102 -1.5180  0.9469
13119SOL     OW41030   5.308   4.417   6.893 -0.5272  0.2660  0.0574
13119SOL    HW141031   5.386   4.470   6.876 -0.1246  0.0136  1.0794
13119SOL    HW241032   5.237   4.463   6.848  0.1658  0.6217 -0.6840
13120SOL     OW41033   0.741   6.178   9.376 -0.0238 -1.0283  0.3346
13120SOL    HW141034   0.668   6.140   9.326 -0.7657 -0.2411  0.7990
13120SOL    HW241035   0.809   6.194   9.311 -1.8468  2.2629 -0.9905
13121SOL     OW41036   4.608   6.951   2.658 -0.4035  0.6618 -0.0316
13121SOL    HW141037   4.616   6.894   2.735 -0.0867  0.2955 -0.3313
13121SOL    HW241038   4.621   7.039   2.692  2.1884  0.3435 -0.0272
13122SOL     OW41039   1.845   4.051   7.436 -0.2501  0.2364  0.1700
13122SOL    HW141040   1.754   4.021   7.445  0.1246 -0.9013  0.3293
13122SOL    HW241041   1.896   3.986   7.484  0.7080  0.5075 -0.4577
13123SOL     OW41042   9.073   4.929   3.327 -0.5878 -0.3110  0.2710
13123SOL    HW141043   9.024   4.972   3.257 -0.5246 -2.0765 -0.9501
13123SOL    HW241044   9.164   4.928   3.295 -0.2675  0.3041  1.1402
13124SOL     OW41045   6.509   8.424   7.707 -0.3321  0.0224 -0.3873
13124SOL    HW141046   6.498   8.342   7.660  1.1118 -0.5187  0.1663
13124SOL    HW241047   6.566   8.402   7.781  0.6157  1.6419 -0.5870
13125SOL     OW41048   0.838   2.417   4.150  0.0403  0.7058 -0.2704
13125SOL    HW141049   0.919   2.378   4.117 -0.1793 -1.8478  1.9210
13125SOL    HW241050   0.788   2.343   4.184 -1.7905  2.5874  1.3771
13126SOL     OW41051   5.256   0.704   1.914  0.2114  0.1991  0.0696
13126SOL    HW141052   5.301   0.620   1.921 -0.9515 -0.3836  1.0025
13126SOL    HW241053   5.252   0.722   1.820 -1.4428 -1.9047 -0.3263
13127SOL     OW41054   8.040   0.426   4.581  0.8780  0.0946 -0.0479
13127SOL    HW141055   8.061   0.339   4.546  0.2884  0.6736 -1.9539
13127SOL    HW241056   7.999   0.408   4.666  0.1819 -1.5387 -0.6809
13128SOL     OW41057   1.547   8.225   3.082  0.0579 -0.0458 -0.5338
13128SOL    HW141058   1.494   8.267   3.149  1.3238 -0.2354  0.6415
13128SOL    HW241059   1.519   8.134   3.082  0.6106 -0.2315  0.3605
13129SOL     OW41060   2.691   8.340   7.162 -0.1319  0.6220 -0.7625
13129SOL    HW141061   2.779   8.370   7.183 -0.4608  0.4411  1.0983
13129SOL    HW241062   2.663   8.292   7.240 -2.2155  1.4258 -0.9459
13130SOL     OW41063   8.775   7.405   5.090 -0.3377  0.1647  0.3203
13130SOL    HW141064   8.688   7.445   5.086 -0.3671  0.0483 -0.4187
13130SOL    HW241065   8.784   7.374   5.180 -0.1529  2.2028  1.0667
13131SOL     OW41066   1.587   1.570   6.031 -0.3656 -0.0871 -0.6832
13131SOL    HW141067   1.611   1.479   6.013  1.3943 -0.1667  1.5918
13131SOL    HW241068   1.493   1.567   6.046 -0.3974 -1.4675 -0.9833
13132SOL     OW41069   5.583   5.246   9.405  0.1744  0.4884  0.2815
13132SOL    HW141070   5.605   5.238   9.312  0.3693  0.4248  0.3330
13132SOL    HW241071   5.579   5.341   9.420 -2.6014  0.5768 -0.4332
13133SOL     OW41072   6.367   1.216   0.112 -0.0749 -0.2516  0.1728
13133SOL    HW141073   6.428   1.262   0.169  1.1457 -1.3406 -0.2187
13133SOL    HW241074   6.340   1.139   0.161  0.6188 -0.9479 -0.5234
13134SOL     OW41075   8.934   5.307   9.610 -0.0302 -0.2034  0.4626
13134SOL    HW141076   9.014   5.354   9.633  1.2309 -1.9171 -0.2095
13134SOL    HW241077   8.880   5.372   9.564  1.1112  0.8803  0.6048
13135SOL     OW41078   1.994   1.308   3.184 -0.2242  0.1831  0.1976
13135SOL    HW141079   2.028   1.315   3.274  0.9322 -1.8134 -0.0257
13135SOL    HW241080   2.066   1.271   3.134 -1.7314 -1.3330 -0.9727
13136SOL     OW41081   8.066   8.386   8.100 -0.1928  0.2230  0.3685
13136SOL    HW141082   8.078   8.319   8.033 -0.4432 -1.0387  1.5538
13136SOL    HW241083   7.990   8.436   8.071 -0.1292 -0.1279 -0.4144
13137SOL     OW41084   0.341   6.811   9.054  0.6880  0.4589 -0.0533
13137SOL    HW141085   0.320   6.827   8.962  1.9995  0.9888 -0.2863
13137SOL    HW241086   0.321   6.719   9.067 -1.5518  0.8455 -0.2605
13138SOL     OW41087   8.700   3.172   9.100 -0.1069  0.7484  0.2163
13138SOL    HW141088   8.791   3.188   9.123 -0.1131 -0.1340  0.9113
13138SOL    HW241089   8.653   3.249   9.133  0.1793  0.4768  1.3189
13139SOL     OW41090   6.856   1.420   3.681 -0.0802  0.4876 -0.2354
13139SOL    HW141091   6.760   1.429   3.680 -0.6264 -3.5809 -0.2211
13139SOL    HW241092   6.875   1.376   3.764  2.1428  2.9124  0.6850
13140SOL     OW41093   4.987   7.276   2.096  0.0311 -1.5011 -0.2129
13140SOL    HW141094   4.915   7.322   2.053  0.7745 -0.5941 -0.5156
13140SOL    HW241095   5.048   7.345   2.121 -0.0821 -2.0582  1.7588
13141SOL     OW41096   9.054   0.386   0.383  0.3698  0.1205 -0.5683
13141SOL    HW141097   9.068   0.296   0.412 -0.0020  0.1200 -0.3859
13141SOL    HW241098   9.098   0.439   0.449  0.4265  0.0802 -0.5736
13142SOL     OW41099   1.196   0.048   5.266 -0.1459 -0.1967 -0.1044
13142SOL    HW141100   1.179   0.084   5.179  0.7029  0.4133 -0.0236
13142SOL    HW241101   1.287   0.018   5.263  0.4649  1.4262  1.0999
13143SOL     OW41102   4.790   6.434   4.689  0.1309  0.1596  0.2544
13143SOL    HW141103   4.806   6.342   4.713 -2.2133 -0.0249  1.4323
13143SOL    HW241104   4.757   6.474   4.770  0.7296  1.9569 -0.3545
13144SOL     OW41105   8.661   7.147   0.778 -0.3959 -0.5061  0.1822
13144SOL    HW141106   8.614   7.198   0.843 -1.3595 -1.7038  0.4645
13144SOL    HW241107   8.597   7.084   0.745  0.3979 -0.7063 -1.0756
13145SOL     OW41108   8.489   8.725   2.699  0.5055  0.1826  0.0901
13145SOL    HW141109   8.537   8.676   2.632  0.2097  0.6201 -0.4446
13145SOL    HW241110   8.501   8.817   2.675 -4.2848  0.4052 -2.8531
13146SOL     OW41111   8.617   3.124   3.393 -0.2309 -0.5822 -0.1323
13146SOL    HW141112   8.639   3.033   3.375 -0.3206 -0.5936 -0.1840
13146SOL    HW241113   8.560   3.150   3.321 -0.5156 -0.6003  0.0841
13147SOL     OW41114   5.929   6.111   4.588  0.0420 -0.1111 -0.0316
13147SOL    HW141115   5.908   6.176   4.655  1.5120 -0.7336  1.0770
13147SOL    HW241116   6.023   6.098   4.595 -0.0404 -1.4928 -1.0411
13148SOL     OW41117   8.264   6.402   7.024 -0.1310  0.4134 -0.4806
13148SOL    HW141118   8.263   6.331   7.088 -0.1849 -0.9843 -1.9590
13148SOL    HW241119   8.186   6.454   7.045 -0.1130  0.0386  0.5907
13149SOL     OW41120   8.886   1.929   4.248  0.2363  0.2819  0.3199
13149SOL    HW141121   8.898   1.869   4.175 -2.2897 -0.4489  0.4154
13149SOL    HW241122   8.793   1.953   4.245  0.5656  2.0323  1.9274
13150SOL     OW41123   2.016   6.174   7.907  0.1728  0.0425  0.3073
13150SOL    HW141124   2.067   6.094   7.921 -1.2192 -1.0042 -0.3752
13150SOL    HW241125   2.072   6.244   7.941  1.8802 -1.0852 -0.0195
13151SOL     OW41126   5.622   2.830   1.594 -0.5175 -0.1961  0.1105
13151SOL    HW141127   5.589   2.843   1.683 -1.1448 -0.3790 -0.0860
13151SOL    HW241128   5.717   2.835   1.602 -0.6027  0.7501  0.6328
13152SOL     OW41129   0.586   8.749   6.433  0.0658  0.0450  0.0025
13152SOL    HW141130   0.651   8.697   6.481  1.1079  0.2288 -1.1568
13152SOL    HW241131   0.552   8.810   6.498 -0.9066 -1.7790  1.3097
13153SOL     OW41132   5.169   0.858   4.801 -0.1909  0.2791 -0.0355
13153SOL    HW141133   5.211   0.908   4.731  1.8238 -3.1203 -1.4920
13153SOL    HW241134   5.109   0.799   4.755 -3.3502  1.8759  1.7019
13154SOL     OW41135   7.493   7.961   4.570 -0.1530  0.2077 -0.5878
13154SOL    HW141136   7.441   7.889   4.605 -2.2134  1.6407 -0.4912
13154SOL    HW241137   7.524   7.930   4.486 -2.5757 -0.2021 -1.4163
13155SOL     OW41138   2.663   1.364   7.301  0.2092  0.3535  0.4763
13155SOL    HW141139   2.592   1.305   7.275  0.5618 -0.9348  2.2447
13155SOL    HW241140   2.688   1.334   7.388  4.1409 -0.4689 -0.7343
13156SOL     OW41141   7.168   4.243   9.427  0.3388 -0.0368  0.4985
13156SOL    HW141142   7.078   4.252   9.396  0.1721  1.3920  1.2972
13156SOL    HW241143   7.193   4.332   9.454  1.6176 -0.6038  1.2904
13157SOL     OW41144   0.864   6.983   4.925  0.9595 -0.5917  0.1921
13157SOL    HW141145   0.839   6.897   4.959 -2.0451 -0.5504 -1.5082
13157SOL    HW241146   0.798   7.043   4.961  1.5029  0.5355 -0.6261
13158SOL     OW41147   6.355   8.038   4.452 -0.0069  0.2257  0.5997
13158SOL    HW141148   6.385   8.008   4.367 -0.5333 -1.8865  1.1065
13158SOL    HW241149   6.259   8.032   4.448 -0.1538  1.8576  0.7650
13159SOL     OW41150   5.421   3.374   4.974  0.5324  0.2754 -0.2239
13159SOL    HW141151   5.331   3.346   4.995  0.8369 -0.8812 -0.3877
13159SOL    HW241152   5.411   3.428   4.896 -0.0719  0.4973  0.0015
13160SOL     OW41153   1.081   1.693   7.070  0.3696  0.2559  0.4197
13160SOL    HW141154   0.997   1.647   7.073  0.1377  0.6115 -0.3016
13160SOL    HW241155   1.119   1.668   6.985  0.8474  0.3462  0.6022
13161SOL     OW41156   4.262   2.783   6.619  0.2891 -0.7393 -0.0290
13161SOL    HW141157   4.321   2.848   6.582  1.3034 -1.5875  0.0869
13161SOL    HW241158   4.176   2.805   6.582  0.5665  0.7789  0.1545
13162SOL     OW41159   4.975   0.814   1.699 -0.0325  0.2595 -0.7929
13162SOL    HW141160   4.960   0.727   1.735  0.4269  1.0258  1.3840
13162SOL    HW241161   5.070   0.819   1.687 -0.0757  0.4167 -1.1041
13163SOL     OW41162   2.273   1.703   4.229 -0.3120 -0.3782 -0.4832
13163SOL    HW141163   2.241   1.623   4.270 -0.9866 -0.2608 -0.7648
13163SOL    HW241164   2.368   1.699   4.238 -0.4118 -0.5972  0.6355
13164SOL     OW41165   3.493   6.696   5.043  0.0501  0.5523 -0.3886
13164SOL    HW141166   3.449   6.774   5.008 -0.1626  0.8343  0.4661
13164SOL    HW241167   3.488   6.707   5.138  1.6508  0.4183 -0.2513
13165SOL     OW41168   7.511   8.279   7.323 -0.6188  0.1211 -0.4951
13165SOL    HW141169   7.415   8.280   7.316 -0.5453  1.3258 -1.7620
13165SOL    HW241170   7.536   8.188   7.309 -1.6146 -0.4152  0.9064
13166SOL     OW41171   5.370   7.691   7.414  0.0321  0.6324  0.9253
13166SOL    HW141172   5.344   7.661   7.501  0.8613 -2.1360  0.3244
13166SOL    HW241173   5.414   7.616   7.375  0.4065  2.0487 -1.6110
13167SOL     OW41174   5.823   6.726   4.952  0.0445 -0.2172 -0.2527
13167SOL    HW141175   5.801   6.763   5.037  2.2624  2.1125 -0.5800
13167SOL    HW241176   5.747   6.744   4.897  0.5235  2.9595 -0.0452
13168SOL     OW41177   1.464   5.945   6.083 -0.1393  0.1161 -0.0727
13168SOL    HW141178   1.437   6.036   6.071 -0.7007 -0.2600 -1.9982
13168SOL    HW241179   1.543   5.951   6.137  0.1537  1.7921 -0.6173
13169SOL     OW41180   6.696   6.341   7.205 -0.2895  0.4287 -0.1090
13169SOL    HW141181   6.718   6.301   7.289 -0.9924  0.6887  0.2076
13169SOL    HW241182   6.637   6.278   7.164  1.6204 -0.6737 -1.3287
13170SOL     OW41183   5.392   9.653   7.154 -0.3165 -1.0426  0.3331
13170SOL    HW141184   5.349   9.697   7.081  0.2087 -0.3638  0.4195
13170SOL    HW241185   5.441   9.722   7.198 -0.1231 -1.5656  0.9568
13171SOL     OW41186   1.555   9.546   7.599  0.1477 -0.1977  0.4752
13171SOL    HW141187   1.632   9.512   7.644  0.4758 -0.4470 -0.2699
13171SOL    HW241188   1.589   9.588   7.520 -0.4009  0.4501  0.5738
13172SOL     OW41189   5.337   6.943   1.463 -0.0179  0.3736  0.2557
13172SOL    HW141190   5.431   6.926   1.469 -0.1471  0.2544  3.3692
13172SOL    HW241191   5.322   6.959   1.370  2.9459 -0.2596 -0.4434
13173SOL     OW41192   4.359   0.943   7.767  0.2722  0.5893 -0.0888
13173SOL    HW141193   4.421   0.873   7.784 -0.5038  0.3064  1.8014
13173SOL    HW241194   4.400   0.996   7.698  1.5037 -0.8995 -0.5371
13174SOL     OW41195   3.699   4.656   7.932  0.4647 -0.3346  0.7493
13174SOL    HW141196   3.767   4.685   7.872 -0.6579 -1.1061 -0.9517
13174SOL    HW241197   3.621   4.647   7.878 -0.5753 -1.1113  2.3119
13175SOL     OW41198   8.903   8.443   9.391 -0.8460  0.6052 -0.5447
13175SOL    HW141199   8.871   8.533   9.389  0.1696  0.9975  0.4293
13175SOL    HW241200   8.872   8.408   9.475 -1.7908 -0.1825 -1.1935
13176SOL     OW41201   1.699   7.769   4.388  0.1429 -0.0941  0.5797
13176SOL    HW141202   1.718   7.682   4.353 -0.1824 -2.0191  4.5440
13176SOL    HW241203   1.770   7.824   4.357  1.8865 -2.4662  0.0821
13177SOL     OW41204   0.116   1.785   3.216 -0.1410 -0.2767  0.1464
13177SOL    HW141205   0.126   1.842   3.139 -0.5210 -1.3870 -0.7593
13177SOL    HW241206   0.136   1.697   3.183  2.7414 -0.4686  2.0035
13178SOL     OW41207   8.698   5.729   2.960  0.3644  0.1010  0.1806
13178SOL    HW141208   8.641   5.799   2.928 -0.8226 -1.8097 -2.2454
13178SOL    HW241209   8.652   5.693   3.036 -0.8943 -0.3482 -0.7615
13179SOL     OW41210   1.970   3.849   1.105 -0.1898 -0.3975  0.0140
13179SOL    HW141211   1.970   3.824   1.198 -2.1635 -1.5705 -0.2465
13179SOL    HW241212   2.063   3.849   1.081  0.4333  0.5865  2.1179
13180SOL     OW41213   7.748   3.062   8.068  0.2534  0.0303 -0.3039
13180SOL    HW141214   7.816   3.129   8.076 -0.0519  0.3467 -0.3315
13180SOL    HW241215   7.753   3.033   7.977 -0.3155  0.7704 -0.5737
13181SOL     OW41216   4.467   7.380   5.000 -0.0770  0.1390 -0.1245
13181SOL    HW141217   4.539   7.383   4.938 -1.0734  0.2263 -1.3142
13181SOL    HW241218   4.432   7.469   5.001 -0.9975 -0.1979 -0.5952
13182SOL     OW41219   7.903   9.112   5.111  0.0574 -0.1248  0.0613
13182SOL    HW141220   7.816   9.080   5.086  0.8665 -0.7994 -2.1528
13182SOL    HW241221   7.913   9.195   5.065 -0.1340  0.9542  1.8882
13183SOL     OW41222   0.527   2.412   8.973 -0.8220 -0.0452  0.3257
13183SOL    HW141223   0.618   2.397   8.999 -0.6133  2.9386  1.7036
13183SOL    HW241224   0.522   2.376   8.884  1.7090 -0.2618  0.1816
13184SOL     OW41225   8.147   2.224   1.042  0.2288 -0.7235 -0.4676
13184SOL    HW141226   8.238   2.193   1.053  0.8563  1.1298 -0.0493
13184SOL    HW241227   8.155   2.304   0.991 -1.0841 -0.0641  0.3076
13185SOL     OW41228   9.142   8.779   4.652  0.2661 -0.0159  0.7831
13185SOL    HW141229   9.151   8.842   4.580 -1.5064  0.7450  1.1687
13185SOL    HW241230   9.124   8.833   4.729 -3.5587 -0.9633  0.7476
13186SOL     OW41231   3.889   6.154   3.858 -0.0546 -0.3356 -1.1097
13186SOL    HW141232   3.896   6.067   3.820 -2.1329  0.2529 -3.0728
13186SOL    HW241233   3.969   6.199   3.833  0.0941 -1.0339 -1.8990
13187SOL     OW41234   1.210   6.469   6.985 -0.3351  0.1054  0.3257
13187SOL    HW141235   1.180   6.379   6.976 -0.0727 -0.0401  0.9011
13187SOL    HW241236   1.167   6.501   7.064  0.9423 -0.0825  1.1277
13188SOL     OW41237   6.497   9.656   7.413 -0.1378 -0.2722 -0.3309
13188SOL    HW141238   6.529   9.689   7.329 -0.1828  0.3775 -0.0982
13188SOL    HW241239   6.404   9.679   7.414 -0.2617 -0.7561 -0.3292
13189SOL     OW41240   5.124   6.184   2.024 -0.8703  0.0927 -0.2881
13189SOL    HW141241   5.209   6.227   2.019 -0.0108 -1.4776  0.0118
13189SOL    HW241242   5.083   6.221   2.102  1.3638 -2.0829  2.1506
13190SOL     OW41243   3.060   1.966   5.515  0.4543 -0.0918 -0.3789
13190SOL    HW141244   3.127   1.931   5.457  2.1355 -0.2335  1.5379
13190SOL    HW241245   3.029   1.890   5.564  1.1898  0.4151  0.9317
13191SOL     OW41246   4.784   5.907   3.619  0.1642 -0.2657 -0.0962
13191SOL    HW141247   4.827   5.895   3.703 -0.9212 -0.7861  0.3973
13191SOL    HW241248   4.835   5.975   3.576  0.0853  0.7963  1.4259
13192SOL     OW41249   4.460   0.816   6.638  0.1154  0.0991 -0.0660
13192SOL    HW141250   4.408   0.802   6.717 -2.1339  1.0471 -1.2549
13192SOL    HW241251   4.466   0.730   6.598 -1.1963  0.0448 -0.2192
13193SOL     OW41252   8.718   4.317   4.105 -0.1554  0.8223 -0.6613
13193SOL    HW141253   8.738   4.386   4.168 -0.9580  0.6932 -0.2649
13193SOL    HW241254   8.749   4.236   4.147 -0.2644  0.7950 -0.6336
13194SOL     OW41255   1.159   7.224   1.734 -0.1982  0.6005 -0.2085
13194SOL    HW141256   1.212   7.214   1.655 -0.3589  0.5327 -0.3087
13194SOL    HW241257   1.072   7.193   1.709 -0.3600  0.9894 -0.1271
13195SOL     OW41258   0.333   9.609   4.210  0.6176 -0.0069  0.1729
13195SOL    HW141259   0.422   9.643   4.215  0.4159  0.7968 -1.0863
13195SOL    HW241260   0.341   9.526   4.162  0.8621 -0.7231  1.4295
13196SOL     OW41261   9.236   4.424   5.835 -0.0125 -0.5506 -0.1739
13196SOL    HW141262   9.253   4.442   5.927  0.0778  0.9158 -0.4495
13196SOL    HW241263   9.315   4.377   5.805 -0.0949 -1.1456  0.4999
13197SOL     OW41264   5.250   8.922   2.066  0.3748  0.2992 -0.1058
13197SOL    HW141265   5.259   8.866   1.989 -0.5155  1.0843 -0.8053
13197SOL    HW241266   5.156   8.933   2.078  0.5148  0.7332  0.6940
13198SOL     OW41267   7.160   0.899   2.676  0.5281 -0.0034  0.4248
13198SOL    HW141268   7.117   0.819   2.646  1.7353 -0.3879 -0.3802
13198SOL    HW241269   7.251   0.889   2.647  0.9419  1.1899  1.2403
13199SOL     OW41270   8.122   9.304   0.787  0.1411 -0.2138 -0.6973
13199SOL    HW141271   8.212   9.313   0.757  0.5289 -0.3058  0.3949
13199SOL    HW241272   8.071   9.357   0.726  0.8995 -0.3184 -1.4482
13200SOL     OW41273   1.682   6.886   4.714 -0.3225 -0.1999 -0.1479
13200SOL    HW141274   1.646   6.912   4.629 -2.0066 -0.1184  0.5394
13200SOL    HW241275   1.640   6.945   4.777 -0.1068 -1.0956  0.8716
13201SOL     OW41276   4.877   0.121   7.077  0.6378  0.2881  0.0797
13201SOL    HW141277   4.923   0.154   7.154 -0.1812  1.2297  0.1909
13201SOL    HW241278   4.784   0.127   7.100  0.3935  0.1078 -0.7958
13202SOL     OW41279   5.053   3.914   1.973  0.3045 -0.1574  0.1992
13202SOL    HW141280   5.035   4.008   1.974  0.2347 -0.1457 -0.7984
13202SOL    HW241281   5.009   3.880   2.051 -2.2013  0.2081 -0.9508
13203SOL     OW41282   5.724   8.624   6.581 -0.0712 -0.5233  0.0813
13203SOL    HW141283   5.792   8.604   6.517 -1.3571 -2.8464 -0.6596
13203SOL    HW241284   5.642   8.599   6.538 -1.1631 -0.3496  1.9457
13204SOL     OW41285   3.411   1.674   4.201 -0.5772 -0.2326  0.4628
13204SOL    HW141286   3.368   1.590   4.182  1.8266 -1.4445  0.0036
13204SOL    HW241287   3.342   1.728   4.240 -2.7249 -1.7181 -1.0283
13205SOL     OW41288   7.877   5.122   5.513  0.3275 -0.1724  0.2738
13205SOL    HW141289   7.945   5.084   5.457 -0.3051 -0.9641  0.0158
13205SOL    HW241290   7.918   5.130   5.599  0.8353 -0.3707  0.0510
13206SOL     OW41291   2.527   8.293   1.667 -0.1831  0.0803 -0.0745
13206SOL    HW141292   2.590   8.255   1.728 -0.8387  1.6851  1.7212
13206SOL    HW241293   2.513   8.225   1.601  1.7064 -1.1575  0.7068
13207SOL     OW41294   7.564   5.086   9.336 -0.3800  0.5128 -0.3268
13207SOL    HW141295   7.576   4.994   9.310  1.3591  0.5142  0.3777
13207SOL    HW241296   7.469   5.094   9.349 -0.4999 -1.3671  0.3032
13208SOL     OW41297   9.510   8.788   7.097  0.6866  0.4424 -0.2926
13208SOL    HW141298   9.572   8.738   7.150 -0.6119  0.1700  1.0255
13208SOL    HW241299   9.428   8.740   7.104 -0.9399  3.2152  1.9582
13209SOL     OW41300   8.718   6.875   9.039  0.2823  0.2935  0.0902
13209SOL    HW141301   8.688   6.851   9.126 -0.3510  1.9389  0.3647
13209SOL    HW241302   8.813   6.865   9.043  0.4242  1.7050  1.4784
13210SOL     OW41303   5.004   2.663   3.007 -0.1113 -0.0901  0.2703
13210SOL    HW141304   5.024   2.577   2.969  1.6842 -0.0036  0.9138
13210SOL    HW241305   5.027   2.653   3.100  0.9049  1.3137  0.1961
13211SOL     OW41306   9.526   4.440   3.957  0.2921 -0.2225 -0.1139
13211SOL    HW141307   9.539   4.459   4.050 -1.2597 -1.8305  0.5081
13211SOL    HW241308   9.435   4.467   3.940 -0.4887 -2.7119 -0.2965
13212SOL     OW41309   3.199   6.426   2.367 -0.1082  0.0058  0.1713
13212SOL    HW141310   3.169   6.482   2.296 -0.1654 -1.4010 -0.9660
13212SOL    HW241311   3.275   6.381   2.332  0.8782  0.4757  1.5942
13213SOL     OW41312   2.759   4.029   5.323  0.3279  0.5080  0.0818
13213SOL    HW141313   2.848   4.019   5.356  0.5703  1.0210 -0.3982
13213SOL    HW241314   2.712   4.076   5.392  0.3064 -0.1345  0.5174
13214SOL     OW41315   8.450   0.996   2.316 -0.3869  0.1230  0.4488
13214SOL    HW141316   8.540   0.987   2.345 -0.0070  0.8603 -0.4799
13214SOL    HW241317   8.401   0.938   2.374  0.6754 -0.2870  0.9628
13215SOL     OW41318   8.397   6.204   4.897  0.7457 -0.0301 -0.4966
13215SOL    HW141319   8.317   6.210   4.845  1.1753 -0.0242 -1.1573
13215SOL    HW241320   8.427   6.295   4.905  1.0367 -0.0999 -0.7945
13216SOL     OW41321   0.146   8.882   8.701  0.0686  0.2537 -0.0634
13216SOL    HW141322   0.052   8.868   8.690 -0.0021  1.0364 -0.5388
13216SOL    HW241323   0.168   8.838   8.783 -0.4670 -1.0143 -0.5729
13217SOL     OW41324   3.228   9.468   4.465 -0.2742 -0.2505  0.7611
13217SOL    HW141325   3.225   9.377   4.494  1.7884  0.2111  2.7121
13217SOL    HW241326   3.169   9.515   4.523 -2.1746 -0.4194 -0.9247
13218SOL     OW41327   1.886   5.255   1.446 -0.2415 -0.3050 -0.0994
13218SOL    HW141328   1.813   5.264   1.384  0.0460 -1.6111 -0.6755
13218SOL    HW241329   1.954   5.312   1.411 -0.5948  0.0766 -0.1750
13219SOL     OW41330   3.462   2.472   4.667  0.4341 -1.0083 -0.5661
13219SOL    HW141331   3.431   2.563   4.663  0.0272 -1.1456 -0.5941
13219SOL    HW241332   3.517   2.462   4.589  2.8364  0.0534  0.8778
13220SOL     OW41333   8.714   0.730   9.660  0.1674  0.2873  0.1301
13220SOL    HW141334   8.777   0.662   9.637 -2.1268 -1.5047 -1.4229
13220SOL    HW241335   8.727   0.745   9.753  0.4764 -2.6906  0.6650
13221SOL     OW41336   8.734   6.863   1.488 -0.4588 -0.0725 -0.5362
13221SOL    HW141337   8.724   6.779   1.444  1.0636 -0.6515  0.1433
13221SOL    HW241338   8.826   6.866   1.515 -1.0198  0.7563  1.5290
13222SOL     OW41339   3.656   0.720   3.955  0.0376  0.1265  0.3752
13222SOL    HW141340   3.601   0.726   3.877  1.3163  1.9051 -0.4381
13222SOL    HW241341   3.732   0.670   3.928 -0.0134 -0.2009  0.8133
13223SOL     OW41342   7.270   3.531   1.163 -0.3488 -0.0832 -0.0916
13223SOL    HW141343   7.181   3.538   1.129 -0.0373  0.7638 -0.7704
13223SOL    HW241344   7.261   3.554   1.256 -1.1144 -1.8633  0.3080
13224SOL     OW41345   9.184   9.232   1.561  0.0205 -0.3924  0.2355
13224SOL    HW141346   9.124   9.250   1.489 -0.1751  0.0978  0.5230
13224SOL    HW241347   9.230   9.152   1.534  0.9971  0.5879 -1.1004
13225SOL     OW41348   5.361   1.646   6.386 -0.2181  0.3946 -0.8100
13225SOL    HW141349   5.367   1.562   6.432 -0.5099 -0.1067 -1.6737
13225SOL    HW241350   5.348   1.623   6.294 -1.7889  1.3652 -0.8820
13226SOL     OW41351   8.308   4.158   8.283  0.1396  0.4027  0.4530
13226SOL    HW141352   8.324   4.204   8.201 -0.2468  0.2775  0.3051
13226SOL    HW241353   8.319   4.225   8.351  0.5530  0.4845  0.3083
13227SOL     OW41354   6.570   9.019   3.383  0.4379 -0.2962 -0.1396
13227SOL    HW141355   6.562   9.077   3.458  0.3952  0.1533 -0.4883
13227SOL    HW241356   6.664   8.997   3.380  0.2067 -1.5723  0.9668
13228SOL     OW41357   4.058   5.084   8.258  0.4419 -0.1407  0.8553
13228SOL    HW141358   4.053   5.162   8.203  1.9314 -0.5814  0.0622
13228SOL    HW241359   3.996   5.101   8.329 -1.6785  0.3854 -0.9927
13229SOL     OW41360   3.321   0.584   5.839  0.1428 -0.2213 -0.1378
13229SOL    HW141361   3.372   0.509   5.809  0.0007 -0.4048  0.0856
13229SOL    HW241362   3.232   0.551   5.847 -0.0379  0.1298 -0.6434
13230SOL     OW41363   4.453   1.347   1.293  0.1273 -0.5728 -0.0390
13230SOL    HW141364   4.523   1.306   1.345  1.2185  0.6972 -0.4533
13230SOL    HW241365   4.482   1.437   1.281 -1.0944 -0.3022 -1.1265
13231SOL     OW41366   7.134   3.219   3.607  0.1823  0.0051 -0.3115
13231SOL    HW141367   7.224   3.248   3.619  0.4302 -0.8461 -0.0201
13231SOL    HW241368   7.099   3.276   3.539  0.7826  0.6728 -0.0694
13232SOL     OW41369   6.402   4.800   5.349 -0.4860  0.7174  0.2344
13232SOL    HW141370   6.483   4.774   5.306 -0.8003 -0.5481  0.3428
13232SOL    HW241371   6.336   4.794   5.280 -0.9445 -1.0589  0.7674
13233SOL     OW41372   3.319   9.388   3.719 -0.3048 -0.2377 -0.4146
13233SOL    HW141373   3.373   9.380   3.798 -0.3643 -0.6739 -0.4109
13233SOL    HW241374   3.351   9.466   3.675  1.2097 -1.1739 -1.0661
13234SOL     OW41375   2.957   6.125   3.740  0.0573 -0.6299  0.5167
13234SOL    HW141376   2.933   6.195   3.679  1.2422  0.9434  1.7771
13234SOL    HW241377   2.992   6.056   3.684  0.6678  0.5794 -0.6526
13235SOL     OW41378   3.114   1.916   3.252  0.0040  0.8077 -0.9161
13235SOL    HW141379   3.118   1.950   3.163  2.8761 -0.0414 -1.2253
13235SOL    HW241380   3.106   1.821   3.241  3.6867  0.3065 -0.5200
13236SOL     OW41381   3.326   6.585   2.587 -0.3653 -0.3211 -0.0729
13236SOL    HW141382   3.419   6.566   2.578 -0.1255  1.1642 -0.9888
13236SOL    HW241383   3.284   6.535   2.517 -0.0081  0.6582 -1.0001
13237SOL     OW41384   5.928   3.592   6.987  0.1127  0.9814 -0.5028
13237SOL    HW141385   5.843   3.632   7.004  0.2837  0.9366  0.4827
13237SOL    HW241386   5.926   3.508   7.033  1.4616  1.9017  1.3413
13238SOL     OW41387   0.624   3.084   5.529  0.2158  0.0497 -0.0287
13238SOL    HW141388   0.583   3.161   5.569  1.4215  0.9694 -0.4908
13238SOL    HW241389   0.552   3.037   5.487 -0.7139  0.3036  1.2255
13239SOL     OW41390   7.119   3.508   9.218 -0.5751 -0.6177 -0.2143
13239SOL    HW141391   7.082   3.444   9.279 -1.4082 -0.0940 -0.1611
13239SOL    HW241392   7.053   3.518   9.150 -0.6611  0.5348  0.0243
13240SOL     OW41393   8.831   0.086   8.853  0.5836 -0.6001 -0.0269
13240SOL    HW141394   8.842   0.102   8.947 -0.3338  0.7866 -0.1171
13240SOL    HW241395   8.740   0.108   8.835  1.4667  2.1935 -1.7661
13241SOL     OW41396   2.028   5.376   7.610  0.1888  0.3370  0.0894
13241SOL    HW141397   2.101   5.350   7.665 -0.5483 -0.9216  0.5040
13241SOL    HW241398   1.996   5.295   7.571 -1.8407  0.6374  0.9945
13242SOL     OW41399   2.936   1.784   4.250 -0.2337 -0.1335 -0.0658
13242SOL    HW141400   2.945   1.702   4.202  2.9497 -0.6364  1.1485
13242SOL    HW241401   2.909   1.847   4.184 -0.6352 -1.7063 -1.4816
13243SOL     OW41402   5.258   3.552   7.090  0.1356  0.0754  0.1737
13243SOL    HW141403   5.236   3.550   6.997 -0.0468  0.2924  0.2114
13243SOL    HW241404   5.243   3.462   7.120 -1.2881  0.3389  0.3236
13244SOL     OW41405   2.623   1.132   5.897  0.4930 -0.2934  0.4164
13244SOL    HW141406   2.604   1.056   5.952  1.5146 -0.4739  0.5389
13244SOL    HW241407   2.537   1.161   5.867  0.0516 -1.2407  0.7014
13245SOL     OW41408   9.495   7.771   8.158  0.2724 -0.0015  1.0038
13245SOL    HW141409   9.505   7.867   8.157  2.3960 -0.1743  1.5651
13245SOL    HW241410   9.532   7.743   8.074  0.1556 -0.3697  1.0758
13246SOL     OW41411   6.930   5.647   5.186  0.4804  0.4116  0.0486
13246SOL    HW141412   6.974   5.723   5.147  0.6697 -0.4332 -1.4880
13246SOL    HW241413   6.997   5.578   5.184 -0.0783 -0.1404  0.2139
13247SOL     OW41414   1.564   2.035   2.852 -0.1717  0.6065  0.2412
13247SOL    HW141415   1.564   1.992   2.937 -3.4135  2.1708  1.2170
13247SOL    HW241416   1.598   2.123   2.869  0.2825  0.5549 -0.3497
13248SOL     OW41417   6.812   1.509   2.694 -0.3267  0.0561  0.1598
13248SOL    HW141418   6.890   1.561   2.675 -1.2145  1.2258 -0.4056
13248SOL    HW241419   6.760   1.513   2.614 -1.0706 -0.5057  0.5967
13249SOL     OW41420   9.640   7.878   7.384  0.2634  0.0901  0.6350
13249SOL    HW141421   9.636   7.958   7.332 -0.1504 -1.5605 -2.0139
13249SOL    HW241422   9.727   7.881   7.426  0.9369  1.1305 -0.7695
13250SOL     OW41423   4.621   2.206   7.013 -0.3273 -0.6857 -0.0616
13250SOL    HW141424   4.594   2.280   6.959  0.7036 -2.2456 -2.8684
13250SOL    HW241425   4.603   2.129   6.960  1.6883 -2.2765  1.4044
13251SOL     OW41426   0.921   8.213   0.606 -0.1698  0.2353  0.4467
13251SOL    HW141427   0.838   8.258   0.623 -0.7112 -0.4149 -0.3738
13251SOL    HW241428   0.958   8.198   0.693 -1.5506 -0.6177  0.9256
13252SOL     OW41429   7.529   7.163   5.202  0.0013 -0.3776 -0.1847
13252SOL    HW141430   7.609   7.203   5.235 -0.4182  0.2426  0.0908
13252SOL    HW241431   7.542   7.159   5.107  0.2301 -0.0015 -0.1706
13253SOL     OW41432   9.062   1.949   1.375  0.7003 -0.5686  0.3105
13253SOL    HW141433   9.022   1.862   1.367 -0.6887  0.1117 -0.4740
13253SOL    HW241434   9.156   1.932   1.380  0.5604 -2.0400 -1.3033
13254SOL     OW41435   8.370   3.694   7.382 -0.3012  0.1720 -0.0722
13254SOL    HW141436   8.464   3.686   7.363 -0.3526  0.3317 -0.4050
13254SOL    HW241437   8.367   3.733   7.469 -0.0564 -1.3277  0.6398
13255SOL     OW41438   6.804   1.059   0.213  0.4791  0.2640  0.1887
13255SOL    HW141439   6.832   1.063   0.305  1.1790  0.1507 -0.0132
13255SOL    HW241440   6.708   1.054   0.218  0.4846  0.6459  0.8991
13256SOL     OW41441   0.901   9.401   7.848 -0.7775  0.2768 -0.0663
13256SOL    HW141442   0.979   9.383   7.901 -0.9916 -0.4765  0.0027
13256SOL    HW241443   0.927   9.474   7.792  0.3426 -0.6419 -0.7958
13257SOL     OW41444   0.001   3.764   8.035  0.5591 -1.3212 -0.0550
13257SOL    HW141445  -0.028   3.841   8.084  0.7985 -0.6643 -0.9093
13257SOL    HW241446  -0.071   3.701   8.044 -0.2147 -0.5086 -0.3973
13258SOL     OW41447   2.564   9.589   2.905  0.4472  0.6186  0.6896
13258SOL    HW141448   2.540   9.654   2.838  1.5039  0.6719  0.3416
13258SOL    HW241449   2.494   9.595   2.970 -1.3877 -0.4278 -1.0551
13259SOL     OW41450   1.723   9.325   5.770  0.0766  0.1841  0.2040
13259SOL    HW141451   1.775   9.405   5.765 -0.7278  0.7429  0.5402
13259SOL    HW241452   1.634   9.355   5.789 -0.1611 -0.8147  0.7526
13260SOL     OW41453   8.059   7.399   1.383 -0.4882 -0.4433 -0.3623
13260SOL    HW141454   8.041   7.371   1.293  0.2287 -0.7471 -0.4261
13260SOL    HW241455   8.126   7.338   1.413 -0.0184  0.2584  0.0441
13261SOL     OW41456   0.390   7.099   6.977  0.5397 -0.7642  0.2488
13261SOL    HW141457   0.468   7.120   7.028  0.7860  0.0320 -0.4435
13261SOL    HW241458   0.357   7.184   6.947 -0.7640 -1.0566  0.7656
13262SOL     OW41459   3.670   2.721   5.279  0.0054  0.3934  0.4721
13262SOL    HW141460   3.696   2.641   5.325 -1.8473 -0.3219  0.3658
13262SOL    HW241461   3.681   2.790   5.344  0.6044 -0.0988  0.9095
13263SOL     OW41462   5.851   5.055   5.991  0.0395  0.2635  0.0078
13263SOL    HW141463   5.879   4.965   5.978 -0.7384  0.0383 -0.1670
13263SOL    HW241464   5.837   5.062   6.085 -0.2588  0.0889 -0.0221
13264SOL     OW41465   1.300   0.622   1.189  0.0517 -0.4980  0.0513
13264SOL    HW141466   1.305   0.645   1.282 -0.5090 -0.8355  0.1673
13264SOL    HW241467   1.224   0.669   1.156 -1.0969 -2.0967  0.2871
13265SOL     OW41468   1.667   4.916   2.492 -0.3658 -0.1644 -0.3121
13265SOL    HW141469   1.604   4.980   2.525 -1.6351 -0.9763 -1.0644
13265SOL    HW241470   1.749   4.937   2.538 -0.6302  2.1926 -0.7772
13266SOL     OW41471   0.261   6.713   4.176  0.8921  0.2117  0.6057
13266SOL    HW141472   0.227   6.623   4.179  1.1068  0.1503  1.6305
13266SOL    HW241473   0.209   6.759   4.242  1.5522  0.5599  0.8901
13267SOL     OW41474   7.482   0.825   3.131  0.5757 -0.1346  0.3883
13267SOL    HW141475   7.482   0.769   3.209  0.1544 -0.1784  0.3632
13267SOL    HW241476   7.389   0.833   3.108  0.7608 -1.1843 -0.8747
13268SOL     OW41477   6.551   0.193   3.783 -0.0362 -0.2341  0.0163
13268SOL    HW141478   6.602   0.254   3.836  1.2757 -1.0450 -0.2700
13268SOL    HW241479   6.488   0.154   3.844  0.1532  0.2731  0.5379
13269SOL     OW41480   9.180   6.258   4.292 -0.1396  0.8703  0.9700
13269SOL    HW141481   9.094   6.226   4.264  0.1313  0.8539  0.1076
13269SOL    HW241482   9.179   6.352   4.270  0.7096  0.5201 -0.8214
13270SOL     OW41483   8.173   7.429   0.923  0.2384 -0.0049 -0.4136
13270SOL    HW141484   8.161   7.390   0.836  0.1081 -0.5033 -0.1779
13270SOL    HW241485   8.245   7.491   0.912  0.1267  0.0389 -0.9106
13271SOL     OW41486   6.338   4.914   7.339  0.1570 -0.2598  0.2552
13271SOL    HW141487   6.350   4.929   7.433 -0.7338  0.8594  0.2054
13271SOL    HW241488   6.246   4.935   7.323  0.2910 -0.4735 -0.8659
13272SOL     OW41489   7.821   3.841   8.378 -0.1114 -0.2838 -0.0876
13272SOL    HW141490   7.910   3.808   8.362  0.3788  0.8025  0.2920
13272SOL    HW241491   7.770   3.763   8.400  0.6227 -0.9875 -0.8199
13273SOL     OW41492   4.447   5.565   8.915  0.5441 -0.4217  0.0015
13273SOL    HW141493   4.537   5.590   8.896  0.2521  1.5942  0.9305
13273SOL    HW241494   4.443   5.472   8.896  2.7723 -0.5271 -0.2152
13274SOL     OW41495   2.153   5.524   2.699 -0.0638 -0.1750 -0.2179
13274SOL    HW141496   2.188   5.458   2.760  1.2069  0.2089 -0.4979
13274SOL    HW241497   2.199   5.507   2.617 -0.9394  0.0282 -0.7598
13275SOL     OW41498   8.922   7.201   0.691  0.0901 -0.3707 -0.0931
13275SOL    HW141499   8.836   7.170   0.719  1.0578 -1.5370  1.8252
13275SOL    HW241500   8.912   7.219   0.597 -1.8683 -1.8382 -0.2294
13276SOL     OW41501   7.630   0.842   8.112 -0.1377  0.2029 -0.2267
13276SOL    HW141502   7.671   0.771   8.063  0.6048  0.2799  0.2589
13276SOL    HW241503   7.700   0.877   8.167 -0.8038  0.4831  0.4723
13277SOL     OW41504   2.364   7.571   3.179  0.0630  0.4137  0.1785
13277SOL    HW141505   2.389   7.479   3.187 -0.3475  0.2405 -0.4300
13277SOL    HW241506   2.422   7.617   3.239  1.5921 -0.0215 -0.8867
13278SOL     OW41507   7.732   2.757   0.762  0.0948 -0.3872 -0.2896
13278SOL    HW141508   7.780   2.742   0.680  1.0086  0.3207  0.0997
13278SOL    HW241509   7.652   2.802   0.735  1.2966  1.6685 -0.6500
13279SOL     OW41510   0.925   5.665   4.924  0.6323  0.3875 -0.1859
13279SOL    HW141511   0.832   5.663   4.945  0.2279  0.5991 -1.8040
13279SOL    HW241512   0.962   5.734   4.980 -0.2136  0.4194  0.3393
13280SOL     OW41513   9.609   0.860   7.237  0.0909  0.2070  0.5441
13280SOL    HW141514   9.519   0.837   7.260  0.1063  0.9329  1.3965
13280SOL    HW241515   9.630   0.934   7.295  1.8219 -1.0282  1.5658
13281SOL     OW41516   4.485   7.261   8.035 -0.4804 -0.1113  0.3314
13281SOL    HW141517   4.460   7.228   7.948 -0.2167  0.2854  0.0985
13281SOL    HW241518   4.555   7.202   8.063 -0.9087 -0.5470  0.4993
13282SOL     OW41519   1.878   2.413   4.945  0.4764 -0.6193  0.3919
13282SOL    HW141520   1.894   2.349   4.876  1.6462 -0.9484  0.9475
13282SOL    HW241521   1.829   2.364   5.012  1.1724 -0.8852  0.7153
13283SOL     OW41522   8.390   7.138   0.568  0.1850  0.0545 -0.3578
13283SOL    HW141523   8.414   7.226   0.539  2.4363  0.0311  1.1983
13283SOL    HW241524   8.461   7.082   0.535 -0.5839 -0.9958 -0.2711
13284SOL     OW41525   0.257   2.624   5.963 -0.3428 -0.3626  0.4566
13284SOL    HW141526   0.225   2.610   5.874 -0.6100 -0.1710  0.5199
13284SOL    HW241527   0.194   2.579   6.019  0.4503 -1.4565  0.4915
13285SOL     OW41528   6.759   2.661   2.474  0.7328  0.1970 -0.1465
13285SOL    HW141529   6.766   2.620   2.560 -0.4528  0.7927  0.2731
13285SOL    HW241530   6.840   2.711   2.465  1.3845 -0.7835  0.1100
13286SOL     OW41531   5.285   6.582   3.316 -0.3853 -1.0679 -0.4853
13286SOL    HW141532   5.210   6.635   3.342  0.3281 -0.7729  1.1078
13286SOL    HW241533   5.309   6.616   3.229  0.6912  2.0489  0.8664
13287SOL     OW41534   5.269   5.167   4.598 -0.1551 -0.1211  0.3756
13287SOL    HW141535   5.276   5.130   4.686 -0.8639  0.1732  0.5579
13287SOL    HW241536   5.314   5.104   4.542  0.7796 -0.0414  1.0208
13288SOL     OW41537   6.310   7.480   4.893  0.3058 -0.1831  0.1410
13288SOL    HW141538   6.231   7.428   4.880 -0.2164  0.2169  1.5763
13288SOL    HW241539   6.310   7.503   4.986  1.2524  1.1969 -0.1531
13289SOL     OW41540   9.644   5.353   9.334 -0.8368 -0.2159 -0.1048
13289SOL    HW141541   9.610   5.417   9.271 -1.3073 -0.6692 -0.3146
13289SOL    HW241542   9.712   5.306   9.285 -1.0583 -0.4273 -0.2107
13290SOL     OW41543   3.165   7.925   6.482 -0.4530  0.9844 -0.0492
13290SOL    HW141544   3.095   7.987   6.502 -2.0340  0.7860 -4.0403
13290SOL    HW241545   3.136   7.843   6.521 -1.9464  1.1736 -0.6801
13291SOL     OW41546   5.380   0.382   4.182 -0.0287  0.5177 -0.7462
13291SOL    HW141547   5.305   0.324   4.192  1.5643 -1.5151  0.1527
13291SOL    HW241548   5.431   0.344   4.110  0.6062  1.3583 -0.7703
13292SOL     OW41549   5.231   5.411   8.287 -0.5473  0.1235  0.0511
13292SOL    HW141550   5.297   5.447   8.227 -1.8867  2.0888 -0.3430
13292SOL    HW241551   5.217   5.481   8.351 -0.5055 -1.2322  1.5790
13293SOL     OW41552   7.577   9.654   6.775 -0.3371 -0.4706 -0.2930
13293SOL    HW141553   7.525   9.676   6.853  0.5603 -1.0296  0.4852
13293SOL    HW241554   7.514   9.616   6.714 -0.7664 -1.6709  0.8563
13294SOL     OW41555   5.318   8.966   9.288  0.1879  0.1846 -0.5493
13294SOL    HW141556   5.387   8.948   9.352 -0.6389 -0.3749  0.1998
13294SOL    HW241557   5.249   9.009   9.339 -0.1393  0.4794 -1.2318
13295SOL     OW41558   6.686   7.991   2.589  0.0923  0.2983 -0.0956
13295SOL    HW141559   6.746   8.055   2.553 -0.1299 -0.6567 -2.3273
13295SOL    HW241560   6.726   7.964   2.672  2.0941  0.6096 -0.9124
13296SOL     OW41561   0.059   0.943   2.157 -0.3771  0.9666 -0.2813
13296SOL    HW141562  -0.001   0.959   2.231  0.1370  0.8540  0.1639
13296SOL    HW241563   0.001   0.916   2.086 -0.8926  1.1689  0.0490
13297SOL     OW41564   1.857   6.071   2.531  0.5965  0.3546 -0.0105
13297SOL    HW141565   1.941   6.071   2.484 -0.5548 -1.0772 -2.2317
13297SOL    HW241566   1.868   6.006   2.600  1.1709 -0.2563 -0.6521
13298SOL     OW41567   5.804   8.237   6.253 -0.1545 -0.3475 -0.3316
13298SOL    HW141568   5.729   8.295   6.252  0.2943  0.2376 -0.5269
13298SOL    HW241569   5.865   8.274   6.189  0.2049 -0.9416 -0.3483
13299SOL     OW41570   7.549   4.592   6.367 -0.4023  0.0696  0.1618
13299SOL    HW141571   7.616   4.644   6.410  0.3379  1.0616 -2.0141
13299SOL    HW241572   7.597   4.519   6.328 -0.8591 -0.2058  0.1119
13300SOL     OW41573   2.614   1.784   4.489 -0.0174  0.1958 -0.1775
13300SOL    HW141574   2.687   1.744   4.537 -0.0892 -1.0303 -1.0356
13300SOL    HW241575   2.535   1.744   4.528 -0.1265  0.0208 -0.5734
13301SOL     OW41576   4.399   1.466   4.607  0.4641 -0.2204  0.0569
13301SOL    HW141577   4.306   1.452   4.623  0.5086  0.5604  1.1487
13301SOL    HW241578   4.437   1.378   4.608 -0.2664 -0.5559 -0.5487
13302SOL     OW41579   6.322   6.065   4.921  0.3941 -0.1122 -0.1525
13302SOL    HW141580   6.393   6.119   4.958 -0.4973  0.1034  1.3307
13302SOL    HW241581   6.341   5.976   4.952  0.6132 -0.2557 -0.6879
13303SOL     OW41582   6.727   6.731   2.576  0.0123  0.0927 -0.0216
13303SOL    HW141583   6.703   6.715   2.667  0.7269 -2.5725 -0.2363
13303SOL    HW241584   6.689   6.658   2.527  1.8100  0.0664 -1.4765
13304SOL     OW41585   7.471   0.542   9.126  0.1335  0.3891  0.1111
13304SOL    HW141586   7.566   0.560   9.130  1.2045 -3.8637 -1.5901
13304SOL    HW241587   7.452   0.534   9.033 -1.8267  0.6155  0.4561
13305SOL     OW41588   1.057   2.363   2.276 -0.0886 -0.6169 -0.6154
13305SOL    HW141589   1.018   2.444   2.308  0.8127  0.7086 -2.6540
13305SOL    HW241590   1.115   2.334   2.346 -0.1350  0.7295 -0.0040
13306SOL     OW41591   8.279   0.450   9.176 -0.1792 -0.0906  0.3145
13306SOL    HW141592   8.251   0.536   9.146 -1.1095 -0.6118 -0.3719
13306SOL    HW241593   8.375   0.453   9.173 -0.1944  1.0232  0.6407
13307SOL     OW41594   3.653   3.833   4.813  0.7173 -0.2852 -0.4666
13307SOL    HW141595   3.717   3.777   4.857 -2.0382 -3.8904 -0.5780
13307SOL    HW241596   3.671   3.821   4.720  0.4362 -0.6323 -0.4795
13308SOL     OW41597   3.574   2.075   6.534 -0.2794 -0.0719  0.0083
13308SOL    HW141598   3.639   2.071   6.464 -0.5150  1.9725 -0.3904
13308SOL    HW241599   3.618   2.125   6.604 -1.1486  0.7066  0.0128
13309SOL     OW41600   7.507   0.714   0.846  0.2470 -0.2457  0.7488
13309SOL    HW141601   7.427   0.760   0.822 -0.1380 -1.1519  0.2581
13309SOL    HW241602   7.540   0.762   0.922 -0.1200  0.8469  0.2415
13310SOL     OW41603   1.754   4.935   1.234 -0.3488 -0.4004  0.0504
13310SOL    HW141604   1.764   4.897   1.322 -0.2711 -0.3180  0.0776
13310SOL    HW241605   1.662   4.920   1.211 -0.6985  0.6793  0.6569
13311SOL     OW41606   4.925   0.751   8.451 -0.0221 -0.7640  0.0524
13311SOL    HW141607   4.973   0.682   8.405 -0.2960 -0.6262 -0.4564
13311SOL    HW241608   4.939   0.830   8.397 -0.2920 -0.5843  0.2429
13312SOL     OW41609   5.152   4.427   8.872 -0.5047 -0.0919 -0.2376
13312SOL    HW141610   5.139   4.520   8.889  2.0848  0.4304 -0.6806
13312SOL    HW241611   5.208   4.424   8.794  0.2144 -1.9781  0.2892
13313SOL     OW41612   3.206   3.003   1.364 -0.1832 -0.0486  0.5677
13313SOL    HW141613   3.275   2.937   1.352  0.7159  1.0042 -0.2070
13313SOL    HW241614   3.197   3.012   1.458  1.4037  0.4714  0.6891
13314SOL     OW41615   0.872   8.284   4.990  0.2175 -0.3237 -0.0440
13314SOL    HW141616   0.779   8.306   4.997  0.2963 -0.2728  1.0050
13314SOL    HW241617   0.877   8.194   5.022  0.2883 -0.9550 -1.7584
13315SOL     OW41618   9.401   4.022   1.385  0.0439  0.3228  0.1560
13315SOL    HW141619   9.314   3.996   1.416 -0.4417 -0.9026 -1.9938
13315SOL    HW241620   9.385   4.101   1.334  0.2645  0.3577  0.1408
13316SOL     OW41621   0.124   7.296   8.582  0.0852 -0.0274  0.2566
13316SOL    HW141622   0.140   7.387   8.605  0.7210 -0.7370  2.9454
13316SOL    HW241623   0.057   7.266   8.644 -1.1595 -1.0620 -1.4819
13317SOL     OW41624   7.251   2.639   8.757 -0.1636 -0.0696 -0.5792
13317SOL    HW141625   7.322   2.688   8.799 -0.5034  1.1598 -1.4019
13317SOL    HW241626   7.225   2.574   8.823 -0.3791  1.4949  0.9465
13318SOL     OW41627   3.649   1.886   2.441  0.4708 -0.1194 -0.0234
13318SOL    HW141628   3.601   1.960   2.405 -0.1135 -0.5115 -0.0721
13318SOL    HW241629   3.708   1.924   2.506 -1.1200  0.2159  1.2909
13319SOL     OW41630   1.524   8.845   9.208 -0.4276 -0.0211  0.1072
13319SOL    HW141631   1.587   8.915   9.219  0.8428 -0.9485 -0.9216
13319SOL    HW241632   1.575   8.772   9.171 -2.0478 -0.8766 -0.5525
13320SOL     OW41633   8.873   8.493   3.195 -0.2352 -0.5729 -0.0408
13320SOL    HW141634   8.953   8.505   3.144 -0.1839  0.9983  0.3344
13320SOL    HW241635   8.802   8.498   3.130 -0.1326  0.6615 -0.0905
13321SOL     OW41636   7.971   7.105   5.009  0.0401  0.5203 -0.2719
13321SOL    HW141637   7.903   7.104   4.942 -1.1140  2.2614  0.7944
13321SOL    HW241638   7.927   7.076   5.089  1.0667 -0.2451  0.0429
13322SOL     OW41639   0.839   2.322   3.686 -0.0174 -0.1381  0.9165
13322SOL    HW141640   0.777   2.343   3.756 -1.2521 -0.3798 -0.0591
13322SOL    HW241641   0.830   2.394   3.624 -0.1123 -0.7002  0.2628
13323SOL     OW41642   4.999   7.126   3.775  0.2326 -0.3639  0.2404
13323SOL    HW141643   4.926   7.115   3.714 -0.0599  1.4804  0.1811
13323SOL    HW241644   4.961   7.113   3.862  0.2311 -1.1461  0.1238
13324SOL     OW41645   7.218   6.785   0.880  0.5132 -0.2719 -0.0972
13324SOL    HW141646   7.274   6.708   0.879 -0.7178 -1.1915 -0.9051
13324SOL    HW241647   7.170   6.782   0.797 -0.4977  0.6450  0.4130
13325SOL     OW41648   9.355   5.410   9.401  0.1931 -0.2185 -0.1726
13325SOL    HW141649   9.392   5.479   9.457  1.2930 -0.8759 -0.0638
13325SOL    HW241650   9.427   5.349   9.388 -0.9175 -1.6350  0.1619
13326SOL     OW41651   3.930   6.491   2.280  0.4046  0.5057  0.2211
13326SOL    HW141652   3.869   6.564   2.287 -0.0150  0.1970 -0.1957
13326SOL    HW241653   4.010   6.522   2.324 -0.5386  0.3564  2.1245
13327SOL     OW41654   2.978   0.918   7.632  0.1319  0.2815  0.2572
13327SOL    HW141655   3.026   0.849   7.586  2.0349  1.6588  0.0726
13327SOL    HW241656   3.035   0.942   7.705 -1.3907  0.3617  1.4931
13328SOL     OW41657   1.342   2.483   8.664 -0.5314 -0.7919 -0.2846
13328SOL    HW141658   1.313   2.406   8.714  0.0668 -1.5597 -1.0859
13328SOL    HW241659   1.310   2.557   8.714  1.0554 -1.4795  1.9245
13329SOL     OW41660   0.505   5.795   9.476  0.7189  0.1057 -0.8207
13329SOL    HW141661   0.512   5.756   9.563  2.4030  0.1942 -0.8806
13329SOL    HW241662   0.510   5.721   9.416  2.1640  0.2389 -0.8888
13330SOL     OW41663   0.371   8.999   6.317  0.4368  0.1608 -0.3565
13330SOL    HW141664   0.464   9.013   6.337  0.1452 -0.2673  1.4702
13330SOL    HW241665   0.339   8.944   6.388 -1.4992  1.2702 -0.2970
13331SOL     OW41666   4.383   6.629   4.171  0.2474 -0.2577 -0.4914
13331SOL    HW141667   4.348   6.602   4.256  1.3214  0.8315  0.3407
13331SOL    HW241668   4.473   6.597   4.171 -0.2839 -1.9402 -2.0742
13332SOL     OW41669   0.204   6.646   1.047 -0.7672  0.7358 -0.1222
13332SOL    HW141670   0.213   6.655   1.142  1.7085 -0.8892 -0.1025
13332SOL    HW241671   0.281   6.692   1.012 -0.0405 -1.1274 -1.1124
13333SOL     OW41672   2.069   5.217   3.115  0.2658 -0.3300 -0.3462
13333SOL    HW141673   1.998   5.189   3.173 -0.4112 -1.2051 -1.5613
13333SOL    HW241674   2.149   5.204   3.167 -0.4086 -0.0170  0.7816
13334SOL     OW41675   4.480   5.686   8.536 -0.0032  0.0384  0.1396
13334SOL    HW141676   4.449   5.596   8.547  1.5951 -0.9119 -2.2608
13334SOL    HW241677   4.410   5.730   8.488  0.4544 -0.8586 -1.4244
13335SOL     OW41678   5.048   8.706   6.520  0.4228  0.3279  0.1294
13335SOL    HW141679   5.086   8.794   6.513  0.5956  0.3621  1.3985
13335SOL    HW241680   5.116   8.648   6.487  0.9003  0.5455  0.7086
13336SOL     OW41681   0.929   6.219   9.129 -0.0509 -0.6596 -0.0997
13336SOL    HW141682   0.940   6.313   9.118  0.5350 -0.7708 -0.5321
13336SOL    HW241683   0.866   6.193   9.062 -0.9204 -0.4390  0.6181
13337SOL     OW41684   1.228   3.362   0.420  0.0638 -0.1122 -0.1936
13337SOL    HW141685   1.293   3.431   0.413 -0.8094  0.6317 -1.3661
13337SOL    HW241686   1.247   3.319   0.504  2.7126 -0.6462 -0.9828
13338SOL     OW41687   3.055   0.694   3.131 -0.7711  0.6690 -0.3644
13338SOL    HW141688   3.068   0.620   3.191 -1.3535 -0.2543 -1.3433
13338SOL    HW241689   3.052   0.771   3.188  0.7942  0.0695  0.6059
13339SOL     OW41690   8.138   4.155   3.571 -0.3667 -0.2101 -0.0683
13339SOL    HW141691   8.118   4.238   3.614 -0.3421  0.5937 -1.5487
13339SOL    HW241692   8.060   4.136   3.519  0.1515 -0.4043 -0.7893
13340SOL     OW41693   3.223   7.492   2.728  0.3022  0.2796 -0.5417
13340SOL    HW141694   3.287   7.429   2.758 -0.1613 -0.7073 -1.5414
13340SOL    HW241695   3.271   7.574   2.720  0.8914  0.0910  0.8458
13341SOL     OW41696   2.844   2.566   7.758  0.0363 -0.0746 -0.0209
13341SOL    HW141697   2.817   2.577   7.667  2.0226 -1.9064 -0.9354
13341SOL    HW241698   2.931   2.606   7.762 -0.3849  0.7969  1.3622
13342SOL     OW41699   6.253   5.521   3.719  0.4803 -0.0908 -0.4720
13342SOL    HW141700   6.261   5.613   3.693 -0.4840  0.2499  0.3796
13342SOL    HW241701   6.161   5.511   3.743  0.3261 -1.5548 -1.5210
13343SOL     OW41702   1.313   6.087   7.211  0.1645  0.1953  0.0358
13343SOL    HW141703   1.339   6.175   7.239  0.5659 -0.1241  0.6913
13343SOL    HW241704   1.281   6.045   7.291 -0.3044 -0.1592 -0.3351
13344SOL     OW41705   9.573   2.063   4.968 -0.4878  0.1206 -0.1301
13344SOL    HW141706   9.490   2.088   4.927 -2.1066 -1.8328  1.7772
13344SOL    HW241707   9.570   1.968   4.974  1.3245  0.0886  1.1573
13345SOL     OW41708   3.050   1.879   4.813  0.0880  0.0356 -0.0426
13345SOL    HW141709   3.038   1.793   4.773  1.4583  0.7203 -2.0751
13345SOL    HW241710   3.104   1.862   4.890 -1.9574 -1.2168  1.2137
13346SOL     OW41711   6.896   5.647   5.746 -0.2688  0.3489 -0.0096
13346SOL    HW141712   6.809   5.685   5.729 -0.1585  0.9282  0.6735
13346SOL    HW241713   6.953   5.688   5.681 -0.7086 -0.9065 -1.2373
13347SOL     OW41714   9.624   4.807   8.490  0.4061 -0.2275  0.3637
13347SOL    HW141715   9.553   4.744   8.507  1.0609 -0.4378  2.5376
13347SOL    HW241716   9.624   4.816   8.395 -0.7613 -2.2893  0.0942
13348SOL     OW41717   8.368   5.792   8.253 -0.7176  0.2334  0.3264
13348SOL    HW141718   8.375   5.886   8.234 -0.0186 -0.0258 -0.8789
13348SOL    HW241719   8.436   5.776   8.318 -0.0386  0.3767 -0.3286
13349SOL     OW41720   1.733   5.254   1.670 -0.9784  0.0851 -0.2757
13349SOL    HW141721   1.689   5.336   1.649  1.2868  1.3467 -0.3664
13349SOL    HW241722   1.794   5.241   1.598  1.7642  0.6576  1.7876
13350SOL     OW41723   1.892   9.418   0.028 -0.4606  0.3329  0.1890
13350SOL    HW141724   1.830   9.360   0.071  0.9658  0.5953  2.7908
13350SOL    HW241725   1.976   9.372   0.032  0.0132  1.0250 -1.0287
13351SOL     OW41726   3.159   7.890   8.281  0.3727  0.1499  0.1175
13351SOL    HW141727   3.240   7.844   8.301 -0.1065 -1.0624 -0.5664
13351SOL    HW241728   3.091   7.839   8.326  0.0468  1.5739  1.3046
13352SOL     OW41729   5.044   5.849   6.718  0.2007 -0.0893  0.0667
13352SOL    HW141730   5.115   5.801   6.676 -0.1476  0.1684 -0.8345
13352SOL    HW241731   5.079   5.874   6.804  1.4533  0.6883 -0.6580
13353SOL     OW41732   1.772   6.859   8.862  0.2946  0.3491 -0.4130
13353SOL    HW141733   1.782   6.828   8.772  1.8498 -0.6228  0.0714
13353SOL    HW241734   1.768   6.954   8.854  2.1200  0.3874 -1.3946
13354SOL     OW41735   4.330   2.443   3.349  0.6302 -0.8306 -0.0026
13354SOL    HW141736   4.242   2.463   3.380 -0.1160 -0.7781 -2.0576
13354SOL    HW241737   4.334   2.347   3.347  1.6158 -0.9486  2.6212
13355SOL     OW41738   6.303   8.657   1.941 -0.2493 -0.4701 -0.5381
13355SOL    HW141739   6.357   8.603   1.998  0.0612 -0.0949 -0.4733
13355SOL    HW241740   6.364   8.693   1.877 -0.5044 -0.4402 -0.7693
13356SOL     OW41741   6.787   8.411   5.390 -0.1312 -0.1566  0.5037
13356SOL    HW141742   6.722   8.480   5.398  0.7611  0.5506  2.1617
13356SOL    HW241743   6.789   8.369   5.476  0.6173 -1.0685  0.0615
13357SOL     OW41744   4.584   7.107   5.556 -0.1266  0.6575 -0.2656
13357SOL    HW141745   4.532   7.069   5.627 -1.6805  0.0162 -1.6803
13357SOL    HW241746   4.641   7.170   5.599 -0.8709  0.1406  1.5663
13358SOL     OW41747   8.056   6.099   1.332  0.0209 -0.2451 -0.1480
13358SOL    HW141748   8.034   6.016   1.373 -2.2649 -0.3030 -1.3202
13358SOL    HW241749   8.016   6.165   1.389  0.8827  0.0101  0.1859
13359SOL     OW41750   0.046   4.596   2.668 -0.8016  0.3511 -0.3948
13359SOL    HW141751   0.037   4.649   2.747 -0.7416  1.1479 -0.9071
13359SOL    HW241752   0.105   4.646   2.612 -0.5891 -0.3550 -0.8158
13360SOL     OW41753   6.188   0.387   0.183 -0.4927 -0.1418 -0.1201
13360SOL    HW141754   6.259   0.447   0.159 -0.6328  0.5032  0.9728
13360SOL    HW241755   6.200   0.311   0.127  0.2273  0.5409 -0.9256
13361SOL     OW41756   8.382   1.486   2.130  0.3315  0.5903  0.0598
13361SOL    HW141757   8.363   1.568   2.084 -1.2616  0.7564  0.9306
13361SOL    HW241758   8.463   1.454   2.090 -1.0822  0.5321 -3.1223
13362SOL     OW41759   3.135   9.424   2.033  0.1939 -0.4931 -0.5844
13362SOL    HW141760   3.115   9.331   2.022  1.6635 -0.9380  0.2637
13362SOL    HW241761   3.210   9.426   2.092 -0.0168  1.2600 -0.3211
13363SOL     OW41762   0.126   1.346   2.938 -0.2307  0.1096 -0.5472
13363SOL    HW141763   0.146   1.378   2.850 -1.2808 -0.4751 -1.0168
13363SOL    HW241764   0.137   1.251   2.931 -0.8365  0.0122 -0.1931
13364SOL     OW41765   7.501   1.832   7.002 -0.5188  0.3948 -0.0774
13364SOL    HW141766   7.508   1.871   6.915  0.4994 -0.4954 -0.4152
13364SOL    HW241767   7.572   1.873   7.052 -0.1092 -0.2440 -0.1303
13365SOL     OW41768   2.085   9.320   0.219  0.2552  0.0839  0.0836
13365SOL    HW141769   2.042   9.312   0.304  2.4142  0.2276  1.2591
13365SOL    HW241770   2.100   9.230   0.191  2.3332 -0.0854  1.4446
13366SOL     OW41771   3.087   0.962   5.536  0.2514 -0.6923 -0.4603
13366SOL    HW141772   3.135   0.948   5.617 -0.8911  0.2046  0.4082
13366SOL    HW241773   3.152   0.995   5.474  0.6363  1.2741  0.9031
13367SOL     OW41774   0.775   4.956   0.128  0.1160  0.0601 -0.0207
13367SOL    HW141775   0.830   4.900   0.073 -1.6382 -0.3673 -1.4464
13367SOL    HW241776   0.702   4.980   0.071 -0.4138  1.8349  1.3346
13368SOL     OW41777   2.369   3.397   9.662  0.5600  0.1404 -0.0431
13368SOL    HW141778   2.454   3.387   9.704  0.4617  1.0622  0.4120
13368SOL    HW241779   2.322   3.459   9.719  0.2280  1.0073 -1.2258
13369SOL     OW41780   6.991   0.695   1.494 -0.4723  0.3165  0.2298
13369SOL    HW141781   6.994   0.713   1.588  3.7139 -1.6168  0.7195
13369SOL    HW241782   6.961   0.604   1.489  0.1156  0.1422 -0.1964
13370SOL     OW41783   6.768   2.029   1.991 -0.0575  0.0549  0.2376
13370SOL    HW141784   6.808   2.103   2.035 -1.1533  0.3504  0.7823
13370SOL    HW241785   6.724   2.068   1.915  1.0194 -0.3194 -0.5933
13371SOL     OW41786   8.096   2.867   3.724 -0.5430  0.0852 -0.6733
13371SOL    HW141787   8.055   2.946   3.688 -1.6398  0.0500  0.4326
13371SOL    HW241788   8.085   2.875   3.818  3.6859  0.9835 -0.0591
13372SOL     OW41789   6.811   8.496   1.427 -0.0879 -0.3780 -0.0918
13372SOL    HW141790   6.762   8.555   1.369  1.8766  0.0548 -1.3904
13372SOL    HW241791   6.890   8.545   1.451  2.0944 -2.7241 -1.9811
13373SOL     OW41792   5.625   5.478   4.355  0.2935 -0.3856 -0.3877
13373SOL    HW141793   5.608   5.529   4.434  4.0255  0.4522  0.0506
13373SOL    HW241794   5.618   5.540   4.283  1.4343  0.0053 -0.1882
13374SOL     OW41795   4.974   0.933   7.634 -0.2275 -0.2026 -0.4176
13374SOL    HW141796   4.991   0.905   7.545 -0.4142  1.5706 -1.0544
13374SOL    HW241797   4.897   0.883   7.661  0.7475 -1.8914 -0.6503
13375SOL     OW41798   8.476   7.747   9.462 -0.6816 -0.5149  0.4289
13375SOL    HW141799   8.454   7.764   9.553  1.3953 -1.1288  1.0998
13375SOL    HW241800   8.495   7.653   9.459  1.1513 -0.1626 -0.1695
13376SOL     OW41801   6.991   8.634   3.371 -0.2108  0.1271  1.0150
13376SOL    HW141802   6.983   8.713   3.424  0.2263 -1.5293  3.7582
13376SOL    HW241803   7.078   8.599   3.392  0.7941  0.2612 -2.2788
13377SOL     OW41804   3.888   7.077   3.755  0.1214 -0.4652  0.5150
13377SOL    HW141805   3.850   7.117   3.833 -0.3049 -1.7801  0.9922
13377SOL    HW241806   3.976   7.116   3.749 -0.5089  1.0634  0.5485
13378SOL     OW41807   4.830   0.254   1.647  0.2749 -0.2543 -0.2518
13378SOL    HW141808   4.905   0.290   1.696 -0.1288 -0.1836  0.3209
13378SOL    HW241809   4.858   0.258   1.556  0.6911  0.4563 -0.1039
13379SOL     OW41810   2.074   1.414   7.412  0.5139 -0.2336  0.2641
13379SOL    HW141811   2.168   1.418   7.433  0.5049  2.0127  0.1867
13379SOL    HW241812   2.039   1.496   7.447 -1.1843 -0.4508 -0.8270
13380SOL     OW41813   6.153   3.239   9.006  0.5522 -0.2981  0.1678
13380SOL    HW141814   6.193   3.311   9.054  0.8078  0.1775 -0.7397
13380SOL    HW241815   6.105   3.281   8.935 -0.5358 -0.9397  0.5032
13381SOL     OW41816   4.743   2.466   9.638  0.0385 -0.0976  0.1847
13381SOL    HW141817   4.815   2.509   9.591  0.8741 -0.6943  0.8819
13381SOL    HW241818   4.787   2.407   9.699 -1.0608 -0.6778  0.4322
13382SOL     OW41819   1.035   2.693   3.163 -0.3013 -0.4544  0.4383
13382SOL    HW141820   1.116   2.739   3.183 -0.5328  0.4368 -0.5723
13382SOL    HW241821   1.038   2.614   3.217  1.5079 -0.7523 -0.0263
13383SOL     OW41822   2.525   0.601   8.249  0.2388  0.7579 -0.0435
13383SOL    HW141823   2.454   0.635   8.304  0.1602 -2.3427  2.0682
13383SOL    HW241824   2.482   0.538   8.191  1.0556 -0.3750  0.5373
13384SOL     OW41825   9.492   7.912   1.010  0.2466 -0.6475 -0.1008
13384SOL    HW141826   9.442   7.839   0.974  1.8136 -1.8235 -0.0110
13384SOL    HW241827   9.539   7.948   0.935 -1.1884  0.8951 -0.3192
13385SOL     OW41828   1.228   2.269   8.803  0.5940 -0.3337 -0.2199
13385SOL    HW141829   1.195   2.229   8.723 -1.8646  0.6667  0.1974
13385SOL    HW241830   1.158   2.255   8.867  0.9094  2.0460  0.7323
13386SOL     OW41831   4.254   3.525   3.162  0.0922  0.3849  0.2245
13386SOL    HW141832   4.188   3.459   3.183 -0.2669  0.2641 -1.1491
13386SOL    HW241833   4.297   3.491   3.083  1.4495  0.7183  0.8014
13387SOL     OW41834   5.429   9.289   3.119  0.2185  0.0477  0.2811
13387SOL    HW141835   5.440   9.376   3.081 -2.2061 -0.5338 -2.0789
13387SOL    HW241836   5.387   9.305   3.203 -1.3718  1.1806 -0.6727
13388SOL     OW41837   8.272   1.219   5.162 -0.4589  0.0880  0.0035
13388SOL    HW141838   8.332   1.206   5.088  0.4920  1.0279  0.5750
13388SOL    HW241839   8.234   1.306   5.147 -0.0705  0.3945  0.7242
13389SOL     OW41840   2.746   7.940   3.649 -0.0659  0.3238  0.1671
13389SOL    HW141841   2.796   7.932   3.567  1.4814 -0.7139  1.1685
13389SOL    HW241842   2.701   7.856   3.658  1.1071 -0.2269  1.1889
13390SOL     OW41843   2.245   7.769   4.375  0.0386  0.2348  0.3367
13390SOL    HW141844   2.325   7.819   4.388  1.3015 -1.6839  0.3111
13390SOL    HW241845   2.229   7.773   4.280 -0.3165  1.1991  0.4269
13391SOL     OW41846   2.071   5.880   7.861  0.5499 -0.2118  0.8208
13391SOL    HW141847   2.105   5.796   7.831  1.6188  0.4315  0.1620
13391SOL    HW241848   2.016   5.858   7.937  0.6124 -1.5152  0.5117
13392SOL     OW41849   4.039   5.348   8.109 -0.3988 -0.4365 -0.0652
13392SOL    HW141850   3.946   5.337   8.089 -0.6066  1.6643 -0.4242
13392SOL    HW241851   4.046   5.437   8.143  1.2075 -1.1999  1.8138
13393SOL     OW41852   7.433   4.009   7.689 -0.3180 -0.4881  0.2203
13393SOL    HW141853   7.388   3.988   7.771  2.6855 -0.0217  2.1443
13393SOL    HW241854   7.499   3.940   7.679 -0.0467 -0.0415 -1.3598
13394SOL     OW41855   0.865   6.562   9.099  0.0248 -0.3602  0.2256
13394SOL    HW141856   0.804   6.567   9.024  0.7529  0.6023 -0.3209
13394SOL    HW241857   0.949   6.589   9.063  0.1136  1.4988  1.6926
13395SOL     OW41858   6.561   6.997   9.333  0.0113 -0.4121 -0.1248
13395SOL    HW141859   6.639   6.989   9.389 -0.5608 -0.3327  0.6983
13395SOL    HW241860   6.523   7.081   9.356 -0.3519 -0.4706 -0.4903
13396SOL     OW41861   0.344   5.777   5.103  0.0957 -0.2011  0.1380
13396SOL    HW141862   0.376   5.800   5.190  0.2656  0.0307  0.0164
13396SOL    HW241863   0.250   5.765   5.114 -0.1768  1.6066 -0.0027
13397SOL     OW41864   2.339   3.748   5.650 -0.1191  1.0360 -0.0031
13397SOL    HW141865   2.274   3.818   5.643 -1.1928  0.4527  2.7207
13397SOL    HW241866   2.293   3.669   5.620  0.4790  1.1444 -1.2757
13398SOL     OW41867   2.522   1.147   4.840  0.3122  0.6798 -0.0342
13398SOL    HW141868   2.597   1.200   4.815  2.0096 -1.7539 -0.4814
13398SOL    HW241869   2.557   1.083   4.902 -1.3527 -0.5922 -0.3140
13399SOL     OW41870   6.310   5.844   7.149  0.1572  0.0908 -0.1477
13399SOL    HW141871   6.353   5.910   7.094  1.0261 -1.8877 -2.0054
13399SOL    HW241872   6.332   5.868   7.239  1.3053  1.7208 -0.8319
13400SOL     OW41873   8.150   0.175   2.181  0.3900 -0.6776  0.0759
13400SOL    HW141874   8.200   0.188   2.101  0.3418 -0.4537  0.0815
13400SOL    HW241875   8.090   0.249   2.185 -0.5873 -1.4264 -0.4091
13401SOL     OW41876   9.575   4.210   5.304 -0.0845 -0.2133  0.0236
13401SOL    HW141877   9.670   4.196   5.301  0.1485  0.3070  2.5705
13401SOL    HW241878   9.538   4.124   5.325  0.1117  0.0955  1.7724
13402SOL     OW41879   0.875   2.574   4.379 -0.9008  0.0588 -0.4178
13402SOL    HW141880   0.786   2.606   4.390 -0.6855  0.9821 -1.1927
13402SOL    HW241881   0.873   2.525   4.297 -0.5536  0.6826 -0.8109
13403SOL     OW41882   8.591   9.075   3.307  0.0079 -0.3866 -0.2076
13403SOL    HW141883   8.558   9.006   3.365 -0.7038 -0.4234 -0.6462
13403SOL    HW241884   8.668   9.109   3.352 -0.3255 -0.6576  0.5938
13404SOL     OW41885   2.211   2.233   7.359  0.3086  0.1196  0.4586
13404SOL    HW141886   2.287   2.184   7.327  2.1594  2.0881  1.5886
13404SOL    HW241887   2.144   2.166   7.374  2.0891 -1.8151  0.2356
13405SOL     OW41888   0.832   4.613   1.199  0.0291 -0.2232  0.0651
13405SOL    HW141889   0.878   4.529   1.192  2.3267  0.9897 -0.2702
13405SOL    HW241890   0.785   4.607   1.282  1.3156 -1.3175  0.7603
13406SOL     OW41891   7.580   8.841   3.800  0.2504 -0.1905  0.7414
13406SOL    HW141892   7.573   8.767   3.860 -3.0453 -0.7707 -0.1452
13406SOL    HW241893   7.635   8.809   3.728  0.2220 -1.2039  1.1640
13407SOL     OW41894   3.926   1.646   7.405 -0.1678 -0.0068  0.0409
13407SOL    HW141895   3.858   1.651   7.337 -2.1447  2.2503  1.9979
13407SOL    HW241896   3.994   1.706   7.375 -0.5067  0.1292 -0.4821
13408SOL     OW41897   4.487   8.636   8.136 -0.7036 -0.0108 -0.5292
13408SOL    HW141898   4.433   8.703   8.178  1.2168  0.5758  1.1927
13408SOL    HW241899   4.574   8.676   8.130 -0.0131 -1.5709 -1.4892
13409SOL     OW41900   4.772   7.621   2.549 -0.1033  0.1274 -0.2090
13409SOL    HW141901   4.750   7.581   2.633  1.3230 -0.8575 -0.2739
13409SOL    HW241902   4.825   7.697   2.572 -1.0831  0.8232 -0.1758
13410SOL     OW41903   2.936   4.996   6.154 -0.1976  0.1998 -0.7213
13410SOL    HW141904   2.866   4.939   6.186 -0.5661  0.6217 -0.7608
13410SOL    HW241905   2.981   4.944   6.087 -1.0068  0.2233 -1.2961
13411SOL     OW41906   3.616   7.833   8.829 -0.2213 -0.0935 -0.4784
13411SOL    HW141907   3.584   7.843   8.739  0.3514 -1.7460 -0.8992
13411SOL    HW241908   3.542   7.798   8.878  0.3877 -2.4375 -1.1092
13412SOL     OW41909   0.175   8.747   1.863 -0.7566  0.3155  0.2845
13412SOL    HW141910   0.121   8.769   1.787 -0.6749 -0.1953  0.0741
13412SOL    HW241911   0.121   8.685   1.913 -0.1934 -0.5716 -0.1712
13413SOL     OW41912   4.357   7.164   0.007  0.3566  0.4555  0.0312
13413SOL    HW141913   4.421   7.140   0.074 -0.6089 -1.1292  0.4483
13413SOL    HW241914   4.293   7.219   0.052  0.5442  0.6778  0.0249
13414SOL     OW41915   4.466   6.196   9.023  0.2423 -0.4526  0.2220
13414SOL    HW141916   4.438   6.206   8.932 -0.0624  0.7614  0.4364
13414SOL    HW241917   4.541   6.136   9.019  0.6839  0.1543 -0.9100
13415SOL     OW41918   5.984   2.502   4.475 -0.6679 -0.4821 -0.0025
13415SOL    HW141919   5.891   2.484   4.465 -0.4397 -1.3653 -0.6131
13415SOL    HW241920   6.000   2.496   4.569 -0.8990 -2.0114 -0.0495
13416SOL     OW41921   9.644   2.106   1.465  0.0801 -0.2291 -0.5966
13416SOL    HW141922   9.642   2.054   1.385 -0.0990  0.4357 -1.0362
13416SOL    HW241923   9.562   2.156   1.463 -0.1885 -0.6115  0.2838
13417SOL     OW41924   9.359   6.565   1.390 -0.2640  0.7571 -0.2059
13417SOL    HW141925   9.454   6.558   1.404 -0.3359  1.9612  1.0767
13417SOL    HW241926   9.324   6.589   1.475 -1.8275 -0.3513 -0.5016
13418SOL     OW41927   4.155   9.286   2.046  0.1632  0.4775  0.1009
13418SOL    HW141928   4.166   9.249   2.134 -1.8964  0.4811  0.4113
13418SOL    HW241929   4.216   9.236   1.992  0.0841 -0.8745  1.1871
13419SOL     OW41930   0.045   5.344   4.765 -0.3092  0.4758 -0.2950
13419SOL    HW141931   0.109   5.399   4.719 -0.7588  0.0926 -1.4240
13419SOL    HW241932   0.024   5.393   4.845  0.5383  1.1434 -0.4655
13420SOL     OW41933   6.877   7.940   4.611  0.1626  0.4260 -0.4656
13420SOL    HW141934   6.892   8.000   4.538 -0.0998  2.7149  1.2596
13420SOL    HW241935   6.807   7.980   4.662 -1.1602 -2.1838 -0.0406
13421SOL     OW41936   6.515   8.174   2.750 -0.8105 -0.9246 -0.1153
13421SOL    HW141937   6.494   8.262   2.718 -1.6263 -1.1993 -0.3699
13421SOL    HW241938   6.592   8.148   2.700 -1.0612 -0.6820 -0.6349
13422SOL     OW41939   2.239   7.898   5.275 -0.0188 -0.4922 -0.0235
13422SOL    HW141940   2.210   7.981   5.236  0.4624 -0.8012 -1.0506
13422SOL    HW241941   2.245   7.918   5.369 -2.0294  0.0146  0.0490
13423SOL     OW41942   7.394   8.747   2.738  0.0858 -0.0897  0.0856
13423SOL    HW141943   7.299   8.749   2.748 -0.3005 -0.7601 -2.6085
13423SOL    HW241944   7.416   8.833   2.702  0.4823 -0.0064  0.5237
13424SOL     OW41945   2.421   3.999   7.414  0.0065 -0.2851  0.2517
13424SOL    HW141946   2.333   3.983   7.448 -0.0742  0.1869  0.2669
13424SOL    HW241947   2.470   4.036   7.488  0.4177 -1.1895  0.4457
13425SOL     OW41948   9.353   6.168   2.778  0.4249 -0.8016 -0.0365
13425SOL    HW141949   9.339   6.156   2.872 -1.5723 -2.5495 -0.4682
13425SOL    HW241950   9.445   6.146   2.764  0.3617 -2.0993  1.3125
13426SOL     OW41951   2.311   5.203   1.986  0.1899  0.4910 -1.0025
13426SOL    HW141952   2.367   5.131   1.955  1.6707  0.4451  1.4641
13426SOL    HW241953   2.227   5.161   2.005 -0.0227  0.1030 -2.6431
13427SOL     OW41954   9.560   3.930   0.743 -0.1412 -0.3855 -0.7213
13427SOL    HW141955   9.484   3.922   0.801 -0.0695 -2.1727 -0.8281
13427SOL    HW241956   9.522   3.947   0.657 -0.2978  1.0525 -0.3956
13428SOL     OW41957   8.609   9.340   3.069 -0.2019 -0.0781  0.0476
13428SOL    HW141958   8.626   9.344   3.163  0.9777  2.0546 -0.2002
13428SOL    HW241959   8.683   9.291   3.034  0.8317  1.4771 -0.0300
13429SOL     OW41960   2.903   3.840   1.236 -0.3786  0.0109 -0.1308
13429SOL    HW141961   2.963   3.900   1.192 -1.3225  0.7239 -0.4992
13429SOL    HW241962   2.880   3.884   1.318 -1.1991  0.2516 -0.4748
13430SOL     OW41963   8.411   2.888   7.479 -0.0047 -0.4333  0.0889
13430SOL    HW141964   8.359   2.951   7.429  0.1946 -0.4923 -0.1951
13430SOL    HW241965   8.502   2.912   7.461  0.0740 -0.3346  0.5762
13431SOL     OW41966   1.200   1.273   2.104  0.3214 -0.2406  0.2451
13431SOL    HW141967   1.267   1.219   2.146 -0.6688 -1.1523  0.7097
13431SOL    HW241968   1.146   1.210   2.056  0.4892  0.6080 -1.1173
13432SOL     OW41969   4.313   3.557   4.131 -0.0817  0.1790 -0.2731
13432SOL    HW141970   4.349   3.633   4.177 -0.2771  0.4145 -0.5080
13432SOL    HW241971   4.293   3.495   4.201  0.5273  0.1481 -0.1187
13433SOL     OW41972   2.135   1.115   7.406 -0.3717 -0.6305  0.4420
13433SOL    HW141973   2.095   1.197   7.435 -0.6444 -1.1230  1.5176
13433SOL    HW241974   2.064   1.051   7.411 -0.5250 -0.6997 -1.6727
13434SOL     OW41975   3.210   3.753   0.098 -0.0959  0.2918  0.1417
13434SOL    HW141976   3.289   3.805   0.086 -0.1778  0.0555 -1.5803
13434SOL    HW241977   3.197   3.708   0.015 -1.7879 -0.0326  0.5396
13435SOL     OW41978   7.218   5.496   3.023  0.2772 -0.3389  0.0846
13435SOL    HW141979   7.134   5.499   3.068 -0.1607 -1.7644 -0.5875
13435SOL    HW241980   7.208   5.556   2.948  0.0440 -0.1206  0.2919
13436SOL     OW41981   2.921   6.531   1.136  0.4142  0.1983  0.1365
13436SOL    HW141982   2.926   6.444   1.175  0.2134  0.0563 -0.1466
13436SOL    HW241983   2.857   6.522   1.065  0.6702  0.4828 -0.1363
13437SOL     OW41984   9.488   9.041   7.928  0.1269 -0.1927 -0.0005
13437SOL    HW141985   9.485   8.947   7.912  1.8409 -0.6272  1.7947
13437SOL    HW241986   9.453   9.052   8.017  0.7091  0.7597  0.1267
13438SOL     OW41987   9.643   4.454   5.943 -0.1489  0.3432 -0.4336
13438SOL    HW141988   9.596   4.479   6.022 -0.2340  0.4760 -0.5255
13438SOL    HW241989   9.735   4.474   5.962 -0.3294  1.7647 -0.8914
13439SOL     OW41990   1.307   3.996   8.835 -0.0577 -0.4494  0.2106
13439SOL    HW141991   1.304   4.055   8.759 -0.2089 -1.3121 -0.4690
13439SOL    HW241992   1.228   3.943   8.827  0.0613 -0.7243  0.8256
13440SOL     OW41993   3.575   0.189   6.325 -0.2412 -0.0268 -0.1168
13440SOL    HW141994   3.489   0.222   6.303  0.0120  0.3782 -0.4997
13440SOL    HW241995   3.592   0.223   6.413 -1.5505 -2.2298  1.0875
13441SOL     OW41996   4.879   2.883   2.591 -0.1258 -0.1375 -0.4349
13441SOL    HW141997   4.913   2.901   2.679  0.3525 -2.0372 -0.1904
13441SOL    HW241998   4.795   2.930   2.589 -1.2658 -1.8478  1.9101
13442SOL     OW41999   4.433   3.404   6.450  0.2501 -0.1517 -0.2022
13442SOL    HW142000   4.523   3.398   6.480 -0.0764  1.2749  1.1627
13442SOL    HW242001   4.436   3.466   6.377  0.3466 -0.0445 -0.1058
13443SOL     OW42002   5.070   1.915   2.583  0.0352  0.2438 -0.5003
13443SOL    HW142003   5.098   1.878   2.499  4.5836 -0.8208  1.1663
13443SOL    HW242004   5.060   1.840   2.640  2.5910  1.0516  1.1987
13444SOL     OW42005   4.729   6.957   5.870 -0.3616 -0.0841 -0.3943
13444SOL    HW142006   4.639   6.942   5.841 -1.7744  1.6311  2.6647
13444SOL    HW242007   4.766   6.869   5.881 -1.7279 -0.8160 -1.4155
13445SOL     OW42008   8.947   2.790   1.396 -0.6192 -0.9008 -0.1955
13445SOL    HW142009   9.032   2.829   1.375 -0.6936  0.2772  1.5027
13445SOL    HW242010   8.942   2.712   1.341  0.4375  0.3690 -2.2086
13446SOL     OW42011   6.687   2.304   6.247 -0.0656  0.2797  0.6438
13446SOL    HW142012   6.781   2.318   6.238 -0.2444  1.2769  0.2421
13446SOL    HW242013   6.649   2.343   6.168 -0.9186  1.0729  1.4272
13447SOL     OW42014   0.994   6.139   8.757  0.5445 -0.3135  0.1608
13447SOL    HW142015   1.047   6.062   8.778 -1.7260 -1.9595  0.2242
13447SOL    HW242016   0.937   6.151   8.833  0.4077  1.0383 -0.1290
13448SOL     OW42017   7.330   7.247   9.240 -0.1111  0.4524  0.1638
13448SOL    HW142018   7.322   7.167   9.291 -1.4537  1.0953  1.0440
13448SOL    HW242019   7.310   7.317   9.302  2.3256  1.6115 -0.2441
13449SOL     OW42020   3.351   0.676   0.243 -0.4285 -0.1498  0.5136
13449SOL    HW142021   3.444   0.700   0.247 -0.6681  2.0045 -2.7560
13449SOL    HW242022   3.307   0.742   0.297 -0.1283 -1.1081  1.9797
13450SOL     OW42023   5.377   3.628   1.284 -0.1362 -0.0517 -0.1958
13450SOL    HW142024   5.459   3.674   1.303 -1.0876  1.2847  0.9201
13450SOL    HW242025   5.316   3.698   1.261 -1.0312 -1.0040 -0.7634
13451SOL     OW42026   2.449   2.515   7.652 -0.0712 -0.7244 -0.1463
13451SOL    HW142027   2.542   2.495   7.646  0.0186 -0.0485 -1.2210
13451SOL    HW242028   2.447   2.605   7.685 -0.2024  0.4683 -3.0974
13452SOL     OW42029   0.209   8.224   3.793  0.3711 -0.2760  0.0548
13452SOL    HW142030   0.159   8.156   3.837 -0.2561 -0.0413 -0.2844
13452SOL    HW242031   0.259   8.267   3.863 -2.2864  1.5859  0.9883
13453SOL     OW42032   0.141   6.610   9.298  0.1297 -0.2172 -0.9546
13453SOL    HW142033   0.114   6.534   9.350 -0.4614  0.0178 -0.9048
13453SOL    HW242034   0.210   6.577   9.241  0.9033 -0.4437  0.0761
13454SOL     OW42035   4.682   1.712   8.415 -0.3765  0.3352  0.2592
13454SOL    HW142036   4.741   1.662   8.471 -1.0826  1.9026  2.5541
13454SOL    HW242037   4.604   1.657   8.406  0.1196 -0.3352 -0.0143
13455SOL     OW42038   4.580   3.052   9.020 -0.3876 -0.4674  0.0679
13455SOL    HW142039   4.658   3.032   8.969 -0.9250  0.1330 -1.0232
13455SOL    HW242040   4.606   3.126   9.075 -0.3844  0.2379 -0.8481
13456SOL     OW42041   4.920   5.297   1.479 -0.6900  0.4303  0.6564
13456SOL    HW142042   4.975   5.363   1.438 -0.3723  0.0683  0.4907
13456SOL    HW242043   4.925   5.316   1.573  0.1876  0.0563  0.7006
13457SOL     OW42044   2.629   1.669   7.392  0.6260  0.0198  0.1732
13457SOL    HW142045   2.653   1.613   7.317 -0.7683 -0.8499  0.3386
13457SOL    HW242046   2.609   1.607   7.462 -0.5366  0.7328  0.4950
13458SOL     OW42047   7.334   5.218   8.365  0.1403 -0.1421 -0.1161
13458SOL    HW142048   7.340   5.147   8.301  1.1263 -0.3221  0.1698
13458SOL    HW242049   7.399   5.282   8.337 -1.0396  0.8759 -0.6202
13459SOL     OW42050   6.817   8.773   1.739 -0.2514 -0.0234 -0.4700
13459SOL    HW142051   6.813   8.850   1.796 -0.1015 -1.3098  1.3541
13459SOL    HW242052   6.734   8.775   1.691 -0.5367  0.9229  0.0231
13460SOL     OW42053   6.144   3.003   3.268 -0.4383 -0.3915  0.4230
13460SOL    HW142054   6.162   3.010   3.361 -0.9676  0.5768  0.4683
13460SOL    HW242055   6.066   2.947   3.262  1.2273 -2.8236  0.3562
13461SOL     OW42056   5.005   8.907   0.214  0.4530 -0.1636 -0.3402
13461SOL    HW142057   4.942   8.837   0.196 -1.5776  0.6543  2.7802
13461SOL    HW242058   4.993   8.969   0.142 -0.9881 -0.9001 -0.7715
13462SOL     OW42059   0.689   5.586   0.474 -0.2470 -0.0518  0.4351
13462SOL    HW142060   0.731   5.510   0.435 -0.4356 -0.8192  1.7013
13462SOL    HW242061   0.601   5.556   0.498 -1.0971  1.1572 -0.9368
13463SOL     OW42062   1.142   5.096   2.572 -0.0627  0.1528 -0.0089
13463SOL    HW142063   1.150   5.130   2.661  0.6840 -1.3328  0.5306
13463SOL    HW242064   1.175   5.167   2.516 -0.0711  0.9192  0.9276
13464SOL     OW42065   1.486   1.363   2.443 -0.0935  0.1022  0.2361
13464SOL    HW142066   1.428   1.351   2.519  0.5689 -1.9667  0.4869
13464SOL    HW242067   1.428   1.397   2.375 -1.0726  0.3988  1.1672
13465SOL     OW42068   2.728   1.460   6.652  0.5430  0.0605  0.5418
13465SOL    HW142069   2.634   1.475   6.643  0.5683  0.0530  0.2480
13465SOL    HW242070   2.740   1.367   6.630  0.9994  0.7341 -2.5470
13466SOL     OW42071   1.725   9.494   6.584  0.2026 -0.1906  0.3774
13466SOL    HW142072   1.770   9.482   6.500  0.1073 -0.2673  0.3375
13466SOL    HW242073   1.765   9.429   6.642  0.7620  0.3326  0.5881
13467SOL     OW42074   7.707   0.325   7.713  0.2533  0.3963 -0.0369
13467SOL    HW142075   7.642   0.357   7.651  0.8310  1.1995 -0.2272
13467SOL    HW242076   7.661   0.324   7.797 -0.1410  0.5054 -0.2504
13468SOL     OW42077   2.460   7.928   6.307 -0.1019  0.6189 -0.2745
13468SOL    HW142078   2.429   7.851   6.259  1.1602 -0.4133  0.4874
13468SOL    HW242079   2.392   7.945   6.372  0.3762 -0.9724  0.7060
13469SOL     OW42080   0.920   0.098   7.534 -0.1475 -0.0421 -0.0153
13469SOL    HW142081   0.830   0.087   7.504  0.5438 -0.6167 -2.0708
13469SOL    HW242082   0.952   0.176   7.487  0.2774  0.4996  1.1300
13470SOL     OW42083   8.148   6.305   5.874 -0.5174  0.2952  0.4099
13470SOL    HW142084   8.123   6.213   5.878 -1.6002  0.6099  1.3042
13470SOL    HW242085   8.244   6.304   5.875 -0.5227 -0.7810  1.2809
13471SOL     OW42086   6.533   6.898   1.580 -0.1415  0.3066  0.4154
13471SOL    HW142087   6.512   6.834   1.511 -1.2651  0.0192  1.0119
13471SOL    HW242088   6.470   6.969   1.567 -0.2007  0.3633  0.9891
13472SOL     OW42089   1.373   9.633   6.205 -0.0894 -0.0574  0.3870
13472SOL    HW142090   1.308   9.684   6.156 -0.8640 -2.9165 -1.8128
13472SOL    HW242091   1.328   9.607   6.285  0.1937  2.1869  1.3752
13473SOL     OW42092   2.131   1.266   1.153 -0.3888 -0.0893  0.1373
13473SOL    HW142093   2.052   1.216   1.134 -0.5344 -0.1606  0.8973
13473SOL    HW242094   2.203   1.206   1.131 -0.5404 -0.0258 -0.5495
13474SOL     OW42095   5.672   4.774   2.538 -0.0187 -0.3789 -0.0554
13474SOL    HW142096   5.600   4.836   2.533 -0.6006 -1.0984 -0.8166
13474SOL    HW242097   5.674   4.748   2.631 -0.3183  0.1296  0.0983
13475SOL     OW42098   1.190   8.479   2.015 -0.1106  0.6817  0.5224
13475SOL    HW142099   1.247   8.462   1.940 -0.8189  1.0391 -0.1054
13475SOL    HW242100   1.248   8.517   2.081  0.7436 -0.6721  0.5804
13476SOL     OW42101   4.587   6.527   8.974 -0.6336 -0.3383 -0.1711
13476SOL    HW142102   4.514   6.585   8.951  0.2791  0.6240 -0.7141
13476SOL    HW242103   4.576   6.510   9.067 -0.4875  1.3460  0.1696
13477SOL     OW42104   5.099   0.308   6.888 -0.0469 -0.5875  0.0570
13477SOL    HW142105   5.024   0.365   6.907  0.4934 -0.3598  1.7459
13477SOL    HW242106   5.060   0.226   6.857 -0.9057  0.1129 -0.7762
13478SOL     OW42107   0.289   7.762   9.036  0.2252 -0.8545 -0.1831
13478SOL    HW142108   0.255   7.759   9.125  0.8120 -1.1841  0.0368
13478SOL    HW242109   0.211   7.764   8.981 -0.1638  0.9251  0.3552
13479SOL     OW42110   3.130   1.282   4.869 -0.7649  0.2069  0.0128
13479SOL    HW142111   3.072   1.228   4.815 -0.0950  0.8228 -1.3596
13479SOL    HW242112   3.078   1.300   4.948 -1.1670 -2.0452  0.3415
13480SOL     OW42113   3.000   8.833   7.265 -0.2742 -0.5925  0.2427
13480SOL    HW142114   2.985   8.799   7.176  0.3256 -1.3725  0.4293
13480SOL    HW242115   3.016   8.755   7.318 -0.3082 -0.1072  0.9742
13481SOL     OW42116   1.814   4.569   9.079  0.1888  0.2942  0.4572
13481SOL    HW142117   1.894   4.528   9.113  0.2204  1.6947  2.2421
13481SOL    HW242118   1.800   4.528   8.994  1.4632 -1.7132  1.1453
13482SOL     OW42119   6.332   3.711   7.899 -0.6782  0.7357  0.4319
13482SOL    HW142120   6.297   3.657   7.829 -1.1060 -0.7421  1.7159
13482SOL    HW242121   6.258   3.764   7.929 -1.1215 -0.3473  1.2954
13483SOL     OW42122   0.775   8.485   7.531 -0.6328 -0.2442  0.0757
13483SOL    HW142123   0.750   8.423   7.463  2.9026 -1.9641  0.0732
13483SOL    HW242124   0.793   8.430   7.608 -0.6483  1.1871  1.1502
13484SOL     OW42125   4.690   3.370   5.703  0.5746  0.1208 -0.3033
13484SOL    HW142126   4.720   3.281   5.722  0.1776  0.2520  1.0354
13484SOL    HW242127   4.736   3.425   5.766 -2.1507  0.3646  1.5976
13485SOL     OW42128   5.192   5.124   7.291  0.0108 -0.2857  0.6147
13485SOL    HW142129   5.106   5.157   7.316  0.4035  0.0983  1.4838
13485SOL    HW242130   5.221   5.183   7.221 -0.7077 -0.8271 -0.1674
13486SOL     OW42131   2.480   8.823   9.090 -0.5939  0.1436 -0.0846
13486SOL    HW142132   2.552   8.782   9.041 -1.2178  0.4440 -1.3003
13486SOL    HW242133   2.519   8.845   9.175 -0.1427 -2.5853  0.5001
13487SOL     OW42134   5.967   4.891   3.560  0.3678  0.0007  0.1416
13487SOL    HW142135   5.959   4.851   3.646  0.1551  1.0133  0.6195
13487SOL    HW242136   6.008   4.976   3.577 -2.8325  1.8146 -0.1899
13488SOL     OW42137   7.604   8.420   0.508  0.2658 -0.5298 -0.5330
13488SOL    HW142138   7.573   8.489   0.448  0.6753  0.6270  0.5275
13488SOL    HW242139   7.556   8.342   0.482 -0.2037  0.1556 -1.8001
13489SOL     OW42140   8.268   6.716   0.641  0.5610 -0.1343  0.4344
13489SOL    HW142141   8.287   6.702   0.548  1.3128  1.1714  0.3683
13489SOL    HW242142   8.294   6.634   0.683 -0.9206 -1.1995 -0.6352
13490SOL     OW42143   4.715   0.344   4.490  0.1482  0.3918 -0.3387
13490SOL    HW142144   4.645   0.318   4.431  0.2544 -0.0750 -0.2590
13490SOL    HW242145   4.718   0.440   4.483 -0.0234  0.3584 -0.8732
13491SOL     OW42146   7.633   4.117   8.434  0.1435 -0.2650 -0.5705
13491SOL    HW142147   7.554   4.064   8.441 -0.0444  0.0354 -0.3756
13491SOL    HW242148   7.692   4.066   8.380 -0.8197  0.2605 -2.1996
13492SOL     OW42149   6.051   4.591   9.524 -0.0041 -0.0715 -0.4676
13492SOL    HW142150   6.085   4.587   9.613  1.3180 -1.6923 -0.9997
13492SOL    HW242151   5.978   4.653   9.529  2.9927  3.7528  0.7104
13493SOL     OW42152   2.237   4.232   2.629  0.5718 -0.0504  0.8803
13493SOL    HW142153   2.276   4.305   2.677  0.5614  1.7613 -1.6590
13493SOL    HW242154   2.214   4.268   2.543  0.3449 -2.9897 -0.4538
13494SOL     OW42155   8.904   0.200   7.569  0.0527  0.0938  0.1456
13494SOL    HW142156   8.920   0.266   7.637  0.8741  1.8942 -1.6654
13494SOL    HW242157   8.964   0.129   7.591 -0.3196  0.2258  1.7509
13495SOL     OW42158   9.418   8.044   1.270  0.3972 -0.1690 -0.3956
13495SOL    HW142159   9.458   7.960   1.248  2.3476  0.9923 -1.5303
13495SOL    HW242160   9.415   8.092   1.187 -0.2240  1.0854  0.3197
13496SOL     OW42161   5.983   6.771   0.501 -0.0231 -0.4493 -0.4486
13496SOL    HW142162   6.019   6.683   0.494  1.4165  0.1199 -0.6043
13496SOL    HW242163   6.001   6.798   0.591 -0.9567 -0.5067 -0.2343
13497SOL     OW42164   5.411   5.638   1.700 -0.1496  0.3968  0.1863
13497SOL    HW142165   5.426   5.661   1.792  0.7806 -0.4926  0.2691
13497SOL    HW242166   5.403   5.723   1.656 -1.5219  0.8497  1.2053
13498SOL     OW42167   5.008   0.059   2.162 -0.0259 -0.4008 -0.2631
13498SOL    HW142168   5.083   0.021   2.209 -0.5433 -0.2668  0.6984
13498SOL    HW242169   5.020   0.030   2.072  1.2573 -0.2689 -0.1587
13499SOL     OW42170   3.105   3.769   4.431  0.3124 -0.1719  0.5806
13499SOL    HW142171   3.082   3.733   4.345 -1.1143 -0.9240  1.2342
13499SOL    HW242172   3.052   3.848   4.439 -0.6684 -0.8771  1.3241
13500SOL     OW42173   4.298   5.072   3.004  0.2484  0.4334 -0.1623
13500SOL    HW142174   4.351   4.997   2.979  0.8185  0.7653  0.0123
13500SOL    HW242175   4.359   5.129   3.053  0.0530  1.3848 -0.9963
13501SOL     OW42176   6.322   1.557   8.040 -0.0534 -0.0789  0.2364
13501SOL    HW142177   6.248   1.614   8.061 -0.1955  0.8060 -2.2862
13501SOL    HW242178   6.287   1.496   7.975  1.1393 -0.3395 -0.1854
13502SOL     OW42179   1.038   5.366   3.113  0.4830  0.1059  0.2592
13502SOL    HW142180   1.033   5.438   3.051 -1.9914 -0.2508 -0.0463
13502SOL    HW242181   1.074   5.405   3.193 -0.4037  1.5759 -0.0294
13503SOL     OW42182   7.625   4.078   3.476 -0.3107 -0.4513  0.2429
13503SOL    HW142183   7.545   4.125   3.500 -0.1881  0.0001 -0.2014
13503SOL    HW242184   7.632   4.007   3.539 -1.1269 -0.5614  0.2124
13504SOL     OW42185   6.031   7.432   9.200 -0.2619 -0.2376  0.9810
13504SOL    HW142186   5.938   7.448   9.183 -0.1677  0.6274  1.2585
13504SOL    HW242187   6.063   7.513   9.239  0.0208 -1.4415  3.4019
13505SOL     OW42188   6.102   8.877   4.451  0.1054  0.3122 -0.6204
13505SOL    HW142189   6.189   8.842   4.429 -0.3535 -0.4596 -1.2685
13505SOL    HW242190   6.096   8.958   4.401 -0.2375 -0.5468 -2.0297
13506SOL     OW42191   8.662   6.737   6.113 -0.0757 -0.1597 -0.4553
13506SOL    HW142192   8.609   6.663   6.086 -0.1237  0.0651 -0.9886
13506SOL    HW242193   8.726   6.748   6.043  0.6526 -0.4058  0.1674
13507SOL     OW42194   9.090   2.747   5.212 -0.0947  0.3021  0.0673
13507SOL    HW142195   9.152   2.819   5.218 -0.2286  0.4084  0.1838
13507SOL    HW242196   9.129   2.677   5.264  3.1575 -2.0391 -4.7834
13508SOL     OW42197   2.089   3.296   0.188 -0.9905 -0.1898  0.3502
13508SOL    HW142198   2.060   3.264   0.103 -0.9542 -1.3121  0.7379
13508SOL    HW242199   2.042   3.378   0.201 -2.9040 -1.2420  0.3221
13509SOL     OW42200   8.490   1.439   0.241  0.6611  0.0035  0.1711
13509SOL    HW142201   8.557   1.458   0.176  0.0268 -1.4671 -0.9826
13509SOL    HW242202   8.437   1.518   0.246 -0.9618 -0.6816 -3.2392
13510SOL     OW42203   5.838   9.400   5.729 -0.3327  0.6399 -0.1908
13510SOL    HW142204   5.918   9.356   5.701  0.0813  0.9233  0.5161
13510SOL    HW242205   5.848   9.490   5.699  0.4420  1.1341  1.4110
13511SOL     OW42206   5.665   3.211   4.254  0.2561 -0.2728 -0.8658
13511SOL    HW142207   5.705   3.242   4.173  2.2884 -0.4803 -0.0088
13511SOL    HW242208   5.624   3.128   4.230 -1.8479  1.0779 -2.3039
13512SOL     OW42209   6.342   6.525   7.534  0.1724  0.5886 -0.1094
13512SOL    HW142210   6.434   6.528   7.508 -0.0957  0.0566 -1.1722
13512SOL    HW242211   6.298   6.586   7.475 -0.2675  0.3102 -0.0775
13513SOL     OW42212   9.005   7.417   3.632 -0.1283  0.3240 -0.7589
13513SOL    HW142213   8.931   7.358   3.622  0.1559 -0.3088  0.6496
13513SOL    HW242214   8.969   7.504   3.613 -1.6072  0.2085  1.2332
13514SOL     OW42215   7.746   4.347   5.165 -0.1052  0.3152  0.2623
13514SOL    HW142216   7.664   4.373   5.122 -0.1458 -0.8168 -0.3777
13514SOL    HW242217   7.725   4.348   5.258 -0.5409  1.0358  0.1651
13515SOL     OW42218   2.819   5.902   4.139 -0.4097 -0.0712 -0.4242
13515SOL    HW142219   2.786   5.821   4.179  0.7078 -0.3122  0.0639
13515SOL    HW242220   2.859   5.950   4.212 -2.8610  1.9447 -0.2762
13516SOL     OW42221   3.932   3.733   7.668  0.1679 -0.7270  0.1503
13516SOL    HW142222   4.016   3.773   7.693  1.0751 -2.3850 -0.0932
13516SOL    HW242223   3.945   3.708   7.577 -0.1533 -2.0474  0.4498
13517SOL     OW42224   0.942   7.472   6.039 -0.0260 -0.1233  0.5581
13517SOL    HW142225   1.027   7.472   5.995 -0.1463  1.6210  0.2677
13517SOL    HW242226   0.890   7.536   5.990 -0.8210  0.3975  2.0396
13518SOL     OW42227   1.066   9.561   3.088 -0.1110 -0.1726 -0.3025
13518SOL    HW142228   1.051   9.632   3.024  1.4254 -0.9888 -1.6281
13518SOL    HW242229   1.080   9.606   3.171 -3.0959  0.8944 -0.2611
13519SOL     OW42230   5.151   0.041   4.961  0.4439  0.0339 -0.1174
13519SOL    HW142231   5.223   0.103   4.975  0.7813 -0.4282  0.1935
13519SOL    HW242232   5.193  -0.040   4.934 -0.0170  0.0027 -0.7805
13520SOL     OW42233   1.421   8.794   2.127 -0.1861  0.0892  0.0763
13520SOL    HW142234   1.429   8.886   2.102 -0.7795  0.1491  0.0971
13520SOL    HW242235   1.393   8.796   2.219  0.8890 -0.1226  0.4210
13521SOL     OW42236   3.773   7.289   6.936  0.0925  0.5996  0.2021
13521SOL    HW142237   3.766   7.298   6.841 -0.3312  0.5845  0.2300
13521SOL    HW242238   3.834   7.217   6.949  0.3405  0.7620 -0.0561
13522SOL     OW42239   3.089   7.286   0.526 -0.5829  0.8730 -0.4464
13522SOL    HW142240   3.066   7.241   0.607  1.4526  1.2310  0.3874
13522SOL    HW242241   3.111   7.215   0.465  2.8995  0.5766  0.9514
13523SOL     OW42242   5.636   5.866   6.540  0.2990 -0.5942 -0.4828
13523SOL    HW142243   5.687   5.923   6.481  2.1255 -0.2347  1.2947
13523SOL    HW242244   5.551   5.909   6.547  0.4512 -0.0093 -1.9238
13524SOL     OW42245   5.113   3.712   0.846  0.5303 -0.1059  0.1068
13524SOL    HW142246   5.146   3.625   0.828 -1.6318 -1.3944  1.8763
13524SOL    HW242247   5.170   3.746   0.915  1.5061  0.0311 -0.7362
13525SOL     OW42248   2.485   4.443   3.833  0.6771  0.7127  0.0536
13525SOL    HW142249   2.547   4.400   3.891 -0.4105 -0.7389  0.1903
13525SOL    HW242250   2.493   4.397   3.749 -1.8666 -1.2006  0.7373
13526SOL     OW42251   1.574   0.618   2.728  0.0039  0.1402  0.2428
13526SOL    HW142252   1.601   0.667   2.651  0.0210  0.2926  0.3443
13526SOL    HW242253   1.655   0.602   2.777 -0.2356  1.9613  1.3431
13527SOL     OW42254   1.180   7.882   6.757  0.0619  0.1239 -0.7124
13527SOL    HW142255   1.133   7.965   6.760  1.5322  1.0935 -2.6667
13527SOL    HW242256   1.145   7.837   6.680 -0.1137 -0.7263 -0.1610
13528SOL     OW42257   4.691   6.282   5.388  0.3541 -0.2420  0.1619
13528SOL    HW142258   4.659   6.351   5.330 -2.5238 -2.2301 -0.8193
13528SOL    HW242259   4.778   6.260   5.354  0.9176  2.1138 -0.0957
13529SOL     OW42260   9.211   1.721   5.064 -0.3672  0.0781 -0.2254
13529SOL    HW142261   9.238   1.638   5.105 -1.6624 -0.4102 -0.3117
13529SOL    HW242262   9.120   1.731   5.089 -0.0861  1.7658  0.1983
13530SOL     OW42263   4.955   3.155   1.926  0.1417  0.2080 -0.4488
13530SOL    HW142264   4.910   3.084   1.972 -1.8556 -0.0969 -2.7077
13530SOL    HW242265   4.976   3.218   1.995 -0.6033 -1.2451  1.1903
13531SOL     OW42266   3.716   7.286   5.679  0.8481  0.2424 -0.0829
13531SOL    HW142267   3.675   7.308   5.596  1.5722  1.2234 -0.1996
13531SOL    HW242268   3.794   7.236   5.655 -0.3703 -1.9272  0.1501
13532SOL     OW42269   1.935   8.412   3.175  0.0194  0.1433  0.2040
13532SOL    HW142270   1.905   8.426   3.086  0.2852 -1.9812 -0.2658
13532SOL    HW242271   1.878   8.343   3.209  1.9069 -1.3327  0.5548
13533SOL     OW42272   4.452   1.178   4.609  1.0463 -0.0347  0.0996
13533SOL    HW142273   4.448   1.149   4.518 -0.2231  0.0213  0.1252
13533SOL    HW242274   4.545   1.171   4.632  1.2844 -0.7006 -0.9843
13534SOL     OW42275   7.413   5.511   9.037 -0.1980  0.0251 -0.1071
13534SOL    HW142276   7.427   5.443   9.103  1.7295 -0.7049 -1.1853
13534SOL    HW242277   7.376   5.463   8.962 -0.8121  0.5571 -0.1545
13535SOL     OW42278   2.843   4.144   6.168  0.6583  0.0850  0.1354
13535SOL    HW142279   2.830   4.232   6.131 -0.3413 -0.8906 -2.0143
13535SOL    HW242280   2.927   4.149   6.213  1.5535  1.6687 -1.5673
13536SOL     OW42281   9.077   6.413   1.373 -0.4054  0.6627 -0.7129
13536SOL    HW142282   9.136   6.408   1.298 -0.7432  0.0360 -0.9446
13536SOL    HW242283   9.117   6.357   1.439  1.9143  4.0609  1.0594
13537SOL     OW42284   0.332   7.021   2.558 -0.7747  0.0893 -0.1594
13537SOL    HW142285   0.411   7.043   2.508 -0.5659 -2.6052 -1.1591
13537SOL    HW242286   0.337   7.077   2.635  1.7899  0.4477 -0.4880
13538SOL     OW42287   4.150   8.057   2.924  0.2728 -0.4386  0.5264
13538SOL    HW142288   4.189   8.079   3.009  1.0284 -1.6082  0.5023
13538SOL    HW242289   4.214   8.001   2.882  0.6003  1.3120 -1.4797
13539SOL     OW42290   5.462   4.217   8.963  0.3449  0.0665 -0.2018
13539SOL    HW142291   5.421   4.131   8.947  0.6691 -0.0146 -0.6058
13539SOL    HW242292   5.439   4.237   9.054 -0.2612 -0.1586 -0.2990
13540SOL     OW42293   1.960   4.006   9.054 -0.1707  0.1507  0.7055
13540SOL    HW142294   1.868   4.025   9.073  0.0048  0.1534  1.6072
13540SOL    HW242295   2.004   4.014   9.139  0.3757 -1.4866  0.6265
13541SOL     OW42296   3.192   4.279   5.296  0.7912 -0.2749 -0.6147
13541SOL    HW142297   3.285   4.281   5.321  0.4707 -0.9735  0.6726
13541SOL    HW242298   3.167   4.372   5.291  1.7103 -0.0568 -1.6391
13542SOL     OW42299   0.982   7.760   3.698 -0.4732  0.0351 -0.3124
13542SOL    HW142300   0.914   7.756   3.766 -1.8495  2.3440 -1.4083
13542SOL    HW242301   0.952   7.699   3.631 -1.4600  0.9058 -0.7062
13543SOL     OW42302   2.027   0.813   5.145 -0.0865  0.1478  0.8363
13543SOL    HW142303   2.047   0.754   5.217 -2.6318 -1.4960  0.3368
13543SOL    HW242304   1.934   0.799   5.128  0.0042  1.8491 -1.5551
13544SOL     OW42305   8.502   0.718   4.871 -0.4906  0.6419 -0.1592
13544SOL    HW142306   8.589   0.681   4.858 -0.0612  1.6298 -0.1698
13544SOL    HW242307   8.473   0.745   4.784 -1.8857 -1.8941 -0.6038
13545SOL     OW42308   8.656   5.282   2.218  0.6415  0.0357 -0.4298
13545SOL    HW142309   8.742   5.305   2.251  0.5423 -1.3858  0.9324
13545SOL    HW242310   8.673   5.246   2.130  1.4706 -0.4234 -0.0922
13546SOL     OW42311   7.519   5.421   4.260 -0.7370 -0.0965 -0.2289
13546SOL    HW142312   7.469   5.348   4.223  1.7854 -2.1955  0.2285
13546SOL    HW242313   7.537   5.478   4.186  0.9421 -2.2519 -1.6055
13547SOL     OW42314   5.414   4.721   0.964  0.2561 -0.0191  0.0791
13547SOL    HW142315   5.351   4.777   0.919 -0.4210 -0.4723  0.4504
13547SOL    HW242316   5.445   4.773   1.038  0.9886  0.5348 -0.5955
13548SOL     OW42317   3.909   8.478   3.026  0.3382 -0.4060  0.8151
13548SOL    HW142318   3.963   8.528   3.088  1.0304 -1.1906  0.8502
13548SOL    HW242319   3.840   8.540   3.001  0.6938  0.2975  1.5018
13549SOL     OW42320   9.481   8.462   4.743 -0.3175 -0.1578 -0.1678
13549SOL    HW142321   9.388   8.449   4.765  0.2158 -3.4169  0.7803
13549SOL    HW242322   9.513   8.525   4.807 -1.7988  0.7840 -0.3175
13550SOL     OW42323   1.766   8.932   5.808 -0.2543  0.2316  0.6360
13550SOL    HW142324   1.773   8.837   5.811 -1.1266  0.0440 -1.2590
13550SOL    HW242325   1.746   8.951   5.716 -1.7230  2.1128  1.2760
13551SOL     OW42326   6.949   6.839   3.125  0.6436  0.4668  0.3713
13551SOL    HW142327   6.937   6.813   3.034 -1.3572  0.1600  0.6733
13551SOL    HW242328   6.979   6.930   3.120 -2.0335  1.3933 -0.6400
13552SOL     OW42329   6.378   6.848   5.910  0.3934 -0.6389 -0.1793
13552SOL    HW142330   6.294   6.827   5.869  0.9025 -3.7430  0.1403
13552SOL    HW242331   6.370   6.940   5.936 -2.3415 -0.4394 -1.3944
13553SOL     OW42332   8.455   3.403   9.676  0.6267 -0.2754  0.9018
13553SOL    HW142333   8.545   3.371   9.681  0.3707 -0.9971  0.9683
13553SOL    HW242334   8.412   3.345   9.613  0.8486  1.6244 -1.1297
13554SOL     OW42335   2.748   7.751   4.780 -0.1192 -0.1026 -0.4177
13554SOL    HW142336   2.679   7.727   4.842 -0.5436 -0.6617 -1.0881
13554SOL    HW242337   2.705   7.812   4.720  0.2054  0.1985 -0.3476
13555SOL     OW42338   1.623   0.159   2.044 -0.5944 -0.1216 -0.0138
13555SOL    HW142339   1.580   0.114   1.971  0.7661 -0.5323 -0.5929
13555SOL    HW242340   1.658   0.239   2.006  0.2690 -0.4149  0.1295
13556SOL     OW42341   3.570   1.433   8.959  0.5058  0.3423  0.3341
13556SOL    HW142342   3.603   1.521   8.945 -0.5518  0.3434 -3.0157
13556SOL    HW242343   3.478   1.436   8.930  0.4031 -1.7833  0.2445
13557SOL     OW42344   8.142   2.657   0.215  0.5331  0.6560 -0.4693
13557SOL    HW142345   8.056   2.621   0.236  1.2176 -1.0179 -0.3420
13557SOL    HW242346   8.137   2.748   0.242 -0.7882  0.2627  0.7738
13558SOL     OW42347   8.777   4.388   8.881  0.2583 -0.1675 -0.3776
13558SOL    HW142348   8.854   4.372   8.936  1.1410  1.1461 -1.1584
13558SOL    HW242349   8.768   4.309   8.829  0.8317 -0.5118  0.0299
13559SOL     OW42350   3.841   3.629   5.547 -0.6564 -0.2714  0.0408
13559SOL    HW142351   3.795   3.553   5.584  2.5329 -2.1209  0.6278
13559SOL    HW242352   3.847   3.609   5.453 -2.5909  0.9455 -0.4028
13560SOL     OW42353   6.959   5.685   2.185  0.4268  0.3311 -0.1448
13560SOL    HW142354   6.881   5.736   2.162 -0.9611 -1.3486  0.6283
13560SOL    HW242355   6.975   5.630   2.108  0.3556  0.1211 -0.0122
13561SOL     OW42356   6.467   0.444   5.534  0.1259 -1.0634  1.2540
13561SOL    HW142357   6.429   0.508   5.594  0.5666 -0.3289  0.7616
13561SOL    HW242358   6.473   0.489   5.450  1.3975 -1.3805  1.1463
13562SOL     OW42359   6.018   4.315   6.432  0.0663  0.7576 -0.2924
13562SOL    HW142360   5.988   4.241   6.379  0.2897  0.6689 -0.2969
13562SOL    HW242361   5.983   4.297   6.520 -1.0631  1.3615 -0.5997
13563SOL     OW42362   4.765   1.981   4.584  0.5032  0.9557  0.2093
13563SOL    HW142363   4.758   1.993   4.679  1.1529 -1.9644  0.7036
13563SOL    HW242364   4.688   2.027   4.549 -2.1943 -1.3705  2.5227
13564SOL     OW42365   7.445   6.382   3.925  0.4694 -0.2758 -0.1015
13564SOL    HW142366   7.377   6.324   3.891  1.4084  0.2365 -3.1291
13564SOL    HW242367   7.494   6.411   3.847  1.6354  2.5656  1.5309
13565SOL     OW42368   8.366   1.580   0.829 -0.5259 -0.2327  0.3981
13565SOL    HW142369   8.408   1.665   0.841  1.3856 -1.0169 -0.3383
13565SOL    HW242370   8.281   1.601   0.790 -0.6423  1.3878  1.4233
13566SOL     OW42371   6.323   7.016   5.313  0.5005  0.3504 -0.3059
13566SOL    HW142372   6.243   6.970   5.286  1.3419 -0.6806 -1.1354
13566SOL    HW242373   6.315   7.103   5.274  0.0239  0.0780 -0.8301
13567SOL     OW42374   3.996   4.951   0.370 -0.0873 -0.3387  0.2420
13567SOL    HW142375   3.996   4.911   0.283 -1.1768 -0.2616  0.2013
13567SOL    HW242376   4.068   5.014   0.367  1.5072 -2.0680  0.2119
13568SOL     OW42377   4.693   1.236   4.270  0.2928 -0.3197 -0.2631
13568SOL    HW142378   4.655   1.148   4.271  2.1609 -1.1751  0.4884
13568SOL    HW242379   4.679   1.269   4.359 -1.5120  0.7126 -0.8688
13569SOL     OW42380   1.031   5.911   9.560 -0.1637 -0.6511  0.3883
13569SOL    HW142381   1.083   5.846   9.607  1.9124  0.3148 -0.4523
13569SOL    HW242382   1.058   5.902   9.469  0.8642  1.9397  0.3705
13570SOL     OW42383   8.261   8.775   4.484  0.5957 -0.1196  0.2343
13570SOL    HW142384   8.179   8.772   4.435  0.5419  0.1370  0.3073
13570SOL    HW242385   8.296   8.863   4.469  0.5317 -0.0043  0.7309
13571SOL     OW42386   6.461   4.299   6.453  0.3393  0.2120  0.1817
13571SOL    HW142387   6.419   4.284   6.368 -0.4836  0.6185  0.5064
13571SOL    HW242388   6.448   4.393   6.469  0.2459  0.0790  0.8856
13572SOL     OW42389   3.099   2.695   6.242  0.5191  0.3511 -0.3619
13572SOL    HW142390   3.136   2.613   6.273  0.5480 -0.0360 -1.3928
13572SOL    HW242391   3.005   2.685   6.255  0.5765  0.4320  0.1431
13573SOL     OW42392   7.137   8.032   4.698 -0.6059  0.1935  0.1679
13573SOL    HW142393   7.048   8.001   4.680 -0.0624 -1.9759  0.8913
13573SOL    HW242394   7.125   8.123   4.727 -2.2817  0.8746 -2.3316
13574SOL     OW42395   8.943   7.142   0.015  0.0741 -0.4951 -0.1079
13574SOL    HW142396   9.031   7.179   0.015  0.0914 -0.4896  1.4142
13574SOL    HW242397   8.886   7.218   0.001  0.2983 -0.5123 -1.1903
13575SOL     OW42398   4.029   2.763   1.623  0.2519 -0.8437  0.7382
13575SOL    HW142399   4.033   2.763   1.719  1.4183  0.1929  0.7159
13575SOL    HW242400   3.936   2.770   1.603  0.0796  0.3991  1.8226
13576SOL     OW42401   3.178   2.966   3.368  0.4783 -0.1073  0.5406
13576SOL    HW142402   3.139   2.929   3.447 -0.5148 -0.8455 -0.2725
13576SOL    HW242403   3.130   3.048   3.354  0.0141 -0.4361  0.1922
13577SOL     OW42404   1.714   2.721   1.061 -0.6447 -1.0130  0.7465
13577SOL    HW142405   1.660   2.653   1.103  1.0207 -4.2992 -1.9282
13577SOL    HW242406   1.802   2.684   1.061  0.0612  0.3727 -2.3227
13578SOL     OW42407   8.289   7.245   8.088 -0.2738  0.0504 -0.1915
13578SOL    HW142408   8.218   7.186   8.116  1.0105 -2.2176 -1.4009
13578SOL    HW242409   8.267   7.267   7.998 -0.7816  1.5607  0.2776
13579SOL     OW42410   1.621   5.769   6.560  0.6792  0.0097  0.0112
13579SOL    HW142411   1.619   5.865   6.562 -3.1936  0.1197 -1.7123
13579SOL    HW242412   1.693   5.749   6.500  0.3115  1.9586 -1.1880
13580SOL     OW42413   6.268   0.142   7.727 -0.0588 -0.1336  0.1289
13580SOL    HW142414   6.281   0.176   7.816  2.7499 -1.7812  0.4778
13580SOL    HW242415   6.282   0.048   7.736 -0.2358 -0.4011 -1.9854
13581SOL     OW42416   5.350   1.849   6.046 -0.3976 -0.3844  0.3873
13581SOL    HW142417   5.374   1.914   6.112 -0.6514  0.4532 -0.3355
13581SOL    HW242418   5.412   1.777   6.061 -0.5028 -0.2536  1.5846
13582SOL     OW42419   1.380   7.501   8.493 -0.2553  0.9877  0.4045
13582SOL    HW142420   1.464   7.457   8.501  0.0024  1.3957 -0.0217
13582SOL    HW242421   1.348   7.506   8.583 -0.3727 -0.2073  0.4389
13583SOL     OW42422   1.421   3.956   4.309  0.2867 -0.0234  0.1427
13583SOL    HW142423   1.335   3.982   4.341  0.4470  1.0009 -0.2358
13583SOL    HW242424   1.462   3.911   4.383 -0.8917 -1.3171  0.0617
13584SOL     OW42425   7.546   3.969   7.971  0.3433  0.2135 -0.1531
13584SOL    HW142426   7.488   3.893   7.966  0.5181  0.0363  0.4215
13584SOL    HW242427   7.489   4.042   7.995  0.0986  0.3641 -1.1448
13585SOL     OW42428   0.755   5.807   6.385  0.0876 -0.3848  0.1988
13585SOL    HW142429   0.765   5.902   6.376  0.5743 -0.1245  2.6732
13585SOL    HW242430   0.844   5.775   6.402 -0.1999 -1.1652  0.2767
13586SOL     OW42431   0.573   5.018   6.185 -0.2185  0.0331 -0.2215
13586SOL    HW142432   0.519   5.069   6.245  0.7302  0.0924  0.6140
13586SOL    HW242433   0.513   4.956   6.145 -1.2589  1.3327 -0.7302
13587SOL     OW42434   6.159   0.304   4.255  0.4785  0.3944  0.2583
13587SOL    HW142435   6.090   0.309   4.321 -0.5441  1.7038 -0.8692
13587SOL    HW242436   6.145   0.380   4.199  1.4098 -0.6101 -1.4128
13588SOL     OW42437   7.895   9.677   5.933 -0.1455  0.2889  0.2384
13588SOL    HW142438   7.891   9.672   6.029  0.0428 -0.3695  0.2207
13588SOL    HW242439   7.862   9.764   5.912 -0.3862  0.3627  0.8907
13589SOL     OW42440   6.960   0.262   2.736 -0.6450 -0.2828  0.4262
13589SOL    HW142441   6.994   0.332   2.680 -0.2078 -0.8947 -0.0947
13589SOL    HW242442   6.937   0.306   2.818 -0.1265  0.4246  0.2052
13590SOL     OW42443   6.935   7.364   9.130 -0.4603  0.2119 -0.3389
13590SOL    HW142444   6.903   7.292   9.185  0.1169  1.0503  1.1489
13590SOL    HW242445   6.861   7.423   9.122 -0.6261 -0.0416 -0.7044
13591SOL     OW42446   6.781   2.775   5.410  0.1832 -0.2132  0.3289
13591SOL    HW142447   6.789   2.855   5.357  1.5895 -0.0234  0.7909
13591SOL    HW242448   6.795   2.804   5.500 -2.7360 -0.4432  0.9549
13592SOL     OW42449   0.229   8.593   2.249 -0.1736 -0.5291  0.0585
13592SOL    HW142450   0.303   8.652   2.237 -2.7448  2.9176 -0.4149
13592SOL    HW242451   0.223   8.580   2.344  0.1008  0.5472  0.2374
13593SOL     OW42452   8.235   0.782   2.787 -0.6095  0.7202  0.3453
13593SOL    HW142453   8.154   0.763   2.740 -1.9352  1.6375  2.1376
13593SOL    HW242454   8.279   0.698   2.795 -1.4485  0.1791 -0.5174
13594SOL     OW42455   1.041   4.159   0.707 -0.4019 -0.0595 -0.3757
13594SOL    HW142456   1.021   4.235   0.653 -2.8669 -0.2413  0.1426
13594SOL    HW242457   0.981   4.091   0.676 -0.1966 -0.9103  0.9825
13595SOL     OW42458   9.662   1.483   1.896 -0.1122  0.0429  0.1609
13595SOL    HW142459   9.738   1.426   1.886 -0.2129 -0.1142  0.2682
13595SOL    HW242460   9.697   1.571   1.901  0.0244  0.0176 -0.3278
13596SOL     OW42461   7.906   8.188   6.596 -0.6181  0.2016 -0.2685
13596SOL    HW142462   7.819   8.227   6.594 -0.3878  0.7798  0.6005
13596SOL    HW242463   7.929   8.184   6.689  0.4076  0.3382 -0.5033
13597SOL     OW42464   6.193   7.326   7.885 -0.1837  0.7892 -0.0055
13597SOL    HW142465   6.175   7.364   7.799 -0.6760 -0.7767 -0.6322
13597SOL    HW242466   6.121   7.265   7.900  0.7251 -0.1186  0.8085
13598SOL     OW42467   5.088   5.170   0.820 -0.3849 -0.2361 -0.4344
13598SOL    HW142468   5.009   5.123   0.845 -0.1572 -1.9371 -2.5941
13598SOL    HW242469   5.157   5.131   0.875 -0.6776 -0.3405 -0.1393
13599SOL     OW42470   5.735   6.531   0.972  0.3351  0.1599  0.4376
13599SOL    HW142471   5.798   6.513   0.902  1.9856  0.3177  1.8278
13599SOL    HW242472   5.688   6.449   0.984  0.3670 -0.0091 -0.5137
13600SOL     OW42473   7.855   3.197   0.634 -0.3024 -0.1700  0.3347
13600SOL    HW142474   7.833   3.121   0.689 -0.3365 -1.1856 -1.0224
13600SOL    HW242475   7.949   3.209   0.646 -0.0571 -1.2352 -0.3825
13601SOL     OW42476   2.920   5.513   5.716  0.0158  0.0340 -0.3731
13601SOL    HW142477   2.868   5.533   5.638  1.1208  0.9684 -0.8983
13601SOL    HW242478   3.009   5.540   5.693  0.5638 -0.6640  0.8361
13602SOL     OW42479   3.899   1.697   8.218  0.2643 -0.2890  0.0352
13602SOL    HW142480   3.978   1.701   8.273  1.6016  0.6574 -1.8339
13602SOL    HW242481   3.910   1.616   8.167 -0.2765 -0.4484  0.1682
13603SOL     OW42482   8.689   8.291   3.301  0.3586  0.1626  0.6274
13603SOL    HW142483   8.637   8.343   3.240  0.5955 -0.5745 -0.2375
13603SOL    HW242484   8.780   8.309   3.276  0.4389 -0.8520  0.1186
13604SOL     OW42485   0.642   0.646   0.333 -0.3606 -0.7035 -0.3681
13604SOL    HW142486   0.635   0.741   0.343 -2.3658 -0.7284 -0.9949
13604SOL    HW242487   0.715   0.634   0.273 -0.2594  0.4666 -0.5066
13605SOL     OW42488   4.496   6.125   1.479  0.2198  0.0378  1.1179
13605SOL    HW142489   4.431   6.190   1.506  1.4958  2.6574 -1.5057
13605SOL    HW242490   4.562   6.128   1.547  0.0876  1.2758  1.2152
13606SOL     OW42491   6.583   2.931   4.620  0.1889 -0.0081  0.0389
13606SOL    HW142492   6.586   2.900   4.529  0.8628  0.1691 -0.0015
13606SOL    HW242493   6.617   3.020   4.616  0.5985 -0.1372  0.5233
13607SOL     OW42494   3.101   1.115   4.100 -0.5046 -0.0575 -0.3330
13607SOL    HW142495   3.124   1.101   4.192 -0.6359  2.1447  0.1085
13607SOL    HW242496   3.169   1.175   4.068 -1.5699  0.7975 -1.0702
13608SOL     OW42497   4.245   1.393   3.562  0.2232  0.2003  0.1773
13608SOL    HW142498   4.340   1.382   3.563  0.1167 -1.2098 -1.4830
13608SOL    HW242499   4.231   1.482   3.529  0.9555  0.6207  0.9654
13609SOL     OW42500   5.510   4.196   8.203  0.1046 -0.2239 -0.4517
13609SOL    HW142501   5.561   4.117   8.221 -0.7234 -0.6976 -0.1632
13609SOL    HW242502   5.464   4.214   8.285  0.2000  0.4979 -0.5502
13610SOL     OW42503   5.040   7.956   7.131 -0.4836 -0.3829 -0.3113
13610SOL    HW142504   5.054   7.891   7.200 -0.5626 -0.9406 -0.8056
13610SOL    HW242505   5.127   7.973   7.096 -0.2563  0.9441  0.8282
13611SOL     OW42506   0.810   8.618   3.780  0.0510 -0.1366 -0.2744
13611SOL    HW142507   0.765   8.617   3.695  2.3915  0.0770 -1.6011
13611SOL    HW242508   0.829   8.527   3.799  1.8893 -0.0380 -1.3890
13612SOL     OW42509   3.907   5.671   5.194  0.3913  0.5770 -0.5254
13612SOL    HW142510   3.816   5.642   5.199  1.2732 -2.7926 -1.2615
13612SOL    HW242511   3.935   5.678   5.285  0.2498 -1.7708 -0.2257
13613SOL     OW42512   0.601   1.205   9.661 -0.2439 -0.1457  0.0604
13613SOL    HW142513   0.673   1.183   9.720  1.4283  0.8296 -1.5311
13613SOL    HW242514   0.597   1.132   9.600 -1.2515 -0.6388  0.6973
13614SOL     OW42515   4.786   1.395   6.359 -0.3359  0.2101 -0.2808
13614SOL    HW142516   4.744   1.365   6.278 -1.0661 -0.2962  0.2746
13614SOL    HW242517   4.857   1.452   6.329 -1.3051  0.9542 -1.2536
13615SOL     OW42518   7.242   4.072   5.695 -0.6713  0.0237 -0.0545
13615SOL    HW142519   7.259   4.158   5.657  0.2950 -0.9995 -2.1046
13615SOL    HW242520   7.181   4.031   5.634 -1.4035 -0.6449  1.0848
13616SOL     OW42521   0.326   8.706   0.498 -0.1016  0.2988 -0.7281
13616SOL    HW142522   0.325   8.794   0.460  0.3237  0.1734 -1.0462
13616SOL    HW242523   0.239   8.671   0.481 -0.7527  1.1844  0.6722
13617SOL     OW42524   2.816   6.993   2.613  0.3737  0.2625  0.4685
13617SOL    HW142525   2.895   7.023   2.658 -1.1424  2.6518  1.7408
13617SOL    HW242526   2.758   6.964   2.683 -0.6722  0.5416 -0.2581
13618SOL     OW42527   2.180   0.234   2.085 -0.2653 -0.2389 -0.4699
13618SOL    HW142528   2.173   0.293   2.160 -0.3943  1.1438 -1.5369
13618SOL    HW242529   2.192   0.291   2.010 -0.1319 -1.5926 -1.5259
13619SOL     OW42530   7.869   9.172   0.673  0.3996  0.4032  0.1332
13619SOL    HW142531   7.959   9.139   0.679  0.2875  0.2266  1.0128
13619SOL    HW242532   7.857   9.224   0.753 -0.5429 -0.2817  0.4575
13620SOL     OW42533   4.017   7.451   6.738 -0.4661  0.1477  0.4035
13620SOL    HW142534   4.042   7.373   6.688  0.2489  0.5941  0.0396
13620SOL    HW242535   3.923   7.443   6.751 -1.0372  0.8787 -2.5755
13621SOL     OW42536   3.398   8.447   6.516  0.0088  0.0595 -0.4545
13621SOL    HW142537   3.381   8.494   6.434 -1.0962  1.2188  0.4116
13621SOL    HW242538   3.351   8.364   6.505 -0.3464  0.3119 -0.8972
13622SOL     OW42539   8.662   3.475   9.435 -0.1102  0.1299  0.3531
13622SOL    HW142540   8.591   3.444   9.490  0.4305  0.3373  1.1858
13622SOL    HW242541   8.661   3.571   9.445  0.0127  0.1683  0.0273
13623SOL     OW42542   3.149   6.026   4.490  0.2263 -0.3688  0.6882
13623SOL    HW142543   3.201   6.029   4.570  0.6350 -2.1909  0.5261
13623SOL    HW242544   3.204   6.066   4.424 -1.2304  4.0098  1.7748
13624SOL     OW42545   5.807   9.592   1.339  0.6695  0.5548 -0.0511
13624SOL    HW142546   5.730   9.560   1.293 -0.9454 -0.5390  3.1135
13624SOL    HW242547   5.856   9.514   1.364  2.4890  1.2015 -1.3494
13625SOL     OW42548   5.590   8.737   3.569 -0.4394 -0.1719 -0.3347
13625SOL    HW142549   5.621   8.709   3.483  0.8193  1.7142 -0.5574
13625SOL    HW242550   5.670   8.749   3.620 -0.9858  1.3180  0.2270
13626SOL     OW42551   9.169   0.381   4.080  0.0553 -0.2037  0.4800
13626SOL    HW142552   9.099   0.328   4.041  0.0106 -0.0125  0.3024
13626SOL    HW242553   9.246   0.360   4.028 -0.2064  0.7685 -0.3253
13627SOL     OW42554   2.820   0.772   8.203  0.1768  0.2661  0.4362
13627SOL    HW142555   2.791   0.824   8.278 -0.3861 -0.3614  0.6580
13627SOL    HW242556   2.741   0.764   8.148  0.5816  0.7194 -0.2272
13628SOL     OW42557   1.057   4.359   5.516 -0.3489 -0.4864  0.8949
13628SOL    HW142558   1.147   4.332   5.499 -0.6644  0.0451 -2.2403
13628SOL    HW242559   1.004   4.283   5.490 -0.9534  0.9431 -2.6139
13629SOL     OW42560   7.795   8.656   9.466 -0.1606  0.0795  0.2087
13629SOL    HW142561   7.835   8.742   9.484 -1.1023  0.7252 -0.6795
13629SOL    HW242562   7.732   8.673   9.396  1.2632 -1.7782 -1.6409
13630SOL     OW42563   4.231   2.040   7.775  0.4920  0.0502 -0.4178
13630SOL    HW142564   4.210   2.050   7.682 -1.1581 -1.8383 -0.3273
13630SOL    HW242565   4.192   1.956   7.799  2.6791 -0.5171  1.5074
13631SOL     OW42566   7.819   6.722   0.352 -0.4139  0.4292  0.3349
13631SOL    HW142567   7.746   6.784   0.348 -0.9933 -0.3210 -1.5253
13631SOL    HW242568   7.829   6.703   0.445 -2.3905  0.7907  0.6615
13632SOL     OW42569   2.943   3.392   2.097 -0.5258  0.4767 -0.3034
13632SOL    HW142570   3.029   3.429   2.116  0.3355 -0.2262 -2.5003
13632SOL    HW242571   2.933   3.321   2.161  0.4959  0.6337  0.0450
13633SOL     OW42572   7.323   5.212   3.083 -0.1236 -0.4562  0.7320
13633SOL    HW142573   7.305   5.301   3.054 -1.8710 -1.0235 -0.0617
13633SOL    HW242574   7.294   5.157   3.011  0.9465 -1.6861  1.1978
13634SOL     OW42575   8.053   1.570   9.356 -0.0587 -0.2567 -0.0558
13634SOL    HW142576   8.056   1.639   9.289 -0.8011 -0.7138 -0.5856
13634SOL    HW242577   8.068   1.616   9.438  0.5154  0.3771 -0.5014
13635SOL     OW42578   4.071   4.046   8.071  0.3618 -0.0974  0.1061
13635SOL    HW142579   4.045   3.958   8.099 -0.7008  0.4213  0.8287
13635SOL    HW242580   4.160   4.036   8.038  0.4025 -1.3670  0.5680
13636SOL     OW42581   7.879   4.827   5.457 -0.4776  0.3455 -0.2365
13636SOL    HW142582   7.861   4.736   5.480 -0.1678  0.5208  0.7723
13636SOL    HW242583   7.830   4.878   5.522 -1.2275  0.9211 -1.2252
13637SOL     OW42584   0.954   1.657   2.856 -0.0137  0.1666  0.2699
13637SOL    HW142585   0.992   1.580   2.897 -0.0597  0.3426  0.6553
13637SOL    HW242586   0.862   1.634   2.841 -0.2237  0.4113  1.0991
13638SOL     OW42587   3.351   7.646   4.418  0.0916 -0.4195  0.0785
13638SOL    HW142588   3.330   7.553   4.422  1.5631 -0.7584  1.0002
13638SOL    HW242589   3.446   7.648   4.404  0.8296  0.8357  4.0435
13639SOL     OW42590   6.189   4.238   1.973 -0.7079 -0.0811  0.3864
13639SOL    HW142591   6.129   4.309   1.995 -0.0724  1.5499 -2.6262
13639SOL    HW242592   6.275   4.270   2.001 -0.3850  0.5523 -1.1867
13640SOL     OW42593   9.245   9.443   3.556  0.0721  0.4791 -0.2280
13640SOL    HW142594   9.339   9.445   3.541  0.1264 -0.2769 -0.0455
13640SOL    HW242595   9.217   9.534   3.546  0.5178  0.4435 -2.1883
13641SOL     OW42596   9.580   2.637   5.086  0.5529 -0.2440  0.2845
13641SOL    HW142597   9.494   2.639   5.044  1.0461 -0.0748 -0.7345
13641SOL    HW242598   9.584   2.721   5.133  0.3841 -0.0040 -0.1204
13642SOL     OW42599   7.753   4.745   2.890 -0.5803  0.1465 -0.4467
13642SOL    HW142600   7.667   4.784   2.872 -0.4380  0.7421  0.1195
13642SOL    HW242601   7.754   4.665   2.837 -1.2813  0.3896 -0.8516
13643SOL     OW42602   5.594   4.217   1.424  0.5751 -0.1978 -0.2442
13643SOL    HW142603   5.634   4.209   1.337  1.1903 -1.2776  0.1140
13643SOL    HW242604   5.589   4.311   1.440 -3.4681  0.3394 -3.1957
13644SOL     OW42605   7.539   8.589   5.658  0.4307 -0.4305  0.2176
13644SOL    HW142606   7.525   8.683   5.662 -0.9021 -0.6070  0.2219
13644SOL    HW242607   7.536   8.568   5.564 -1.2779 -0.7116  0.3002
13645SOL     OW42608   6.446   1.685   0.451 -0.2197  0.8638 -0.2463
13645SOL    HW142609   6.425   1.779   0.455 -1.0632  0.6419  1.4246
13645SOL    HW242610   6.537   1.680   0.480 -1.3962  0.8826  4.1687
13646SOL     OW42611   8.769   5.502   9.239 -0.3212  0.0292 -0.4018
13646SOL    HW142612   8.821   5.443   9.185  0.8649 -0.8053  1.5652
13646SOL    HW242613   8.737   5.568   9.177  2.0792 -0.0867 -1.9191
13647SOL     OW42614   7.608   6.072   5.168  0.0647 -0.4941 -0.1108
13647SOL    HW142615   7.631   6.010   5.098 -0.2135 -0.0498 -0.5961
13647SOL    HW242616   7.589   6.016   5.243 -0.4187 -1.0183 -0.6093
13648SOL     OW42617   3.661   5.628   2.246  0.2673 -0.3126 -0.2190
13648SOL    HW142618   3.676   5.586   2.331  0.1441 -0.4418 -0.2610
13648SOL    HW242619   3.598   5.698   2.264 -0.0979 -0.6226 -0.2828
13649SOL     OW42620   6.851   1.602   6.212  0.1863 -0.4109 -0.0615
13649SOL    HW142621   6.808   1.636   6.133 -0.9057 -0.2287  0.5937
13649SOL    HW242622   6.944   1.600   6.189 -0.1902 -1.3626 -1.7359
13650SOL     OW42623   3.725   8.704   0.889 -0.0487  0.7525 -0.1560
13650SOL    HW142624   3.768   8.663   0.965 -2.0186 -0.4031  0.3930
13650SOL    HW242625   3.690   8.786   0.924 -0.2871  0.5927 -0.0213
13651SOL     OW42626   3.534   2.212   9.365 -0.3894  0.3178 -0.4727
13651SOL    HW142627   3.569   2.224   9.453 -0.4374 -0.3486 -0.3550
13651SOL    HW242628   3.486   2.292   9.347 -0.5787  0.3637  0.2066
13652SOL     OW42629   1.106   8.505   1.090 -0.0594  0.1407  0.5979
13652SOL    HW142630   1.183   8.452   1.111 -1.3304 -1.1391  2.3223
13652SOL    HW242631   1.062   8.457   1.020 -0.6061 -0.5353  1.3790
13653SOL     OW42632   4.468   0.453   0.100  0.2433  0.0080 -0.3121
13653SOL    HW142633   4.516   0.492   0.027  0.2802 -0.0073 -0.2962
13653SOL    HW242634   4.523   0.471   0.177  0.8468 -1.0821 -0.4657
13654SOL     OW42635   5.341   8.021   4.055  0.6768 -0.0314 -0.3021
13654SOL    HW142636   5.323   7.940   4.008  0.8245  0.6984 -1.6772
13654SOL    HW242637   5.428   8.048   4.025  1.0574  0.1316  0.8937
13655SOL     OW42638   1.118   3.736   1.885 -0.2687  0.3378  0.2178
13655SOL    HW142639   1.180   3.809   1.888  0.1392 -0.0025  0.1868
13655SOL    HW242640   1.051   3.759   1.950  0.6965 -0.0053  1.3721
13656SOL     OW42641   2.807   5.784   7.492  0.5471 -0.5513  0.8166
13656SOL    HW142642   2.869   5.853   7.514  0.9076 -1.1102  1.5882
13656SOL    HW242643   2.823   5.767   7.399 -0.5300  1.3570  0.2347
13657SOL     OW42644   3.476   8.951   7.438 -0.4558  0.0876 -0.8363
13657SOL    HW142645   3.567   8.936   7.409 -0.4216 -0.2167 -0.5677
13657SOL    HW242646   3.479   8.942   7.533 -0.5027  1.4496 -0.6851
13658SOL     OW42647   5.337   8.906   1.310  0.0532 -0.6668 -0.1813
13658SOL    HW142648   5.309   8.820   1.343 -0.8857 -0.5294 -0.5866
13658SOL    HW242649   5.262   8.938   1.260  0.6109  0.1407 -0.5206
13659SOL     OW42650   8.906   5.687   0.022  0.8770  0.3646 -0.0308
13659SOL    HW142651   8.865   5.638  -0.049  0.0218 -0.3606  0.9348
13659SOL    HW242652   8.995   5.704  -0.009  1.1428 -1.6424 -0.4890
13660SOL     OW42653   2.245   4.566   0.872  0.0885  0.4990 -0.1646
13660SOL    HW142654   2.287   4.629   0.931 -0.9335  0.9067  0.1384
13660SOL    HW242655   2.318   4.516   0.836  0.9445  1.9858 -0.5742
13661SOL     OW42656   1.542   7.103   1.823  0.3133  0.6289  0.0453
13661SOL    HW142657   1.616   7.135   1.875  1.4042 -1.9017  0.2042
13661SOL    HW242658   1.465   7.119   1.878  0.9228  1.8812  0.5626
13662SOL     OW42659   6.860   4.776   7.048 -0.1702  0.3551  0.0036
13662SOL    HW142660   6.795   4.812   7.109 -0.4818 -1.2800  0.6855
13662SOL    HW242661   6.808   4.735   6.978  0.1636  0.7579 -0.4904
13663SOL     OW42662   5.829   7.600   6.631 -0.3093 -0.0223  0.1760
13663SOL    HW142663   5.751   7.594   6.686 -0.5332  0.8421 -0.0219
13663SOL    HW242664   5.878   7.674   6.667  0.8017 -1.0252  0.7612
13664SOL     OW42665   1.082   7.922   1.347 -0.1075  0.1641 -0.2983
13664SOL    HW142666   1.157   7.862   1.344 -0.5189 -0.3289 -0.8101
13664SOL    HW242667   1.045   7.910   1.434 -0.1277 -0.2572 -0.3640
13665SOL     OW42668   9.357   7.056   4.925  0.0811  0.6365  0.3933
13665SOL    HW142669   9.407   7.115   4.981  0.9688  1.5966 -1.3398
13665SOL    HW242670   9.423   7.007   4.876 -0.6619  0.3583 -0.3536
13666SOL     OW42671   5.698   1.345   2.192 -0.3370  0.1346 -0.3650
13666SOL    HW142672   5.771   1.300   2.149 -1.6989 -1.2744 -1.3448
13666SOL    HW242673   5.718   1.339   2.285  2.0583  2.1068 -0.6412
13667SOL     OW42674   5.867   7.187   5.717 -0.9028 -0.3765 -0.9651
13667SOL    HW142675   5.929   7.206   5.647  0.2394  0.2011  0.1494
13667SOL    HW242676   5.871   7.265   5.773 -0.9059 -1.2787  0.3338
13668SOL     OW42677   5.698   7.597   5.703  0.4434 -0.1967  0.4786
13668SOL    HW142678   5.638   7.528   5.731  0.2352 -0.1871  0.0729
13668SOL    HW242679   5.643   7.654   5.648  0.9900 -0.5729 -0.4843
13669SOL     OW42680   4.148   9.485   1.528  0.0488  0.1509  0.4636
13669SOL    HW142681   4.125   9.459   1.617 -0.1820  0.5764  0.5308
13669SOL    HW242682   4.238   9.456   1.516 -0.5391 -1.6573  0.1546
13670SOL     OW42683   1.472   6.690   8.294  0.6107 -0.5619 -0.7109
13670SOL    HW142684   1.553   6.739   8.305  1.9539 -2.1590 -2.6893
13670SOL    HW242685   1.418   6.744   8.236  1.2962 -0.5601 -1.3583
13671SOL     OW42686   6.001   9.613   6.931  0.1925 -0.5589  0.4011
13671SOL    HW142687   6.030   9.522   6.921  0.2470 -0.5808  0.7285
13671SOL    HW242688   6.061   9.663   6.876  0.1310 -0.7281  0.1810
13672SOL     OW42689   1.715   5.634   3.560  0.1574 -0.3169  0.2081
13672SOL    HW142690   1.662   5.592   3.493  1.0970 -1.0124 -0.1287
13672SOL    HW242691   1.689   5.726   3.557 -0.7207 -0.5723 -0.2240
13673SOL     OW42692   8.948   8.533   5.774 -0.2768  0.2555  0.1500
13673SOL    HW142693   9.034   8.575   5.783  0.4121 -1.1896  0.5390
13673SOL    HW242694   8.920   8.555   5.685  0.8477  0.1155 -0.2553
13674SOL     OW42695   7.553   2.052   8.597 -0.1241  0.3229  0.1963
13674SOL    HW142696   7.573   2.033   8.506 -0.6488  3.0589 -0.5892
13674SOL    HW242697   7.488   1.986   8.622 -0.0293 -0.4197 -1.4124
13675SOL     OW42698   4.379   5.826   4.930 -0.1816 -0.4020  0.1903
13675SOL    HW142699   4.313   5.792   4.990  0.4213 -0.6504  0.7251
13675SOL    HW242700   4.449   5.761   4.933  0.9893  0.8554  1.2306
13676SOL     OW42701   6.801   1.218   8.530 -0.3364 -0.1054  0.1166
13676SOL    HW142702   6.762   1.244   8.447 -0.2608  0.0956  0.1446
13676SOL    HW242703   6.734   1.164   8.572 -1.1538  1.3865  0.7985
13677SOL     OW42704   5.913   2.107   1.049 -0.1315 -0.3166 -0.2862
13677SOL    HW142705   5.935   2.029   0.998  2.7833 -0.3358  0.8135
13677SOL    HW242706   5.995   2.155   1.056 -1.5899  2.3491  0.0154
13678SOL     OW42707   1.028   6.576   3.609  0.5147  0.1910 -0.0572
13678SOL    HW142708   1.045   6.516   3.536 -0.2434 -0.9819  0.7022
13678SOL    HW242709   1.089   6.648   3.595  1.4725 -0.7625 -0.9899
13679SOL     OW42710   4.415   5.236   3.214 -0.5005  0.1242 -0.6368
13679SOL    HW142711   4.488   5.278   3.168 -0.5090 -0.0916 -0.8463
13679SOL    HW242712   4.438   5.244   3.306 -0.1125 -0.1234 -0.7087
13680SOL     OW42713   7.577   1.176   4.731  0.5384  0.0266  0.4338
13680SOL    HW142714   7.608   1.147   4.645  1.5805  2.9175 -0.2947
13680SOL    HW242715   7.482   1.167   4.727  0.5306  0.5236 -1.2122
13681SOL     OW42716   4.162   2.683   4.756  0.5416 -0.0484  0.0929
13681SOL    HW142717   4.130   2.708   4.669  0.3454  0.0094  0.1797
13681SOL    HW242718   4.123   2.597   4.771  1.3826 -0.5017 -0.2902
13682SOL     OW42719   5.938   8.183   5.422  0.2776  0.0633  0.2129
13682SOL    HW142720   5.904   8.120   5.485  2.2025 -1.0182  0.2477
13682SOL    HW242721   6.031   8.161   5.414  0.6127  1.7631 -1.1408
13683SOL     OW42722   3.860   7.047   8.558  0.3707 -0.6137 -0.1713
13683SOL    HW142723   3.894   7.099   8.631 -0.0523  0.9002 -0.9892
13683SOL    HW242724   3.915   7.072   8.484 -1.6290  0.9455 -1.2462
13684SOL     OW42725   1.113   5.167   9.589 -0.0188  0.0815 -0.6674
13684SOL    HW142726   1.026   5.206   9.586  0.7090  1.8062 -0.4048
13684SOL    HW242727   1.169   5.236   9.624  1.9448 -0.0778 -3.2495
13685SOL     OW42728   2.423   2.081   7.252 -0.2146 -0.6240 -0.1125
13685SOL    HW142729   2.383   2.089   7.165 -1.7128  0.3401  0.6185
13685SOL    HW242730   2.507   2.038   7.236 -0.6639 -0.9041 -1.9736
13686SOL     OW42731   5.095   8.636   3.993 -0.2066 -0.3454 -0.1344
13686SOL    HW142732   5.124   8.570   3.930 -0.1959  0.1162 -0.6220
13686SOL    HW242733   5.036   8.589   4.052 -0.6227 -0.6772 -0.8001
13687SOL     OW42734   3.501   5.805   0.960  0.3975  0.1001 -0.0090
13687SOL    HW142735   3.455   5.742   1.015 -0.1717  1.4996  1.1618
13687SOL    HW242736   3.593   5.781   0.968  0.1326 -1.0289 -0.1758
13688SOL     OW42737   0.400   9.618   2.320 -0.2597  0.3160  0.0870
13688SOL    HW142738   0.412   9.533   2.363 -0.7699  0.3911  0.3846
13688SOL    HW242739   0.477   9.627   2.264 -1.0629 -1.1756 -1.3365
13689SOL     OW42740   2.058   4.670   5.746  0.0357 -0.0289 -0.2215
13689SOL    HW142741   2.036   4.598   5.805 -1.8506  1.9673  1.7411
13689SOL    HW242742   2.138   4.708   5.784 -0.3412  0.3556  0.1994
13690SOL     OW42743   5.782   9.261   4.227  0.2491  0.4322  0.4466
13690SOL    HW142744   5.787   9.292   4.137  2.0763  1.1623  0.7512
13690SOL    HW242745   5.695   9.288   4.257 -0.8212 -0.7564 -1.3704
13691SOL     OW42746   3.453   7.843   1.594  0.2497 -0.0794  0.3084
13691SOL    HW142747   3.409   7.762   1.620  0.4581 -1.4456 -3.0069
13691SOL    HW242748   3.546   7.825   1.610  0.2893 -0.5274 -0.3503
13692SOL     OW42749   7.363   9.489   1.322  0.4905  0.7316  0.3589
13692SOL    HW142750   7.379   9.543   1.244  1.3762  2.7640  1.8567
13692SOL    HW242751   7.427   9.419   1.316 -0.4702 -0.0722 -1.4745
13693SOL     OW42752   0.091   0.481   3.099  0.6793  0.1506  0.4721
13693SOL    HW142753   0.076   0.518   3.012  2.8496  0.4788  0.1872
13693SOL    HW242754   0.032   0.529   3.156  0.7943  1.4717 -0.4821
13694SOL     OW42755   1.068   6.907   0.496  0.0819 -0.1698  0.0344
13694SOL    HW142756   1.088   6.900   0.403  0.5115 -3.7661  0.2456
13694SOL    HW242757   1.154   6.904   0.539 -0.1895 -0.7517  0.5618
13695SOL     OW42758   2.891   2.405   4.928 -0.2249 -0.3350  0.0026
13695SOL    HW142759   2.917   2.479   4.981 -1.2128  1.6381 -2.0711
13695SOL    HW242760   2.901   2.329   4.985  0.8026  1.3732  2.2309
13696SOL     OW42761   5.792   4.146   1.989  0.0457  0.5584 -0.3686
13696SOL    HW142762   5.756   4.130   1.902  2.5961  1.2549 -1.6219
13696SOL    HW242763   5.802   4.059   2.027 -0.1272  0.1838 -1.1606
13697SOL     OW42764   1.673   1.132   7.770 -0.2979  0.1942  0.7418
13697SOL    HW142765   1.599   1.080   7.801 -0.6089  0.4399  0.4274
13697SOL    HW242766   1.647   1.223   7.788 -0.7686  0.3920 -0.7796
13698SOL     OW42767   3.956   8.612   4.564 -0.1742  0.2168 -0.0737
13698SOL    HW142768   3.915   8.624   4.649 -0.2069 -0.8444  0.0712
13698SOL    HW242769   4.044   8.647   4.574  0.5142 -1.6761  1.0226
13699SOL     OW42770   9.085   2.530   9.187  0.1510 -0.3453 -0.5160
13699SOL    HW142771   9.084   2.447   9.234 -1.8187 -1.2576 -2.0257
13699SOL    HW242772   8.993   2.557   9.181  0.4255  0.3369 -2.7160
13700SOL     OW42773   4.653   3.447   8.867 -0.2398 -0.1779 -0.1216
13700SOL    HW142774   4.725   3.490   8.912 -0.6428  1.4677 -0.9531
13700SOL    HW242775   4.626   3.510   8.800 -2.4597 -0.7101  0.1844
13701SOL     OW42776   5.421   1.664   8.750 -0.5807 -0.1018 -0.4124
13701SOL    HW142777   5.495   1.611   8.721 -1.3588 -0.9560 -0.8710
13701SOL    HW242778   5.430   1.747   8.703  0.0186 -0.2433 -0.5506
13702SOL     OW42779   4.927   1.287   3.979  0.6170  0.0687 -0.7860
13702SOL    HW142780   4.925   1.194   3.956 -0.2080  0.2999 -1.6927
13702SOL    HW242781   4.834   1.311   3.990  0.8827 -0.0483  2.9501
13703SOL     OW42782   1.188   5.355   5.876 -0.1605 -0.8489 -0.4855
13703SOL    HW142783   1.134   5.337   5.798  1.1578  2.8241 -2.4974
13703SOL    HW242784   1.138   5.420   5.924  0.4393 -0.8073  0.0874
13704SOL     OW42785   5.011   8.042   0.619  0.5750  0.0917 -0.4789
13704SOL    HW142786   5.039   8.108   0.683 -0.5901 -0.7461  0.9643
13704SOL    HW242787   4.997   8.091   0.538 -1.8256  1.9838  0.9454
13705SOL     OW42788   3.927   8.060   9.013  0.6184  0.2568  0.2432
13705SOL    HW142789   3.991   7.992   9.034  0.2556 -0.2331 -0.2325
13705SOL    HW242790   3.894   8.089   9.099  0.0544 -0.8588  0.4134
13706SOL     OW42791   0.464   6.854   5.450  0.5331 -0.6868 -0.6398
13706SOL    HW142792   0.477   6.947   5.431  0.9899  0.0627  2.7506
13706SOL    HW242793   0.379   6.850   5.493  0.5291 -1.8318 -0.7299
13707SOL     OW42794   4.318   5.432   8.141  0.2865 -0.4428  0.0878
13707SOL    HW142795   4.231   5.400   8.117 -0.2760  1.7009 -1.0100
13707SOL    HW242796   4.373   5.411   8.065  0.2212  0.0203 -0.0908
13708SOL     OW42797   6.059   2.802   4.206  0.5654  0.5450 -0.7207
13708SOL    HW142798   6.138   2.810   4.259 -0.2530  1.0967  0.4530
13708SOL    HW242799   6.060   2.711   4.177  1.6765  0.5712 -0.7990
13709SOL     OW42800   7.996   1.665   8.217  0.1880 -0.1323  0.7241
13709SOL    HW142801   7.940   1.601   8.261 -0.6245  0.3619  0.4370
13709SOL    HW242802   8.073   1.616   8.190  0.4897 -0.5503  2.2702
13710SOL     OW42803   9.589   8.189   0.365  0.5962  0.5013 -0.2732
13710SOL    HW142804   9.630   8.104   0.382  1.5191  0.8675 -0.6090
13710SOL    HW242805   9.518   8.195   0.429  2.0277  0.5159  1.3826
13711SOL     OW42806   1.024   3.727   4.337  0.2669  0.1221  0.1366
13711SOL    HW142807   1.098   3.740   4.396  0.6157 -1.1139  0.0034
13711SOL    HW242808   0.947   3.749   4.389  0.7805  4.1700 -0.5129
13712SOL     OW42809   2.420   4.635   6.764  0.2729  0.3315  0.4506
13712SOL    HW142810   2.491   4.699   6.754  0.4038  0.2725  0.9652
13712SOL    HW242811   2.378   4.658   6.847  0.0519  0.0146  0.4304
13713SOL     OW42812   2.758   0.565   7.943  0.1370  0.1063 -0.3233
13713SOL    HW142813   2.762   0.571   7.847 -0.0529  1.4300 -0.2654
13713SOL    HW242814   2.705   0.641   7.969  1.1445  0.4109  0.8952
13714SOL     OW42815   8.098   0.606   3.127 -0.1404  1.0314 -0.1005
13714SOL    HW142816   8.189   0.576   3.122 -0.1766  0.8849  0.1010
13714SOL    HW242817   8.083   0.651   3.044 -0.8801 -1.7557 -1.5968
13715SOL     OW42818   4.192   9.340   5.881  0.1832 -0.0078 -0.2384
13715SOL    HW142819   4.114   9.395   5.885 -1.2920 -2.0812  1.9658
13715SOL    HW242820   4.200   9.302   5.969  2.7845 -1.1181 -0.8396
13716SOL     OW42821   3.359   0.463   6.975  0.5115 -0.1703  0.3975
13716SOL    HW142822   3.360   0.522   7.050 -0.0045 -1.6414  1.6083
13716SOL    HW242823   3.272   0.425   6.975  1.0404 -1.4281  0.0602
13717SOL     OW42824   1.608   4.983   3.277  0.1778  0.5561  0.2377
13717SOL    HW142825   1.602   5.029   3.194  0.7165 -0.6684 -0.5026
13717SOL    HW242826   1.523   4.943   3.289  0.1556  0.5900  0.1925
13718SOL     OW42827   5.077   2.835   4.108  0.2625 -0.7720  0.1387
13718SOL    HW142828   5.124   2.806   4.187  0.4537 -1.6684 -0.2904
13718SOL    HW242829   5.146   2.844   4.042  0.3727  1.6779  0.4890
13719SOL     OW42830   4.935   8.193   5.928  0.1439 -0.6139 -0.5396
13719SOL    HW142831   4.881   8.115   5.946  0.6321 -0.4714  1.8488
13719SOL    HW242832   4.929   8.245   6.008  4.5000 -0.9890  0.2778
13720SOL     OW42833   3.733   5.064   4.572 -0.0905 -0.1383 -0.4960
13720SOL    HW142834   3.741   5.160   4.566  0.3911 -0.1212  0.1769
13720SOL    HW242835   3.691   5.038   4.490  0.7235  0.5426 -1.1489
13721SOL     OW42836   4.551   8.746   8.477 -0.0402 -0.2584 -0.3876
13721SOL    HW142837   4.524   8.655   8.490  0.3080 -0.3748 -0.4901
13721SOL    HW242838   4.482   8.784   8.422  0.9091 -1.0419 -2.1715
13722SOL     OW42839   1.027   0.765   4.010 -0.1149  0.1200  0.3080
13722SOL    HW142840   1.031   0.776   4.105  1.0365  1.8464  0.0956
13722SOL    HW242841   1.115   0.739   3.984 -0.4524 -0.4708 -0.2887
13723SOL     OW42842   0.095   5.584   9.425 -0.3091  0.4292 -0.3689
13723SOL    HW142843   0.037   5.508   9.420 -0.7694  0.7012  0.7001
13723SOL    HW242844   0.038   5.657   9.447  0.3209  0.8454 -0.0822
13724SOL     OW42845   7.289   8.639   4.171 -0.5586  0.1059 -0.0997
13724SOL    HW142846   7.302   8.733   4.182  0.1288  0.1356 -0.9707
13724SOL    HW242847   7.202   8.630   4.133 -1.5929  0.2070  2.1093
13725SOL     OW42848   3.665   9.387   3.604  0.1831 -0.1577 -0.6234
13725SOL    HW142849   3.650   9.348   3.518  1.9729  1.3930 -1.7253
13725SOL    HW242850   3.760   9.404   3.606  0.4445 -1.3422  2.2166
13726SOL     OW42851   3.888   7.170   3.455 -0.4303 -0.2761 -0.2270
13726SOL    HW142852   3.835   7.178   3.534  0.1076  2.4334 -0.0334
13726SOL    HW242853   3.978   7.186   3.484 -0.4948  3.8582 -1.6234
13727SOL     OW42854   0.121   3.477   9.160 -0.2581 -0.7475  0.2819
13727SOL    HW142855   0.035   3.518   9.147 -0.5726 -1.6543 -0.6397
13727SOL    HW242856   0.158   3.523   9.236 -1.0533  0.4662 -0.0304
13728SOL     OW42857   7.072   4.788   5.033  0.2203  0.3860  0.0757
13728SOL    HW142858   7.027   4.761   5.113  1.7357 -1.2214  0.4244
13728SOL    HW242859   7.095   4.707   4.989  3.1804  1.0642  0.1432
13729SOL     OW42860   4.435   0.290   5.075 -0.3278 -0.0651 -0.2684
13729SOL    HW142861   4.526   0.317   5.083  0.0164 -0.8639 -1.2234
13729SOL    HW242862   4.394   0.318   5.156  0.8526 -0.0043  0.3219
13730SOL     OW42863   6.642   7.519   9.506  0.3374  0.2538  0.0255
13730SOL    HW142864   6.688   7.437   9.521  1.1729  0.7443  0.2398
13730SOL    HW242865   6.695   7.585   9.551 -1.8340  0.5570  2.3768
13731SOL     OW42866   4.951   4.249   7.150 -0.0765 -0.1981  0.3653
13731SOL    HW142867   4.904   4.283   7.075  0.3775 -1.0915 -0.3478
13731SOL    HW242868   4.884   4.240   7.219 -0.5584  0.3128 -0.0353
13732SOL     OW42869   1.173   4.559   8.877 -0.1159 -0.1500 -0.0185
13732SOL    HW142870   1.111   4.498   8.839 -0.8840 -0.7461  2.0362
13732SOL    HW242871   1.207   4.515   8.955  1.4090  0.9563  0.0099
13733SOL     OW42872   1.305   2.666   4.872 -0.0770  0.0008  0.2728
13733SOL    HW142873   1.252   2.728   4.822 -1.0525 -1.7546 -1.0322
13733SOL    HW242874   1.358   2.621   4.806  0.1250 -0.9679  1.0684
13734SOL     OW42875   3.843   7.458   0.027 -0.0237 -0.3079 -0.2700
13734SOL    HW142876   3.806   7.413  -0.049 -1.2044 -0.2060  0.2186
13734SOL    HW242877   3.935   7.471   0.005 -0.2912 -0.4859 -1.5797
13735SOL     OW42878   0.187   0.585   3.794  0.1141 -0.4382 -0.0990
13735SOL    HW142879   0.212   0.676   3.784  1.1490 -0.5970  0.8956
13735SOL    HW242880   0.122   0.571   3.725 -0.1935  1.0817 -0.1548
13736SOL     OW42881   2.108   0.325   2.507 -0.4005 -0.0304 -0.5911
13736SOL    HW142882   2.020   0.290   2.492 -0.4960  0.3388 -0.9030
13736SOL    HW242883   2.143   0.341   2.420  0.3285 -1.0117 -0.4923
13737SOL     OW42884   5.770   4.613   1.205  1.0039  0.0991 -0.1231
13737SOL    HW142885   5.741   4.670   1.276 -0.1446 -0.8933  0.2415
13737SOL    HW242886   5.794   4.531   1.249  1.0633 -0.2493 -0.8002
13738SOL     OW42887   7.312   3.477   5.967  0.9725 -0.3249 -0.2168
13738SOL    HW142888   7.343   3.558   5.927 -1.4034  0.3644 -0.8460
13738SOL    HW242889   7.224   3.464   5.930 -0.3061 -1.0846  2.7864
13739SOL     OW42890   5.073   6.917   6.177  0.1945  0.4971 -0.3837
13739SOL    HW142891   5.165   6.944   6.189  0.5430 -0.3517 -1.1119
13739SOL    HW242892   5.076   6.822   6.169 -0.4366  0.6298 -3.0433
13740SOL     OW42893   4.344   7.958   5.149  0.1363  0.1908 -0.0025
13740SOL    HW142894   4.419   7.974   5.092  0.7429 -0.2734  0.6553
13740SOL    HW242895   4.268   7.965   5.091  0.7267 -0.0685 -0.8201
13741SOL     OW42896   1.029   9.467   6.770  0.4855 -0.1024 -0.1225
13741SOL    HW142897   1.056   9.553   6.802  1.4699 -1.3080  2.7203
13741SOL    HW242898   1.101   9.409   6.796 -0.5027 -1.9212 -1.2263
13742SOL     OW42899   2.035   2.984   8.450 -0.2628 -0.0359 -0.1645
13742SOL    HW142900   2.116   2.938   8.474 -0.4669  0.0263  0.6964
13742SOL    HW242901   1.968   2.945   8.506 -0.9678 -0.5260 -1.3111
13743SOL     OW42902   3.534   2.184   8.093 -0.3404 -0.7151  0.3330
13743SOL    HW142903   3.622   2.213   8.117 -0.7230 -0.6666  1.7759
13743SOL    HW242904   3.504   2.249   8.030  1.1788 -1.5318 -1.3330
13744SOL     OW42905   1.255   0.350   9.670  0.7950  0.1820  0.3737
13744SOL    HW142906   1.228   0.404   9.744  0.5279 -1.1932  1.3250
13744SOL    HW242907   1.345   0.324   9.690  0.9883  0.4192 -0.1691
13745SOL     OW42908   3.110   1.672   2.056 -0.4469 -0.3389  0.4184
13745SOL    HW142909   3.130   1.581   2.077 -0.9050 -0.0904  2.1003
13745SOL    HW242910   3.091   1.713   2.141  0.1853  1.4366 -0.2391
13746SOL     OW42911   0.277   5.209   5.100  0.3082 -0.2207  0.1511
13746SOL    HW142912   0.343   5.159   5.052  1.1278  1.5702 -0.6800
13746SOL    HW242913   0.284   5.179   5.190  0.6517 -1.6869 -0.3463
13747SOL     OW42914   5.658   6.971   7.955  0.1831  0.3174  0.1475
13747SOL    HW142915   5.680   6.933   7.870 -1.8141 -1.2616  0.2564
13747SOL    HW242916   5.740   6.970   8.004  0.6907 -2.0168 -0.6013
13748SOL     OW42917   1.921   2.283   0.519  0.3694  0.2959  0.4405
13748SOL    HW142918   1.880   2.335   0.588  0.2382  0.6683  0.0837
13748SOL    HW242919   1.990   2.234   0.564 -1.6893 -1.8786  1.4646
13749SOL     OW42920   1.944   2.545   2.409  0.4886 -0.5525 -0.1552
13749SOL    HW142921   1.935   2.557   2.314  1.5580  2.1321 -0.0016
13749SOL    HW242922   1.884   2.473   2.430  0.7700 -1.7414 -2.9441
13750SOL     OW42923   8.200   6.006   0.624  0.1169 -0.0703 -0.0559
13750SOL    HW142924   8.165   6.094   0.613 -0.8285 -0.5970 -1.6853
13750SOL    HW242925   8.285   6.018   0.666 -0.2641  1.5567  0.2989
13751SOL     OW42926   9.290   8.426   7.423  0.0809 -0.3971 -0.1010
13751SOL    HW142927   9.198   8.403   7.439  0.7939 -1.7693  2.7727
13751SOL    HW242928   9.296   8.518   7.449 -0.2702 -0.6733  1.0371
13752SOL     OW42929   9.019   6.315   3.940 -0.0843  0.4314  0.0473
13752SOL    HW142930   9.007   6.360   4.023  1.2396 -0.4310  0.7360
13752SOL    HW242931   8.988   6.226   3.957  0.0728  0.2844 -0.4210
13753SOL     OW42932   7.314   1.898   5.748 -0.4438  0.0586  0.1397
13753SOL    HW142933   7.399   1.862   5.775 -0.9371 -0.6535  0.7908
13753SOL    HW242934   7.295   1.966   5.813 -1.0813 -0.8472  0.9258
13754SOL     OW42935   6.696   1.814   7.471  0.2794  0.1322  0.1497
13754SOL    HW142936   6.661   1.755   7.404  0.1384  1.7922 -1.3321
13754SOL    HW242937   6.620   1.838   7.523 -0.2053  1.0861 -0.9495
13755SOL     OW42938   2.945   6.741   1.906  0.2342 -0.6684 -0.0169
13755SOL    HW142939   3.038   6.744   1.884  0.0233  0.5397 -0.8349
13755SOL    HW242940   2.935   6.802   1.979 -0.5239  2.5465 -2.5788
13756SOL     OW42941   0.324   7.651   7.999  0.7136 -0.1887  0.1260
13756SOL    HW142942   0.310   7.558   7.983 -2.9939  0.0981  0.7664
13756SOL    HW242943   0.302   7.663   8.091  0.2643  1.4440 -0.1592
13757SOL     OW42944   5.925   4.807   9.138 -0.2100  0.2988  0.0293
13757SOL    HW142945   5.864   4.874   9.170 -0.9625  0.7604 -2.1645
13757SOL    HW242946   5.870   4.729   9.126  0.4375 -0.4179  1.5233
13758SOL     OW42947   4.435   3.790   8.515  0.3657 -0.3563  0.4485
13758SOL    HW142948   4.514   3.779   8.462  0.8048  1.5791  0.6125
13758SOL    HW242949   4.367   3.812   8.451  0.7485  1.3209  0.5725
13759SOL     OW42950   8.315   0.502   4.590  0.3087 -0.1854  0.3415
13759SOL    HW142951   8.220   0.504   4.592  0.3009  2.0468  0.4041
13759SOL    HW242952   8.340   0.457   4.670 -0.6901 -1.3104  0.0383
13760SOL     OW42953   2.630   1.316   3.990 -0.1938  0.1759  0.1571
13760SOL    HW142954   2.711   1.295   4.036 -1.6674 -1.6996  2.1479
13760SOL    HW242955   2.621   1.247   3.924  0.3606  1.0428 -0.8458
13761SOL     OW42956   4.715   3.497   0.187  0.2060 -0.2795  0.0967
13761SOL    HW142957   4.726   3.546   0.105 -3.0413  1.4063  0.5020
13761SOL    HW242958   4.761   3.550   0.252  1.4047 -0.7612 -0.3335
13762SOL     OW42959   6.815   8.252   1.775 -0.0834  0.1219 -0.1430
13762SOL    HW142960   6.727   8.273   1.804 -0.0859  0.4251 -0.3695
13762SOL    HW242961   6.867   8.330   1.795  0.2904 -0.3070  0.6335
13763SOL     OW42962   3.705   6.313   3.709 -0.0820  0.2016  0.2121
13763SOL    HW142963   3.787   6.271   3.734 -0.1251  1.0769  2.0105
13763SOL    HW242964   3.676   6.358   3.789 -1.3112  1.5386 -0.9346
13764SOL     OW42965   3.345   5.263   8.871  0.0026 -1.5768  0.3092
13764SOL    HW142966   3.262   5.248   8.826  0.2901  1.4523 -1.4321
13764SOL    HW242967   3.326   5.331   8.935  1.3600  0.1797 -1.0664
13765SOL     OW42968   4.534   5.323   4.534 -0.3480 -0.0612 -0.0251
13765SOL    HW142969   4.439   5.325   4.538 -0.4292  1.1567 -1.6599
13765SOL    HW242970   4.561   5.410   4.561  0.1642  0.2986 -1.5823
13766SOL     OW42971   2.648   6.273   0.107  0.6568 -0.2510 -0.2762
13766SOL    HW142972   2.673   6.181   0.116  0.7488 -0.1868  0.1377
13766SOL    HW242973   2.729   6.318   0.085  1.0575  0.0451  1.6427
13767SOL     OW42974   6.891   8.511   7.868 -0.4486 -0.6429  0.1614
13767SOL    HW142975   6.960   8.510   7.801  0.0933  1.0833  0.6470
13767SOL    HW242976   6.921   8.450   7.935 -0.0796 -0.9557 -0.2793
13768SOL     OW42977   0.597   0.398   5.146  0.3373 -0.0918  0.2589
13768SOL    HW142978   0.504   0.422   5.145  0.4853  0.6710 -2.3393
13768SOL    HW242979   0.611   0.358   5.232 -1.8079  2.0257  1.7321
13769SOL     OW42980   1.775   0.736   3.325 -0.3555  0.2848 -0.4436
13769SOL    HW142981   1.751   0.822   3.360  0.7704 -0.4833  2.4591
13769SOL    HW242982   1.817   0.756   3.241 -1.4877  2.4135 -0.5847
13770SOL     OW42983   4.419   7.231   5.348  0.1837  0.1740 -0.4613
13770SOL    HW142984   4.491   7.285   5.317  0.7714 -0.5759 -0.4342
13770SOL    HW242985   4.460   7.167   5.406 -0.8634  1.4719  1.8287
13771SOL     OW42986   8.315   4.772   9.037  0.1473  0.0615 -0.5897
13771SOL    HW142987   8.299   4.865   9.055 -1.6449  0.0026 -1.6135
13771SOL    HW242988   8.406   4.758   9.063  0.4208  2.0608 -0.2762
13772SOL     OW42989   7.755   1.700   0.317 -0.5508 -0.1525 -0.1145
13772SOL    HW142990   7.745   1.783   0.363 -1.4305  0.0706 -0.6583
13772SOL    HW242991   7.844   1.702   0.282 -0.4485  0.4190  0.1650
13773SOL     OW42992   9.163   4.998   4.327 -0.2967 -0.1635 -0.1324
13773SOL    HW142993   9.090   5.043   4.369 -0.1611 -0.1603  0.1042
13773SOL    HW242994   9.122   4.935   4.268 -0.5041 -0.8010  0.6746
13774SOL     OW42995   7.328   4.894   3.001 -0.0230 -0.4304 -0.3005
13774SOL    HW142996   7.405   4.922   3.051 -0.8639 -1.6173  1.7566
13774SOL    HW242997   7.303   4.971   2.951  0.0161  1.3552  2.2296
13775SOL     OW42998   0.371   0.645   6.193 -0.1788 -0.0767  0.1425
13775SOL    HW142999   0.361   0.735   6.227 -0.7712 -0.0154 -0.1953
13775SOL    HW243000   0.466   0.631   6.192 -0.0998  0.3901  0.6067
13776SOL     OW43001   7.481   0.904   9.489  0.0583  0.2302 -0.1515
13776SOL    HW143002   7.391   0.916   9.517 -0.0815 -1.8462  0.4135
13776SOL    HW243003   7.516   0.993   9.482 -2.2797  1.1464 -1.3469
13777SOL     OW43004   0.038   8.339   7.254 -0.0627  0.6835 -0.4078
13777SOL    HW143005   0.000   8.252   7.249  1.2737  0.1163 -1.0407
13777SOL    HW243006   0.130   8.328   7.230  0.4628  2.0572  0.7700
13778SOL     OW43007   3.442   3.367   2.164 -0.0844  0.5214 -0.2156
13778SOL    HW143008   3.404   3.320   2.238  1.0017  2.5239  1.7425
13778SOL    HW243009   3.504   3.305   2.124 -1.3438 -0.8889 -0.0561
13779SOL     OW43010   2.993   0.994   9.065 -0.1725 -0.5852 -0.6238
13779SOL    HW143011   3.080   1.032   9.077  1.4046 -3.1211 -2.9209
13779SOL    HW243012   2.965   1.023   8.978 -0.8726 -1.0908 -0.5802
13780SOL     OW43013   8.438   6.532   3.279 -0.3195 -0.0487  0.0087
13780SOL    HW143014   8.512   6.575   3.321 -0.4511 -0.0243  0.2176
13780SOL    HW243015   8.401   6.477   3.347  0.0330 -0.7320 -0.3415
13781SOL     OW43016   7.401   8.780   0.804 -0.6639 -0.5729  0.4612
13781SOL    HW143017   7.439   8.693   0.795 -0.8873 -0.9368  2.4384
13781SOL    HW243018   7.471   8.834   0.841 -0.7720 -0.1247  0.0220
13782SOL     OW43019   6.164   2.924   6.997 -0.1653  0.2849 -0.0943
13782SOL    HW143020   6.259   2.916   7.003 -0.0626  0.1993 -1.6403
13782SOL    HW243021   6.145   3.014   7.022  0.1713 -0.0328  1.4517
13783SOL     OW43022   1.774   8.976   0.298 -0.7414 -0.2986 -0.1530
13783SOL    HW143023   1.686   9.013   0.287 -0.7146 -0.1502  0.1225
13783SOL    HW243024   1.759   8.887   0.331 -0.8482 -1.0390 -2.0767
13784SOL     OW43025   1.172   2.974   6.704  0.4385  0.0477  0.2302
13784SOL    HW143026   1.120   3.039   6.751 -0.6937 -0.3010 -0.4908
13784SOL    HW243027   1.169   2.896   6.760  0.1695  0.0261  0.1871
13785SOL     OW43028   6.127   8.614   6.565  0.0226  0.6297  0.3583
13785SOL    HW143029   6.097   8.702   6.588 -2.5112  0.3730 -1.5589
13785SOL    HW243030   6.148   8.619   6.472  0.4191 -0.6784  0.3571
13786SOL     OW43031   0.830   4.013   0.660 -0.4304 -0.5518 -0.4190
13786SOL    HW143032   0.745   4.011   0.704 -0.8247 -0.7346 -1.1720
13786SOL    HW243033   0.843   3.924   0.629  0.6266 -0.8314  0.7706
13787SOL     OW43034   7.921   3.885   4.210  0.6198 -0.2797 -0.3263
13787SOL    HW143035   7.987   3.851   4.271  0.6328  0.9279  0.3784
13787SOL    HW243036   7.906   3.975   4.240 -0.2530 -0.0521 -1.3983
13788SOL     OW43037   3.129   2.709   1.243 -0.3881 -0.1686 -0.5998
13788SOL    HW143038   3.122   2.714   1.338 -0.0570  0.5662 -0.6125
13788SOL    HW243039   3.085   2.627   1.221 -0.4155 -0.3776  0.1888
13789SOL     OW43040   8.164   6.341   3.945  0.0026  0.2285  0.2256
13789SOL    HW143041   8.181   6.359   4.037 -0.8127 -1.0457  0.6584
13789SOL    HW243042   8.095   6.274   3.946 -0.1366  0.3060 -1.3112
13790SOL     OW43043   8.094   7.493   4.046  0.0212  0.3450 -0.0955
13790SOL    HW143044   8.112   7.401   4.064 -1.4071 -0.0412 -0.4840
13790SOL    HW243045   8.039   7.493   3.968 -0.5321  1.4690  0.2542
13791SOL     OW43046   2.227   4.418   0.498 -0.1504 -0.2648 -0.1036
13791SOL    HW143047   2.188   4.498   0.464  0.9007  0.5699  0.5944
13791SOL    HW243048   2.319   4.440   0.511 -0.1459 -1.1197  1.5006
13792SOL     OW43049   6.748   7.556   9.205 -0.0429 -0.1818  0.2266
13792SOL    HW143050   6.662   7.573   9.245 -0.5009 -1.6433 -0.0463
13792SOL    HW243051   6.808   7.551   9.279 -0.2076  0.7164  0.4326
13793SOL     OW43052   4.820   7.413   1.919 -0.7252  1.0163 -0.2068
13793SOL    HW143053   4.811   7.332   1.869  0.9260 -0.0151  1.0574
13793SOL    HW243054   4.734   7.426   1.960 -0.2529 -1.8661  2.0474
13794SOL     OW43055   3.043   8.137   6.621  0.0052  0.2310 -0.3313
13794SOL    HW143056   3.100   8.200   6.665  0.2154  0.6615 -1.2110
13794SOL    HW243057   2.955   8.169   6.638 -0.0227 -0.5132  1.1546
13795SOL     OW43058   6.161   8.475   5.858  0.3473 -0.0516  0.0995
13795SOL    HW143059   6.088   8.536   5.845  0.7250  0.1917 -1.0106
13795SOL    HW243060   6.121   8.388   5.850  0.3849  0.0745 -2.0458
13796SOL     OW43061   0.207   7.323   4.660 -0.1566 -0.5295 -0.0512
13796SOL    HW143062   0.183   7.241   4.617 -1.1289 -0.1194 -0.3099
13796SOL    HW243063   0.274   7.360   4.603  0.9255 -1.5368  0.5196
13797SOL     OW43064   0.220   4.989   9.083 -0.2999  0.4263 -0.2687
13797SOL    HW143065   0.217   5.034   8.998  1.0531  1.2510  0.0828
13797SOL    HW243066   0.307   4.947   9.084 -0.4956  0.0272  0.5172
13798SOL     OW43067   5.361   4.165   5.579  0.2104 -0.0766  0.4515
13798SOL    HW143068   5.378   4.121   5.662  1.2388  0.9230  0.7954
13798SOL    HW243069   5.337   4.254   5.603  0.2915  0.1615 -0.3170
13799SOL     OW43070   9.449   4.057   0.207 -0.5003 -0.5783 -0.3727
13799SOL    HW143071   9.417   4.141   0.238 -0.1634 -0.5643 -0.0589
13799SOL    HW243072   9.404   4.044   0.123  0.1377  0.3534 -0.8782
13800SOL     OW43073   8.670   4.667   1.864 -1.2422  0.2947 -0.4133
13800SOL    HW143074   8.759   4.690   1.889 -0.6045  0.5953 -2.6795
13800SOL    HW243075   8.636   4.746   1.820 -2.2785 -0.1259 -0.4087
13801SOL     OW43076   8.468   8.786   0.382 -0.0132  0.3085  0.2088
13801SOL    HW143077   8.397   8.772   0.445  0.0156  0.4244  0.2658
13801SOL    HW243078   8.481   8.880   0.380  0.3848  0.2600  0.4685
13802SOL     OW43079   2.979   6.301   3.506  0.0245  0.0976 -0.4505
13802SOL    HW143080   2.968   6.362   3.434 -0.0079 -2.0252 -2.3666
13802SOL    HW243081   2.896   6.252   3.510  0.6497 -0.9848 -0.1500
13803SOL     OW43082   5.174   2.330   0.409  0.2225 -0.1247 -0.7255
13803SOL    HW143083   5.237   2.267   0.445 -0.4868  0.3342  1.4761
13803SOL    HW243084   5.123   2.280   0.346  0.7467 -1.3307 -0.2188
13804SOL     OW43085   0.487   7.954   8.556 -0.0365  0.6228  0.7543
13804SOL    HW143086   0.404   7.997   8.577 -0.4527 -0.5202  1.5748
13804SOL    HW243087   0.497   7.965   8.461 -2.6486 -1.7024  0.0550
13805SOL     OW43088   0.938   0.072   2.367  0.2704  0.1886 -0.5800
13805SOL    HW143089   0.974   0.159   2.383 -1.0095  0.5867  0.2708
13805SOL    HW243090   0.903   0.076   2.278  0.3996  0.4859 -0.6165
13806SOL     OW43091   4.955   7.469   4.653  0.7283 -0.8634  0.1175
13806SOL    HW143092   5.026   7.458   4.590 -0.0915 -1.5876 -0.7120
13806SOL    HW243093   4.907   7.386   4.650 -1.2190  0.2208 -0.7177
13807SOL     OW43094   8.720   9.303   1.801 -0.3655  0.5836  0.0377
13807SOL    HW143095   8.702   9.209   1.798 -1.0960  0.7461 -1.8134
13807SOL    HW243096   8.791   9.316   1.739  0.3995  1.1506  0.9990
13808SOL     OW43097   3.658   9.563   6.528 -0.0826 -0.5842  0.1489
13808SOL    HW143098   3.571   9.553   6.564  0.7685 -0.5833  2.3421
13808SOL    HW243099   3.707   9.610   6.596  0.7606  2.5424 -2.3754
13809SOL     OW43100   7.427   1.419   0.819 -0.6014 -0.2902  0.6100
13809SOL    HW143101   7.496   1.401   0.884 -0.3188 -0.1082  0.3665
13809SOL    HW243102   7.381   1.336   0.809  0.8167 -0.9761 -0.6650
13810SOL     OW43103   7.171   0.160   3.770  0.0723 -0.0821 -0.5138
13810SOL    HW143104   7.206   0.071   3.764  1.4608  0.3698  0.3541
13810SOL    HW243105   7.096   0.160   3.711  0.2154 -1.7410 -0.7569
13811SOL     OW43106   3.884   8.780   5.987 -0.5891  0.3056 -0.2197
13811SOL    HW143107   3.816   8.769   5.920 -0.0140  0.7345 -0.8814
13811SOL    HW243108   3.945   8.843   5.949 -0.4732  0.8787  0.8822
13812SOL     OW43109   4.475   4.156   3.237  0.2283 -0.8659  0.2240
13812SOL    HW143110   4.438   4.068   3.232  0.2087 -0.8750  0.5446
13812SOL    HW243111   4.560   4.149   3.194 -0.6373 -0.5740 -1.6904
13813SOL     OW43112   8.360   0.596   1.088 -0.1146 -0.5718 -0.1276
13813SOL    HW143113   8.363   0.690   1.108 -1.0625 -0.6600  0.4842
13813SOL    HW243114   8.302   0.559   1.154 -0.2224 -1.5062 -0.7276
13814SOL     OW43115   7.195   2.538   7.296  0.2507 -0.1813 -0.4441
13814SOL    HW143116   7.236   2.472   7.352 -0.3826  0.0270  0.2743
13814SOL    HW243117   7.267   2.569   7.241  0.7943 -0.6962 -0.0470
13815SOL     OW43118   6.589   5.842   0.981 -0.1630 -0.0587 -0.5769
13815SOL    HW143119   6.510   5.875   0.939 -2.6469 -2.0366  2.1323
13815SOL    HW243120   6.623   5.916   1.030 -1.0312  0.5034 -0.8048
13816SOL     OW43121   6.616   8.915   4.361 -0.5490 -0.8560 -0.1617
13816SOL    HW143122   6.616   9.006   4.387 -1.3650 -1.2043  1.1312
13816SOL    HW243123   6.707   8.886   4.374 -0.5431 -0.5319  0.5419
13817SOL     OW43124   7.644   1.286   7.523  0.7058 -0.0937 -0.3489
13817SOL    HW143125   7.595   1.267   7.602  2.7164 -0.1899  0.9508
13817SOL    HW243126   7.698   1.362   7.545 -1.1318  2.1222 -2.7812
13818SOL     OW43127   8.669   3.949   7.629 -0.3218 -0.0297  0.4375
13818SOL    HW143128   8.726   4.018   7.663  2.9294 -1.6446 -1.2173
13818SOL    HW243129   8.613   3.925   7.703  1.9795  0.9115  2.6352
13819SOL     OW43130   9.555   2.072   6.421  0.0813  0.1327  0.3572
13819SOL    HW143131   9.649   2.067   6.435 -0.1814 -3.0104  1.8095
13819SOL    HW243132   9.526   2.145   6.476  1.6742  1.4648 -0.5042
13820SOL     OW43133   1.980   4.647   7.760  0.3796  0.4272 -0.1969
13820SOL    HW143134   1.926   4.571   7.738  0.2083  0.6023 -0.3836
13820SOL    HW243135   1.971   4.656   7.855  0.2595  0.3207 -0.1977
13821SOL     OW43136   4.156   0.530   8.189 -0.5565 -0.2461 -0.2579
13821SOL    HW143137   4.222   0.475   8.232 -0.6721  1.2385  2.0237
13821SOL    HW243138   4.177   0.525   8.096  0.0278 -3.3003 -0.0712
13822SOL     OW43139   0.347   2.876   4.346  0.1466 -0.0739 -0.0740
13822SOL    HW143140   0.366   2.862   4.439  0.9220  2.0781  0.1429
13822SOL    HW243141   0.269   2.931   4.346  0.0331 -0.2302 -0.7125
13823SOL     OW43142   6.468   5.580   2.840  0.0035 -0.0223  0.1880
13823SOL    HW143143   6.552   5.534   2.837 -0.1430 -0.2951  0.2809
13823SOL    HW243144   6.419   5.546   2.765  0.0072  0.1997  0.0843
13824SOL     OW43145   1.185   9.197   9.608 -0.2244  0.0823 -0.0011
13824SOL    HW143146   1.095   9.175   9.634 -0.5376  0.7553 -0.4794
13824SOL    HW243147   1.214   9.259   9.675 -0.3411  0.3351 -0.1816
13825SOL     OW43148   9.538   8.649   4.924 -0.1692 -0.5101 -0.3474
13825SOL    HW143149   9.559   8.737   4.954  2.7373 -0.8514 -1.0096
13825SOL    HW243150   9.542   8.596   5.004  1.8149 -0.5421 -0.4145
13826SOL     OW43151   5.242   9.289   3.370 -0.3350 -0.0148 -0.3313
13826SOL    HW143152   5.236   9.194   3.363 -1.4215  0.0124  0.1530
13826SOL    HW243153   5.170   9.314   3.428 -0.8101  1.2176 -1.4170
13827SOL     OW43154   6.322   8.929   7.258 -0.3872  0.0703  0.2546
13827SOL    HW143155   6.235   8.949   7.223 -0.4063 -1.9932 -1.0052
13827SOL    HW243156   6.381   8.987   7.209 -0.9350  0.7846  0.4211
13828SOL     OW43157   0.709   0.258   4.413  0.0529  0.0782  0.3006
13828SOL    HW143158   0.755   0.341   4.402 -1.3843  1.0622  1.2892
13828SOL    HW243159   0.638   0.278   4.474 -0.6716 -1.7587  0.1303
13829SOL     OW43160   7.983   5.870   4.880 -0.1120 -0.7860 -0.3427
13829SOL    HW143161   8.061   5.913   4.843  0.4534 -0.1820  1.4129
13829SOL    HW243162   7.925   5.942   4.904 -0.6498 -1.1766 -0.4573
13830SOL     OW43163   6.751   8.880   5.934  0.2995  0.1214 -0.2384
13830SOL    HW143164   6.664   8.841   5.942  0.7049 -0.9186 -0.6214
13830SOL    HW243165   6.808   8.822   5.986  1.1209 -0.5395 -1.7975
13831SOL     OW43166   0.022   9.025   6.424 -0.5402  0.3781  1.2670
13831SOL    HW143167   0.058   9.077   6.352 -0.9555  0.5574  1.1874
13831SOL    HW243168   0.097   8.974   6.456 -0.5777 -0.5270  0.0062
13832SOL     OW43169   6.337   7.537   5.161 -0.7174 -0.8090  0.5338
13832SOL    HW143170   6.264   7.598   5.149  0.9093  1.5757  1.9167
13832SOL    HW243171   6.411   7.593   5.188  1.3541 -3.2211  0.2332
13833SOL     OW43172   0.069   6.805   8.619  0.5672  0.6567 -0.1665
13833SOL    HW143173   0.034   6.717   8.638 -0.7958  0.7221 -2.0778
13833SOL    HW243174   0.007   6.864   8.661  1.3277  0.7293  0.8774
13834SOL     OW43175   2.744   0.640   6.976  0.2814 -0.1258  0.2094
13834SOL    HW143176   2.781   0.677   7.056  0.2462  1.5911 -0.5234
13834SOL    HW243177   2.687   0.569   7.006  1.1832 -0.2986  1.6047
13835SOL     OW43178   7.321   4.131   9.135 -0.8231  0.0196 -0.3870
13835SOL    HW143179   7.363   4.210   9.102 -1.7189 -0.3200 -2.4735
13835SOL    HW243180   7.368   4.112   9.217 -0.3593  2.4625 -0.0074
13836SOL     OW43181   3.708   2.144   2.595 -0.2551 -0.2792 -0.5258
13836SOL    HW143182   3.650   2.216   2.621  0.8027  0.2318  0.5286
13836SOL    HW243183   3.714   2.089   2.672  1.0963 -0.0070 -0.4136
13837SOL     OW43184   4.444   4.658   2.079 -0.0552 -0.0576 -0.1284
13837SOL    HW143185   4.376   4.651   2.012 -0.9379  0.0234  0.7410
13837SOL    HW243186   4.469   4.568   2.099  0.3963 -0.0760 -0.7291
13838SOL     OW43187   8.370   4.870   3.639 -0.0482 -0.3603 -0.0825
13838SOL    HW143188   8.370   4.788   3.591  0.9989  0.1027 -0.9123
13838SOL    HW243189   8.393   4.936   3.574  0.3792  0.4225  0.8378
13839SOL     OW43190   5.721   1.498   5.046  0.1373  0.0692 -0.3111
13839SOL    HW143191   5.768   1.580   5.032  1.3751 -0.4182  0.8016
13839SOL    HW243192   5.642   1.523   5.093  0.2965  0.6606 -0.3514
13840SOL     OW43193   2.429   5.545   5.235 -0.0478 -0.3981 -0.1355
13840SOL    HW143194   2.393   5.555   5.323 -1.0157  0.5539 -0.6200
13840SOL    HW243195   2.357   5.566   5.177  1.0678  0.8524 -1.1439
13841SOL     OW43196   8.628   0.183   8.088  0.0303 -0.1219 -0.5000
13841SOL    HW143197   8.588   0.213   8.170  1.1029 -1.6200  0.6301
13841SOL    HW243198   8.693   0.118   8.115  0.3389 -0.7543 -2.5581
13842SOL     OW43199   5.647   8.764   1.664  0.2594 -0.2378  0.0634
13842SOL    HW143200   5.606   8.797   1.744  0.3877 -0.6846  0.3160
13842SOL    HW243201   5.611   8.819   1.595  1.6183  1.4714  0.6419
13843SOL     OW43202   8.472   2.477   3.642 -0.3949  0.1831 -1.1507
13843SOL    HW143203   8.377   2.484   3.651 -0.9205 -2.9879 -2.7105
13843SOL    HW243204   8.486   2.452   3.551  1.9137  0.1211 -0.8485
13844SOL     OW43205   4.337   1.151   6.059  0.0234  0.2050 -0.3030
13844SOL    HW143206   4.248   1.188   6.057  0.1030  0.4600  0.5476
13844SOL    HW243207   4.355   1.128   5.968 -0.5927  0.9334 -0.6216
13845SOL     OW43208   1.825   3.152   1.943  0.6569 -0.0884  0.4871
13845SOL    HW143209   1.802   3.063   1.915  1.1828  0.2728 -1.2157
13845SOL    HW243210   1.836   3.145   2.038  0.1895 -1.7290  0.4493
13846SOL     OW43211   9.651   6.798   1.556  0.1636 -0.2060 -0.6281
13846SOL    HW143212   9.581   6.836   1.503 -1.4611  0.7604  2.0029
13846SOL    HW243213   9.626   6.707   1.566 -1.0696  0.2444  0.7071
13847SOL     OW43214   8.890   6.292   2.406 -0.0175 -0.8139  0.4061
13847SOL    HW143215   8.866   6.384   2.412 -2.1460 -1.3569  1.7831
13847SOL    HW243216   8.867   6.266   2.317 -2.1806 -0.6298  0.8614
13848SOL     OW43217   7.256   5.477   3.948  0.5412  0.1358 -0.3217
13848SOL    HW143218   7.262   5.436   4.034 -1.6735  1.4516  0.5594
13848SOL    HW243219   7.311   5.555   3.953 -0.6024  0.9247  0.4109
13849SOL     OW43220   7.653   0.272   0.052  0.1956 -0.0041 -1.1212
13849SOL    HW143221   7.726   0.215   0.073 -0.4392 -0.2607  0.5893
13849SOL    HW243222   7.622   0.243  -0.034  0.6823 -1.3774 -0.8443
13850SOL     OW43223   4.010   3.892   4.650 -0.2685 -0.2772  0.5247
13850SOL    HW143224   3.968   3.872   4.566  0.9933 -0.7728 -0.0076
13850SOL    HW243225   3.987   3.818   4.707 -3.1212  1.1426  1.4568
13851SOL     OW43226   0.386   4.206   7.676 -0.1431  0.4067 -0.1990
13851SOL    HW143227   0.313   4.257   7.711 -0.2764  1.1207 -1.4617
13851SOL    HW243228   0.440   4.269   7.629  0.8937 -0.2444  0.0725
13852SOL     OW43229   3.437   1.428   3.303 -0.4296 -0.2863  0.0981
13852SOL    HW143230   3.423   1.522   3.310 -0.6510 -0.3075 -0.0365
13852SOL    HW243231   3.519   1.419   3.254  0.0514 -0.1591  0.8645
13853SOL     OW43232   9.130   8.145   0.536  0.0749 -0.4291  0.1787
13853SOL    HW143233   9.126   8.168   0.443  0.5241 -1.9018 -0.2298
13853SOL    HW243234   9.068   8.205   0.578 -0.2714  0.1377 -1.0867
13854SOL     OW43235   6.185   0.579   9.384  0.1761  0.1288  0.0780
13854SOL    HW143236   6.160   0.546   9.471 -0.4723  0.5720  0.0671
13854SOL    HW243237   6.130   0.656   9.371  3.8968  3.4460  1.6019
13855SOL     OW43238   5.501   8.563   2.683 -0.9864 -0.9518  0.2181
13855SOL    HW143239   5.569   8.543   2.747 -0.3558 -0.0048 -0.1308
13855SOL    HW243240   5.548   8.596   2.607 -1.7931 -1.0423 -0.3406
13856SOL     OW43241   1.494   6.257   5.626 -0.4292 -0.1944 -0.2040
13856SOL    HW143242   1.575   6.295   5.661  0.7631 -2.2625 -0.4967
13856SOL    HW243243   1.485   6.295   5.539  0.4375 -0.1676 -0.2962
13857SOL     OW43244   5.868   7.473   2.441 -0.2152  0.1129 -0.5181
13857SOL    HW143245   5.831   7.458   2.528 -0.8315  0.6573 -0.6755
13857SOL    HW243246   5.886   7.386   2.408 -0.4346 -0.1240 -0.0328
13858SOL     OW43247   7.732   4.138   4.822  0.4907  0.2517  0.4029
13858SOL    HW143248   7.728   4.232   4.808  0.4232  0.1355 -0.4576
13858SOL    HW243249   7.780   4.127   4.904  1.8432  1.0066 -0.2451
13859SOL     OW43250   8.309   0.265   5.376 -0.7383  0.1175  0.9237
13859SOL    HW143251   8.371   0.318   5.325 -1.2054 -0.3090 -0.1230
13859SOL    HW243252   8.246   0.328   5.411 -0.5581  0.3937  0.7520
13860SOL     OW43253   1.641   3.089   0.661 -0.0731  0.5490  0.6352
13860SOL    HW143254   1.653   3.179   0.630  0.8392  0.8053  1.6630
13860SOL    HW243255   1.619   3.040   0.582 -0.4356  1.6432  0.0278
13861SOL     OW43256   0.074   4.159   3.682 -0.0038 -0.2736  0.4788
13861SOL    HW143257  -0.013   4.119   3.684 -0.0912 -0.4038 -2.2891
13861SOL    HW243258   0.063   4.243   3.728 -1.3492 -0.6885  0.9665
13862SOL     OW43259   5.643   2.858   7.789 -0.2430  0.4493 -0.4373
13862SOL    HW143260   5.652   2.849   7.884 -0.0193  3.0900 -0.1279
13862SOL    HW243261   5.551   2.836   7.772 -0.3188  0.0818  0.4082
13863SOL     OW43262   7.204   6.530   3.064 -0.3295 -0.0179  0.1363
13863SOL    HW143263   7.187   6.464   2.997  1.9728  1.4452 -2.0605
13863SOL    HW243264   7.213   6.612   3.016  1.1633  1.1502  2.2349
13864SOL     OW43265   6.164   2.352   2.527 -0.3325 -0.0299  0.7969
13864SOL    HW143266   6.214   2.408   2.586  1.4316 -0.0227 -0.6215
13864SOL    HW243267   6.230   2.302   2.480 -1.6668 -0.2729 -0.9247
13865SOL     OW43268   7.226   2.388   4.160  0.1644  0.0086 -0.7492
13865SOL    HW143269   7.170   2.455   4.121 -1.4264  0.1566  1.6095
13865SOL    HW243270   7.168   2.313   4.176  0.9171 -0.3512  0.4955
13866SOL     OW43271   7.197   1.678   5.633  0.6807 -0.3144  0.1884
13866SOL    HW143272   7.254   1.628   5.575 -0.3222  1.4608 -2.5426
13866SOL    HW243273   7.251   1.753   5.659 -0.1393  1.1792 -2.1110
13867SOL     OW43274   1.021   6.434   9.596  0.4264 -0.1109  0.4665
13867SOL    HW143275   1.003   6.474   9.511 -0.5185 -3.0522 -0.8463
13867SOL    HW243276   0.941   6.386   9.618  1.3961 -1.1150  2.0117
13868SOL     OW43277   6.276   7.744   2.819 -0.1765  0.0215  0.5607
13868SOL    HW143278   6.201   7.766   2.876 -0.0013  1.9936  0.1082
13868SOL    HW243279   6.253   7.781   2.734  0.9248 -0.1544  0.1717
13869SOL     OW43280   4.570   6.823   4.764  0.7504  0.0741  0.1475
13869SOL    HW143281   4.511   6.880   4.814 -0.7106 -2.1841  1.1930
13869SOL    HW243282   4.630   6.788   4.830  1.1276 -0.1757 -0.3277
13870SOL     OW43283   3.709   7.606   0.886 -0.6366 -0.3094  0.1410
13870SOL    HW143284   3.758   7.559   0.818 -0.1162  1.6222 -0.8920
13870SOL    HW243285   3.638   7.648   0.839  0.5565  2.2329  0.4800
13871SOL     OW43286   3.850   6.030   8.923  0.1971 -0.0125 -0.0943
13871SOL    HW143287   3.937   6.014   8.887 -0.1256 -0.4905 -0.6751
13871SOL    HW243288   3.800   5.951   8.902  0.5084 -1.2127  3.1093
13872SOL     OW43289   3.133   8.717   8.318 -0.1008 -0.4089 -0.7217
13872SOL    HW143290   3.057   8.771   8.340  1.2770  1.6043 -0.6048
13872SOL    HW243291   3.196   8.735   8.388  1.8945  0.9929 -2.7450
13873SOL     OW43292   5.646   1.825   5.538 -0.2900  0.1460 -0.2280
13873SOL    HW143293   5.614   1.855   5.623 -0.8742  0.5716 -0.5858
13873SOL    HW243294   5.574   1.771   5.504  0.0228 -0.1861 -0.3630
13874SOL     OW43295   2.496   1.790   1.448  0.4178 -0.0234 -0.3137
13874SOL    HW143296   2.534   1.720   1.396 -0.3246 -0.4164 -0.3455
13874SOL    HW243297   2.526   1.871   1.405 -1.0624 -0.3258 -2.0582
13875SOL     OW43298   2.499   7.599   4.566  0.1006 -0.0162  0.3294
13875SOL    HW143299   2.469   7.574   4.654  2.4308  1.1856  1.5561
13875SOL    HW243300   2.515   7.693   4.573 -1.4661  0.4890 -1.9887
13876SOL     OW43301   8.270   2.297   2.236 -0.3885 -0.3963  0.0348
13876SOL    HW143302   8.202   2.355   2.271 -1.3287 -1.4011 -0.0308
13876SOL    HW243303   8.271   2.316   2.142  2.5641  2.7373  0.5229
13877SOL     OW43304   3.373   7.515   6.001  0.0583  0.8468  0.4487
13877SOL    HW143305   3.349   7.429   6.035  0.5087  0.4643 -0.1674
13877SOL    HW243306   3.355   7.509   5.907  0.7824  1.1726  0.2822
13878SOL     OW43307   7.940   3.263   8.070  0.0944 -0.1324 -0.3575
13878SOL    HW143308   7.959   3.295   7.982  1.6026 -0.5713 -0.2351
13878SOL    HW243309   7.931   3.343   8.123 -0.0350  0.1280 -0.7725
13879SOL     OW43310   3.965   3.890   2.065 -0.0754 -0.0718 -0.1621
13879SOL    HW143311   3.908   3.919   1.994  0.3829 -1.8522 -1.3058
13879SOL    HW243312   3.922   3.812   2.101 -0.2717  0.7514  1.5297
13880SOL     OW43313   5.504   8.459   1.084 -0.1905 -0.0614 -0.0381
13880SOL    HW143314   5.496   8.516   1.008 -1.3985 -0.7407 -0.4433
13880SOL    HW243315   5.414   8.433   1.104 -0.1882  1.7998  2.9543
13881SOL     OW43316   2.308   8.220   7.781 -0.5373  0.4150  0.7195
13881SOL    HW143317   2.368   8.243   7.711  0.9921 -1.6851  1.2404
13881SOL    HW243318   2.293   8.126   7.770 -0.5785  0.1019  2.9564
13882SOL     OW43319   1.953   8.661   7.018  0.4670  1.1748  0.3519
13882SOL    HW143320   1.960   8.620   6.932 -0.9945 -0.2014  0.8425
13882SOL    HW243321   1.890   8.733   7.005 -0.0796  0.7001  0.3555
13883SOL     OW43322   3.591   8.603   7.524 -0.0211  0.0549  0.1014
13883SOL    HW143323   3.560   8.588   7.613  0.8114 -1.1380  0.2138
13883SOL    HW243324   3.512   8.623   7.473 -0.5334  0.4699  1.0428
13884SOL     OW43325   2.497   5.966   7.429  0.1857 -0.2807 -0.3224
13884SOL    HW143326   2.488   5.871   7.415  1.7042 -0.7128  1.2717
13884SOL    HW243327   2.424   5.989   7.486 -0.0068 -0.5749 -0.4524
13885SOL     OW43328   4.023   2.609   4.269  0.5095  0.0653  0.2231
13885SOL    HW143329   3.929   2.595   4.254 -0.1456  1.7073  2.2806
13885SOL    HW243330   4.056   2.640   4.184 -1.2119  1.1674 -0.1161
13886SOL     OW43331   8.518   1.705   2.669  0.0641  0.1740 -0.1941
13886SOL    HW143332   8.563   1.727   2.750  0.2621  0.9334 -0.5015
13886SOL    HW243333   8.430   1.738   2.680 -0.3830 -1.1170  0.3194
13887SOL     OW43334   1.046   5.186   7.623 -0.4358  0.3465 -0.0931
13887SOL    HW143335   1.099   5.265   7.617  2.9500 -1.8000 -0.8926
13887SOL    HW243336   1.067   5.149   7.708 -0.9222 -0.3937 -0.2830
13888SOL     OW43337   1.950   8.516   5.309  0.7215 -0.2735 -0.0197
13888SOL    HW143338   1.928   8.595   5.358 -1.0264 -1.4710  1.2331
13888SOL    HW243339   2.029   8.482   5.352  0.5289 -0.0795  0.4888
13889SOL     OW43340   6.545   3.961   1.233 -0.5606  0.0948  0.0189
13889SOL    HW143341   6.546   3.922   1.320 -1.6109  1.8354  0.8555
13889SOL    HW243342   6.576   4.051   1.246 -0.9535  0.4559 -1.3643
13890SOL     OW43343   0.758   7.843   1.880  0.2666  0.0924  0.5134
13890SOL    HW143344   0.690   7.909   1.899  1.4057  1.4034  0.2225
13890SOL    HW243345   0.818   7.850   1.954 -0.2360 -1.5373  1.1071
13891SOL     OW43346   7.569   8.163   8.184 -1.0799 -0.2801 -0.1099
13891SOL    HW143347   7.637   8.098   8.167 -0.2583  0.3404  0.7030
13891SOL    HW243348   7.495   8.135   8.130  0.4719  0.1587 -2.6385
13892SOL     OW43349   5.251   2.320   3.950  0.3551 -0.5670 -0.0440
13892SOL    HW143350   5.338   2.298   3.918  2.1234  2.8012  1.9211
13892SOL    HW243351   5.225   2.396   3.897 -1.0619 -1.0341 -0.0598
13893SOL     OW43352   4.600   6.258   3.890  0.1580 -0.6714  0.5484
13893SOL    HW143353   4.599   6.222   3.802 -1.0463  1.3018 -0.3002
13893SOL    HW243354   4.636   6.346   3.880  0.2165 -0.4900  2.0616
13894SOL     OW43355   5.981   6.653   5.730  0.1595  0.4937  0.5590
13894SOL    HW143356   6.051   6.616   5.677  1.1446  1.2408  1.3100
13894SOL    HW243357   5.901   6.615   5.693  0.9088 -0.0110 -0.6149
13895SOL     OW43358   9.066   7.014   1.862  0.5408 -0.1451 -0.5100
13895SOL    HW143359   8.989   7.004   1.805  1.5553  1.1780 -2.2238
13895SOL    HW243360   9.029   7.038   1.947 -0.9884 -0.6621 -0.9832
13896SOL     OW43361   3.213   8.807   6.283 -0.2030 -0.2624 -0.3072
13896SOL    HW143362   3.153   8.749   6.330  0.1847 -1.8647 -1.6794
13896SOL    HW243363   3.300   8.769   6.299  0.3979  1.4836  0.8803
13897SOL     OW43364   9.089   3.276   2.807 -0.2398  0.4153  0.2519
13897SOL    HW143365   9.053   3.339   2.870  1.8549  1.8140  0.1615
13897SOL    HW243366   9.181   3.303   2.797  1.1690 -3.4268  1.1596
13898SOL     OW43367   6.408   6.197   8.696  0.2392  0.6185 -0.3835
13898SOL    HW143368   6.399   6.265   8.630 -0.4164 -0.7469 -1.7528
13898SOL    HW243369   6.414   6.115   8.647 -0.3698 -0.4629  1.2364
13899SOL     OW43370   3.509   1.748   2.815 -0.1386  0.3387 -0.5615
13899SOL    HW143371   3.471   1.836   2.814 -0.4382  0.2209  0.0097
13899SOL    HW243372   3.494   1.714   2.727 -3.4843 -0.6009  0.2432
13900SOL     OW43373   6.646   6.666   2.821  0.6632  0.5216  0.2492
13900SOL    HW143374   6.686   6.584   2.847  1.5115  1.2995  1.5288
13900SOL    HW243375   6.620   6.707   2.904  0.0373  1.4279 -0.3771
13901SOL     OW43376   4.729   5.040   2.773 -0.2262  0.0077  1.1981
13901SOL    HW143377   4.661   5.019   2.709  1.2833 -0.3478 -0.3843
13901SOL    HW243378   4.735   5.135   2.772  1.6827 -0.0437 -1.4059
13902SOL     OW43379   0.518   3.920   9.335  0.1913 -0.1230 -0.1984
13902SOL    HW143380   0.586   3.987   9.326 -0.2100  0.3206 -0.0049
13902SOL    HW243381   0.437   3.970   9.345  0.1585 -0.5653  2.4652
13903SOL     OW43382   3.444   1.601   5.397 -0.5310  0.0130  0.0355
13903SOL    HW143383   3.480   1.592   5.485 -2.0090  1.8119  0.9005
13903SOL    HW243384   3.360   1.554   5.401 -0.4322 -0.2206 -0.5375
13904SOL     OW43385   2.876   4.121   4.846  0.0855 -0.1199 -0.0579
13904SOL    HW143386   2.952   4.139   4.901  1.0966  1.6077 -1.8945
13904SOL    HW243387   2.806   4.101   4.908  1.2482  1.3312  1.8348
13905SOL     OW43388   5.497   9.346   8.275  0.0954  0.1429 -0.4071
13905SOL    HW143389   5.455   9.389   8.201  0.5321  0.9163 -0.2144
13905SOL    HW243390   5.583   9.319   8.242  0.2878  0.4815 -0.1877
13906SOL     OW43391   5.061   5.023   3.493 -0.4774  0.0844  0.4065
13906SOL    HW143392   5.016   5.105   3.474 -1.6419 -0.7473 -0.6294
13906SOL    HW243393   5.075   4.983   3.407  1.3207 -0.1986  0.7816
13907SOL     OW43394   7.217   8.496   3.030 -0.1124 -0.2224 -0.0569
13907SOL    HW143395   7.307   8.523   3.048 -0.2166  0.1862 -0.1432
13907SOL    HW243396   7.163   8.569   3.062 -0.3760 -0.1699 -0.6062
13908SOL     OW43397   7.813   4.254   9.343 -0.0966 -0.1455  0.0077
13908SOL    HW143398   7.887   4.193   9.339  0.7699  0.6967  1.6204
13908SOL    HW243399   7.854   4.341   9.333 -1.0609  0.2720 -0.4362
13909SOL     OW43400   5.300   4.893   7.188 -0.0004  0.3475  0.3704
13909SOL    HW143401   5.260   4.972   7.225  0.0935  0.6584 -0.1906
13909SOL    HW243402   5.346   4.923   7.110 -0.2938 -0.3267 -0.0701
13910SOL     OW43403   7.027   4.122   9.130  0.2295  0.1854  0.3195
13910SOL    HW143404   7.064   4.044   9.090 -0.2863  0.0983  0.0084
13910SOL    HW243405   7.094   4.189   9.117  0.5446 -0.1265  0.3217
13911SOL     OW43406   9.343   7.332   2.062 -0.4650  0.0459  0.2421
13911SOL    HW143407   9.368   7.241   2.048 -0.2753  0.1217  0.0919
13911SOL    HW243408   9.408   7.366   2.123 -0.3877  0.1511  0.1023
13912SOL     OW43409   7.844   8.755   6.187  0.4636  0.1750  0.4683
13912SOL    HW143410   7.770   8.816   6.181 -0.6746 -1.2413 -1.3297
13912SOL    HW243411   7.807   8.678   6.231  0.3439 -1.1222 -1.7202
13913SOL     OW43412   1.130   4.198   4.233  0.2994  0.3242  0.4412
13913SOL    HW143413   1.161   4.135   4.298 -0.1647  1.8570  2.2668
13913SOL    HW243414   1.052   4.158   4.196  1.8768 -1.6354 -1.0104
13914SOL     OW43415   7.721   1.342   1.434  0.3662 -0.0435  0.0687
13914SOL    HW143416   7.647   1.291   1.468  0.3688  0.4786  0.8759
13914SOL    HW243417   7.783   1.275   1.402  0.7633 -0.6149  1.9262
13915SOL     OW43418   3.888   9.198   1.155  0.1586 -0.2579 -0.3558
13915SOL    HW143419   3.904   9.104   1.158 -1.1287 -0.5017 -0.5177
13915SOL    HW243420   3.876   9.224   1.246  2.6330  0.1929 -0.0717
13916SOL     OW43421   1.719   1.142   9.070  0.4386 -0.2177  0.5063
13916SOL    HW143422   1.741   1.100   8.988  0.5716  1.1552 -0.1920
13916SOL    HW243423   1.710   1.070   9.133  1.1588 -1.2215 -0.5069
13917SOL     OW43424   0.593   3.315   1.017 -0.3975 -0.2544  0.1172
13917SOL    HW143425   0.615   3.226   1.044  0.0337  0.1779  1.2908
13917SOL    HW243426   0.521   3.305   0.955 -1.3315 -1.3588  1.3116
13918SOL     OW43427   5.348   8.796   5.159 -0.2845 -0.5611  0.8106
13918SOL    HW143428   5.349   8.850   5.238 -1.4560 -0.9886  1.1450
13918SOL    HW243429   5.268   8.745   5.167 -0.0777 -1.0881 -0.3469
13919SOL     OW43430   3.130   4.626   0.193 -0.5103  0.1687 -0.3912
13919SOL    HW143431   3.047   4.674   0.197 -0.1108  0.8517  2.7716
13919SOL    HW243432   3.174   4.660   0.116 -2.8219  0.2996 -1.7657
13920SOL     OW43433   9.163   3.159   8.955  0.3667  0.1013 -0.1319
13920SOL    HW143434   9.210   3.139   8.874  0.3146  0.3146 -0.2155
13920SOL    HW243435   9.126   3.075   8.982 -1.2000  0.3411 -1.3432
13921SOL     OW43436   5.211   3.694   4.944 -0.7426 -1.1812 -0.5321
13921SOL    HW143437   5.250   3.630   4.885  1.3264  3.0063 -4.2666
13921SOL    HW243438   5.284   3.723   4.999 -0.6100  0.5908 -1.5793
13922SOL     OW43439   4.997   8.144   8.514  0.0276 -0.1868  0.0501
13922SOL    HW143440   4.959   8.231   8.508 -0.2978 -0.3128  0.2684
13922SOL    HW243441   5.085   8.158   8.550  0.1047  0.0798 -0.2383
13923SOL     OW43442   1.288   4.093   7.964  0.3096 -0.0520  0.0542
13923SOL    HW143443   1.332   4.168   7.924  1.0564 -0.5163  0.0023
13923SOL    HW243444   1.338   4.017   7.935  0.1236 -0.4981  0.8789
13924SOL     OW43445   4.862   3.234   3.007 -0.5904 -0.0630 -0.2184
13924SOL    HW143446   4.934   3.229   2.944  0.8195  1.8150  1.1526
13924SOL    HW243447   4.880   3.164   3.070 -0.4607 -0.1498 -0.3511
13925SOL     OW43448   3.300   0.997   1.695  0.1564  0.5280  0.3157
13925SOL    HW143449   3.238   0.930   1.665 -0.7839  0.8232  1.4999
13925SOL    HW243450   3.386   0.959   1.679 -0.3542 -0.9797  0.9550
13926SOL     OW43451   1.549   2.624   3.382  0.2550  0.2399  0.0147
13926SOL    HW143452   1.454   2.635   3.390  0.5083  2.3540  0.7015
13926SOL    HW243453   1.566   2.633   3.289  0.0406  3.1150  0.1568
13927SOL     OW43454   8.907   0.169   3.310  0.3305  0.2401 -0.2780
13927SOL    HW143455   8.974   0.116   3.267 -0.9901 -1.8742  0.1210
13927SOL    HW243456   8.856   0.205   3.237  0.6115  0.1077 -0.5449
13928SOL     OW43457   5.961   2.565   2.505  0.7004 -0.5621 -0.6265
13928SOL    HW143458   6.043   2.518   2.520  0.8187  0.1458  1.0727
13928SOL    HW243459   5.893   2.502   2.530  0.8519  0.0443  1.4155
13929SOL     OW43460   2.460   6.729   3.577 -0.1656  0.3389  0.0061
13929SOL    HW143461   2.388   6.686   3.624  1.0062 -0.6610  0.9283
13929SOL    HW243462   2.525   6.661   3.563  0.5766  1.2008 -0.9105
13930SOL     OW43463   2.689   5.001   3.864  0.0173 -0.0240  0.0012
13930SOL    HW143464   2.662   5.081   3.908  0.5650  0.4553 -0.5279
13930SOL    HW243465   2.618   4.939   3.882 -0.0974  0.3712  0.9658
13931SOL     OW43466   4.459   9.625   7.371 -0.4054 -0.8184 -0.4318
13931SOL    HW143467   4.446   9.532   7.353 -0.2928 -1.3767  2.0613
13931SOL    HW243468   4.375   9.655   7.407 -0.3465 -0.0221 -0.9313
13932SOL     OW43469   5.199   4.123   7.197 -0.6005 -0.7022  0.1791
13932SOL    HW143470   5.265   4.146   7.132  0.6089 -0.8618  1.3057
13932SOL    HW243471   5.142   4.200   7.201  2.5382  1.8361  2.8393
13933SOL     OW43472   8.736   1.398   0.478 -0.5298  0.1734  0.0608
13933SOL    HW143473   8.690   1.353   0.550 -1.2842 -0.1673 -0.6144
13933SOL    HW243474   8.728   1.491   0.499 -1.4907  0.1152 -0.0094
13934SOL     OW43475   1.719   6.799   3.206  0.0254  0.0169  0.0489
13934SOL    HW143476   1.683   6.724   3.160 -3.0608  1.4079 -0.0289
13934SOL    HW243477   1.778   6.839   3.142 -0.8165 -0.5398 -1.1168
13935SOL     OW43478   8.635   6.101   6.243 -0.2790  0.4233 -0.0420
13935SOL    HW143479   8.665   6.058   6.163 -1.3596  1.0892 -0.8401
13935SOL    HW243480   8.703   6.164   6.265  0.5381 -0.5207  0.2015
13936SOL     OW43481   0.375   9.336   3.309 -0.3347  0.7831 -0.6152
13936SOL    HW143482   0.281   9.351   3.298 -0.2512  0.4426 -2.0654
13936SOL    HW243483   0.392   9.353   3.401 -2.2018 -1.1900  0.1742
13937SOL     OW43484   6.872   7.382   1.908  0.3521  0.2145 -0.0947
13937SOL    HW143485   6.785   7.404   1.943  0.8522 -1.1284  2.1547
13937SOL    HW243486   6.859   7.299   1.862  0.3963  0.1133  0.0741
13938SOL     OW43487   8.977   7.951   8.043 -0.2464  0.0505 -0.9889
13938SOL    HW143488   9.013   7.882   7.987  0.2220  0.1394 -0.7968
13938SOL    HW243489   8.923   7.904   8.107 -0.5822 -0.0707 -1.3539
13939SOL     OW43490   7.950   1.824   2.801 -0.1393 -0.6685  0.2819
13939SOL    HW143491   8.031   1.818   2.851 -0.2478  0.6400  0.6635
13939SOL    HW243492   7.912   1.908   2.827 -1.0611 -0.7489 -0.7186
13940SOL     OW43493   7.612   8.963   6.165  0.0946  0.5986 -0.1951
13940SOL    HW143494   7.561   9.025   6.113 -2.3826 -0.3615  0.9044
13940SOL    HW243495   7.628   9.008   6.248  0.4150  0.6431 -0.2803
13941SOL     OW43496   0.991   4.405   5.806  0.4664 -0.0119 -0.1615
13941SOL    HW143497   0.976   4.332   5.866  0.2002 -1.1897 -1.6016
13941SOL    HW243498   1.020   4.363   5.725 -0.3961  1.4303 -1.2461
13942SOL     OW43499   2.369   0.745   7.875 -0.3388  0.3722  0.4950
13942SOL    HW143500   2.364   0.690   7.953  1.4567  0.9363  1.0699
13942SOL    HW243501   2.283   0.737   7.834 -1.2092 -0.2329  2.3237
13943SOL     OW43502   6.367   6.380   5.956  0.3027  0.0035  0.2769
13943SOL    HW143503   6.438   6.378   5.892  0.8642 -1.4956  0.8937
13943SOL    HW243504   6.308   6.449   5.925  2.8716  2.5724  0.7046
13944SOL     OW43505   9.278   6.720   6.491 -0.0837 -0.3467  0.3525
13944SOL    HW143506   9.258   6.626   6.491 -0.5078 -0.2620  0.9282
13944SOL    HW243507   9.198   6.762   6.458 -1.1838  0.0334  3.1716
13945SOL     OW43508   5.266   5.645   7.846  0.4731  0.1566  0.1360
13945SOL    HW143509   5.284   5.708   7.777  1.2771 -1.0205 -0.7727
13945SOL    HW243510   5.278   5.695   7.927 -1.0319  1.6960 -0.5350
13946SOL     OW43511   6.451   6.892   7.565 -0.2500  0.5244  0.5653
13946SOL    HW143512   6.534   6.847   7.580  0.1732  1.1029  0.0128
13946SOL    HW243513   6.384   6.831   7.598  0.3406 -0.2709  0.3289
13947SOL     OW43514   8.979   0.664   2.423  0.7109 -0.3535  0.1370
13947SOL    HW143515   9.003   0.717   2.499 -0.4506 -1.6746  1.4759
13947SOL    HW243516   8.934   0.725   2.365 -0.3040  0.2214  1.4922
13948SOL     OW43517   0.500   9.314   5.762  0.9288  0.2838  0.3777
13948SOL    HW143518   0.575   9.373   5.758  0.1291  1.3477  0.7131
13948SOL    HW243519   0.519   9.247   5.695  2.0471  0.6584  0.2959
13949SOL     OW43520   6.935   4.178   5.488 -0.5354 -0.7211 -0.2790
13949SOL    HW143521   6.860   4.127   5.520 -0.3264 -0.7146  0.2230
13949SOL    HW243522   7.004   4.113   5.477 -0.3204 -0.5741  0.1984
13950SOL     OW43523   9.311   0.120   3.405  0.4724 -0.2511 -0.2342
13950SOL    HW143524   9.245   0.064   3.363  0.8569 -1.4794  0.7329
13950SOL    HW243525   9.265   0.203   3.421 -0.1565 -0.3141 -1.5769
13951SOL     OW43526   6.229   3.218   3.103  0.7964 -0.0773 -0.1419
13951SOL    HW143527   6.204   3.138   3.149  2.0220 -0.2115  0.3523
13951SOL    HW243528   6.210   3.200   3.011  1.0766 -0.9533 -0.0376
13952SOL     OW43529   8.736   5.613   5.194 -0.1993 -0.0462  0.3203
13952SOL    HW143530   8.749   5.581   5.105 -0.3031  2.4585 -0.6776
13952SOL    HW243531   8.663   5.675   5.186  0.1226  0.5929  2.0604
13953SOL     OW43532   8.936   3.026   1.906  0.4788 -0.3045  0.5222
13953SOL    HW143533   8.911   2.970   1.979  0.6954  0.3109  1.0776
13953SOL    HW243534   8.858   3.079   1.889  1.3734  1.7931  2.4187
13954SOL     OW43535   7.698   7.909   8.159 -0.8910  0.0132  0.2460
13954SOL    HW143536   7.671   7.827   8.119  0.9054 -0.9262  0.8740
13954SOL    HW243537   7.695   7.892   8.254  0.1276  0.4362  0.3667
13955SOL     OW43538   6.959   6.112   5.491  0.8582  0.1210  0.4579
13955SOL    HW143539   6.948   6.171   5.416 -1.6749  0.3172  0.8638
13955SOL    HW243540   6.985   6.169   5.563  0.3612  0.4404  0.3905
13956SOL     OW43541   2.410   8.928   2.494  0.0884 -0.0149 -1.0677
13956SOL    HW143542   2.501   8.955   2.480 -0.1711  0.2097 -2.4687
13956SOL    HW243543   2.358   9.004   2.468 -0.4991  0.3447  0.9815
13957SOL     OW43544   6.959   4.595   4.597 -0.8765 -0.2061  0.4849
13957SOL    HW143545   6.875   4.580   4.553 -1.0829  0.5943  0.5828
13957SOL    HW243546   7.023   4.548   4.543 -1.1388  0.6532 -0.6156
13958SOL     OW43547   1.657   1.499   4.168 -0.4978 -0.2205 -0.0343
13958SOL    HW143548   1.628   1.545   4.246  0.1573 -0.0113  0.0877
13958SOL    HW243549   1.576   1.479   4.121 -0.7965  1.1265 -0.1351
13959SOL     OW43550   2.505   3.954   0.468  0.2134 -0.0819  0.4421
13959SOL    HW143551   2.455   4.011   0.410  1.8672 -0.6027 -1.6141
13959SOL    HW243552   2.526   4.009   0.544 -2.7272  0.3553  1.0626
13960SOL     OW43553   6.778   2.934   2.629  0.7381 -0.1103 -0.0615
13960SOL    HW143554   6.810   3.017   2.595  1.3686 -0.1978  0.2861
13960SOL    HW243555   6.693   2.954   2.667  0.3621  0.1333 -1.0131
13961SOL     OW43556   5.887   3.647   6.718  0.3779  0.3703  0.2181
13961SOL    HW143557   5.868   3.740   6.729 -0.3088  0.2936 -0.2689
13961SOL    HW243558   5.910   3.616   6.806  0.1479  0.8907  0.4614
13962SOL     OW43559   2.724   0.586   3.702  0.3722  0.3369 -0.1220
13962SOL    HW143560   2.652   0.533   3.667 -0.7377  1.9757 -0.4590
13962SOL    HW243561   2.769   0.619   3.624 -0.6583  2.0745 -0.0479
13963SOL     OW43562   8.525   6.458   6.888  0.5660  0.1083  0.7907
13963SOL    HW143563   8.443   6.444   6.935  2.1505 -0.7289  3.5328
13963SOL    HW243564   8.527   6.552   6.872 -2.0795 -0.1491 -1.8109
13964SOL     OW43565   5.627   3.547   1.643 -0.0859 -0.0930  0.2546
13964SOL    HW143566   5.535   3.562   1.625 -0.0225 -0.5379 -0.4792
13964SOL    HW243567   5.669   3.631   1.627 -0.0826 -0.3726 -1.4183
13965SOL     OW43568   5.959   9.445   0.102  0.5964  0.1611  0.7527
13965SOL    HW143569   5.964   9.515   0.038  0.7516  0.3733  0.9953
13965SOL    HW243570   5.870   9.410   0.092  1.4431 -1.5770 -1.4095
13966SOL     OW43571   8.595   5.687   3.237 -0.1149  0.5690 -0.3815
13966SOL    HW143572   8.535   5.672   3.164 -0.5187 -1.4059  0.3097
13966SOL    HW243573   8.539   5.686   3.315  0.7934 -1.7188  0.3131
13967SOL     OW43574   8.227   3.916   8.179  0.2890  0.2460 -0.0101
13967SOL    HW143575   8.264   3.989   8.229 -1.9644  0.3354  1.6569
13967SOL    HW243576   8.154   3.955   8.130 -1.6879 -0.9783  1.7815
13968SOL     OW43577   8.136   0.854   1.685 -0.0656  0.3443 -0.5171
13968SOL    HW143578   8.168   0.897   1.607  0.2619 -0.8076 -1.0465
13968SOL    HW243579   8.194   0.884   1.755 -0.4740  1.5154 -0.6663
13969SOL     OW43580   9.218   4.839   1.432  0.0597 -0.2548  0.1578
13969SOL    HW143581   9.122   4.845   1.428  0.1594  1.3244 -0.2439
13969SOL    HW243582   9.247   4.853   1.342  0.6627 -1.2023  0.1934
13970SOL     OW43583   0.315   5.238   2.081 -0.3735  0.2819 -0.2757
13970SOL    HW143584   0.321   5.177   2.154 -0.4961 -0.1720 -0.6463
13970SOL    HW243585   0.298   5.323   2.122  2.0543  0.5101  0.4263
13971SOL     OW43586   7.171   4.690   6.333  0.4639 -0.0099  0.3830
13971SOL    HW143587   7.198   4.696   6.241 -0.7769  0.6730  0.0350
13971SOL    HW243588   7.076   4.673   6.328  0.1102  1.4811  1.5279
13972SOL     OW43589   5.824   4.372   1.704  0.4406 -0.0609 -0.4756
13972SOL    HW143590   5.829   4.416   1.789  2.4500  1.0946 -1.0983
13972SOL    HW243591   5.806   4.281   1.724 -2.7195  0.7698  0.9589
13973SOL     OW43592   6.127   0.873   5.777  0.5873 -0.1329  0.5222
13973SOL    HW143593   6.212   0.844   5.745  0.3713 -0.1408 -0.0614
13973SOL    HW243594   6.066   0.805   5.749  0.1164  0.7360 -0.6528
13974SOL     OW43595   2.629   1.626   4.064  0.3617 -0.6656  0.5713
13974SOL    HW143596   2.673   1.549   4.028 -0.0912 -0.6242 -0.0851
13974SOL    HW243597   2.563   1.649   3.998  1.3088  1.0226  0.1565
13975SOL     OW43598   8.458   6.755   2.369 -0.7026  0.7142  0.5213
13975SOL    HW143599   8.429   6.706   2.292 -0.4033  0.4854  0.5529
13975SOL    HW243600   8.551   6.773   2.353  0.0114 -1.4259  1.8912
13976SOL     OW43601   5.930   7.606   0.345  0.1333 -0.2042 -0.3991
13976SOL    HW143602   5.891   7.614   0.432  0.4689  0.4539 -0.3046
13976SOL    HW243603   5.918   7.514   0.322  0.7511 -0.5809  0.6852
13977SOL     OW43604   5.264   9.474   4.858  0.9999 -0.0119  0.2484
13977SOL    HW143605   5.170   9.457   4.861  0.4374  1.5776 -3.0382
13977SOL    HW243606   5.303   9.391   4.830  0.2714 -0.1215 -0.4757
13978SOL     OW43607   7.041   1.695   0.576  0.2205 -0.2063  0.2039
13978SOL    HW143608   7.122   1.665   0.619  0.9377  0.6729 -0.4913
13978SOL    HW243609   7.001   1.754   0.639  0.3982 -0.2334  0.3438
13979SOL     OW43610   2.944   7.921   4.067  0.4076  0.2570  0.1778
13979SOL    HW143611   2.884   7.981   4.024 -2.5720 -2.4967  0.1113
13979SOL    HW243612   2.952   7.954   4.157 -1.2156  0.7629  0.1679
13980SOL     OW43613   0.891   8.677   8.860 -0.3903 -0.6661  0.7218
13980SOL    HW143614   0.835   8.755   8.855 -1.1081 -1.1758  0.7023
13980SOL    HW243615   0.857   8.628   8.936 -0.5974 -1.4569  0.1283
13981SOL     OW43616   7.468   9.616   9.314  0.2821  0.1636  0.3596
13981SOL    HW143617   7.426   9.580   9.392  1.2825  1.2449  1.4415
13981SOL    HW243618   7.398   9.662   9.269 -0.2092 -0.0407  0.8935
13982SOL     OW43619   8.645   2.256   0.912 -0.5537  0.8037 -0.7573
13982SOL    HW143620   8.731   2.298   0.911 -0.3369  0.5392  1.4839
13982SOL    HW243621   8.608   2.281   0.996 -2.7964  1.0711 -1.7574
13983SOL     OW43622   6.198   4.468   3.716  0.3531 -0.4729 -0.0699
13983SOL    HW143623   6.292   4.456   3.721  0.3351 -0.6272 -0.0990
13983SOL    HW243624   6.183   4.559   3.745  0.4570 -0.6391  0.5165
13984SOL     OW43625   1.300   0.995   3.998  0.1477  0.2148 -0.3436
13984SOL    HW143626   1.273   1.077   3.956  0.6960  0.6015  0.0375
13984SOL    HW243627   1.240   0.985   4.071 -1.1946 -0.7704 -1.5255
13985SOL     OW43628   1.704   2.702   1.550 -0.1895 -0.5934 -0.1369
13985SOL    HW143629   1.734   2.644   1.480 -2.5077 -1.1575 -0.7429
13985SOL    HW243630   1.743   2.665   1.630  1.0162 -1.0116 -0.8810
13986SOL     OW43631   2.499   7.143   9.448  0.2293  0.1847 -0.2517
13986SOL    HW143632   2.553   7.131   9.527 -0.5245  2.6901  0.7448
13986SOL    HW243633   2.558   7.183   9.385  0.0621  1.0710  0.1443
13987SOL     OW43634   0.184   1.516   4.143 -0.3459  0.8798 -0.0160
13987SOL    HW143635   0.110   1.464   4.112 -0.3006  0.8451 -0.0660
13987SOL    HW243636   0.144   1.594   4.182 -0.4310  0.6678  0.3302
13988SOL     OW43637   4.136   3.674   8.867 -0.1155 -0.0519 -0.4154
13988SOL    HW143638   4.189   3.625   8.805 -0.4469 -0.9218 -0.0294
13988SOL    HW243639   4.199   3.717   8.925  0.1804  0.1750 -0.9052
13989SOL     OW43640   0.800   4.637   6.202  0.1653 -0.6041  0.6055
13989SOL    HW143641   0.733   4.678   6.256  0.1125 -0.2442  0.2774
13989SOL    HW243642   0.836   4.566   6.256 -1.2491 -1.5278  0.3667
13990SOL     OW43643   0.415   1.534   1.944  0.2134 -0.4957  0.6713
13990SOL    HW143644   0.354   1.488   2.001 -1.5425 -1.2534 -1.6654
13990SOL    HW243645   0.493   1.478   1.941 -0.1236 -1.0084  1.4072
13991SOL     OW43646   1.968   8.586   5.605 -0.3489 -0.4520 -0.2923
13991SOL    HW143647   1.979   8.676   5.576  0.4945  0.2525  1.9873
13991SOL    HW243648   2.055   8.558   5.633 -0.9183 -1.3222  0.7257
13992SOL     OW43649   9.557   8.163   3.676 -0.3568 -0.5146  0.1279
13992SOL    HW143650   9.599   8.093   3.727  2.2705  1.2276  0.5223
13992SOL    HW243651   9.623   8.191   3.613 -1.0527  2.0656  0.4179
13993SOL     OW43652   8.773   2.913   7.757  0.0258  0.1668  0.6393
13993SOL    HW143653   8.754   2.820   7.749 -0.4738  0.2445  0.9012
13993SOL    HW243654   8.853   2.917   7.810  0.0964 -0.1150  0.5530
13994SOL     OW43655   4.559   6.302   6.829 -0.5005  0.2037  0.7570
13994SOL    HW143656   4.627   6.272   6.888  0.6119 -0.7954 -0.9611
13994SOL    HW243657   4.496   6.230   6.824  0.1230 -0.2906 -0.3039
13995SOL     OW43658   1.543   1.459   1.752 -0.3915 -0.2951 -0.8919
13995SOL    HW143659   1.472   1.399   1.730  0.1611 -0.6150 -1.8696
13995SOL    HW243660   1.535   1.530   1.688 -0.6861  0.3993 -0.1086
13996SOL     OW43661   7.175   7.987   2.188  0.0227  0.1430 -0.2509
13996SOL    HW143662   7.263   8.017   2.164  0.3833  0.3935  1.2579
13996SOL    HW243663   7.174   7.992   2.284 -1.3079 -0.7971 -0.1928
13997SOL     OW43664   8.016   2.944   3.432 -0.4032  0.0776  0.0233
13997SOL    HW143665   8.036   2.985   3.348  0.4597 -0.5348 -0.0799
13997SOL    HW243666   8.024   3.015   3.496 -0.1371  0.3455 -0.3029
13998SOL     OW43667   5.688   3.073   3.446  0.1419  0.4538  0.1448
13998SOL    HW143668   5.745   3.129   3.394  0.3546  0.7318  0.6662
13998SOL    HW243669   5.748   3.014   3.493 -0.1507 -2.2677 -2.5919
13999SOL     OW43670   5.287   8.347   9.360  0.1953 -0.0921 -0.3230
13999SOL    HW143671   5.243   8.432   9.367 -0.8752 -0.6791  0.4454
13999SOL    HW243672   5.264   8.316   9.272 -0.2593 -0.0345 -0.2285
14000SOL     OW43673   0.055   5.340   8.509 -0.0013 -1.1437 -0.0777
14000SOL    HW143674  -0.010   5.408   8.527 -1.0068 -1.6547 -1.5568
14000SOL    HW243675   0.004   5.258   8.506  0.9893 -1.8005  0.4295
14001SOL     OW43676   6.221   7.317   1.428  0.0175 -0.1547  0.0084
14001SOL    HW143677   6.225   7.233   1.472  1.3975 -0.2172 -0.2206
14001SOL    HW243678   6.261   7.302   1.343 -1.3756  0.3001 -0.7615
14002SOL     OW43679   7.775   2.182   8.310  0.0830 -0.8327  0.0102
14002SOL    HW143680   7.724   2.105   8.284  2.7764 -2.5803 -0.4959
14002SOL    HW243681   7.714   2.255   8.301 -2.6867 -2.8742  0.7150
14003SOL     OW43682   2.208   0.629   0.298 -0.5910 -0.0500  0.2200
14003SOL    HW143683   2.288   0.646   0.349  0.3492  2.0135 -1.7558
14003SOL    HW243684   2.236   0.569   0.229 -0.7875  0.5344 -0.3711
14004SOL     OW43685   6.893   1.613   1.049 -0.4319 -0.4809 -0.2993
14004SOL    HW143686   6.898   1.697   1.095 -0.6620 -0.3168 -0.5683
14004SOL    HW243687   6.886   1.637   0.956 -0.5277 -0.7976 -0.3752
14005SOL     OW43688   4.188   7.415   1.302  0.1869  0.1437  0.4290
14005SOL    HW143689   4.136   7.391   1.225 -2.0512  0.4492  1.7565
14005SOL    HW243690   4.154   7.500   1.329  0.6517 -0.1280  1.9700
14006SOL     OW43691   8.023   8.718   0.956  0.3031 -0.2784 -0.3690
14006SOL    HW143692   8.036   8.812   0.943 -2.7073  0.1794 -0.7609
14006SOL    HW243693   8.018   8.707   1.051  1.8562 -0.2802 -0.2663
14007SOL     OW43694   3.137   6.000   2.535 -0.1630  0.2831 -0.1844
14007SOL    HW143695   3.179   5.915   2.547 -0.3188  0.4512  1.9987
14007SOL    HW243696   3.046   5.986   2.561 -0.0055  1.2795  0.9788
14008SOL     OW43697   3.702   8.644   2.949 -0.4042 -0.4795 -0.7153
14008SOL    HW143698   3.708   8.730   2.989  2.8236  0.1922 -2.2660
14008SOL    HW243699   3.644   8.656   2.874 -1.3049 -0.1202  0.0216
14009SOL     OW43700   2.406   4.893   4.464 -0.7443  0.6192  0.1399
14009SOL    HW143701   2.352   4.824   4.425 -0.4413  0.4407  0.0383
14009SOL    HW243702   2.419   4.864   4.554 -0.7618  0.6289  0.1456
14010SOL     OW43703   1.517   2.255   5.991  0.3335  0.4238  0.2199
14010SOL    HW143704   1.533   2.341   6.030  0.6796  0.5066 -0.0945
14010SOL    HW243705   1.439   2.268   5.936  0.9796  0.8097 -0.6339
14011SOL     OW43706   1.927   8.813   2.048  0.3437  0.4809 -0.9542
14011SOL    HW143707   1.972   8.777   1.972  0.2042  2.7375 -2.1927
14011SOL    HW243708   1.958   8.904   2.054 -0.4992  0.7067  1.0284
14012SOL     OW43709   2.996   9.502   5.120 -0.7503  0.5271 -0.2932
14012SOL    HW143710   3.030   9.495   5.209 -1.0139  0.1997 -0.2155
14012SOL    HW243711   3.002   9.595   5.100 -1.8422  0.7972  0.5370
14013SOL     OW43712   3.532   0.298   9.411  0.1230 -0.4403  0.7247
14013SOL    HW143713   3.580   0.219   9.435  1.0289 -0.3545 -0.7061
14013SOL    HW243714   3.576   0.330   9.333 -1.6566  0.2084 -0.0577
14014SOL     OW43715   4.084   8.832   9.398  0.0541  0.1940  0.2192
14014SOL    HW143716   4.118   8.899   9.338 -0.6361  0.9378  0.6430
14014SOL    HW243717   4.115   8.860   9.485 -0.2143 -0.0434  0.3924
14015SOL     OW43718   0.139   1.751   2.646  0.1962  0.4199 -0.0317
14015SOL    HW143719   0.104   1.808   2.578 -0.0001  1.2621  0.7526
14015SOL    HW243720   0.123   1.798   2.728 -0.8234 -1.1844  0.7357
14016SOL     OW43721   5.662   2.182   0.326  0.1051  0.2492 -0.1268
14016SOL    HW143722   5.585   2.234   0.352  0.1148 -1.0694  2.8954
14016SOL    HW243723   5.717   2.244   0.278 -1.2104  2.2306  0.7859
14017SOL     OW43724   2.742   3.858   2.937 -0.1956  0.2681 -0.7413
14017SOL    HW143725   2.795   3.935   2.916  1.4755  0.0280  2.1163
14017SOL    HW243726   2.719   3.821   2.852  3.0427  1.2129 -2.1863
14018SOL     OW43727   2.095   8.787   0.687 -0.1786  0.0784 -0.4500
14018SOL    HW143728   2.021   8.737   0.720 -0.7864  0.6522 -0.9271
14018SOL    HW243729   2.056   8.863   0.645  0.7355  1.5212  1.1641
14019SOL     OW43730   4.711   1.234   0.605 -0.2074 -0.1869 -0.2970
14019SOL    HW143731   4.695   1.326   0.627  0.4834  0.7740 -3.3148
14019SOL    HW243732   4.630   1.204   0.565  0.4926  0.0425 -1.9509
14020SOL     OW43733   0.565   8.613   9.532  0.0159  0.1723  1.0072
14020SOL    HW143734   0.596   8.572   9.612  0.0760 -0.8161  0.4940
14020SOL    HW243735   0.614   8.695   9.526  1.6591 -0.7791  0.8365
14021SOL     OW43736   5.734   2.952   2.388  0.2377 -0.3480  0.0654
14021SOL    HW143737   5.645   2.986   2.391  0.5074  0.3060  2.2578
14021SOL    HW243738   5.741   2.894   2.464  2.1578  0.9639  0.9850
14022SOL     OW43739   8.303   4.066   6.523  0.2235  0.0779 -0.1781
14022SOL    HW143740   8.384   4.020   6.546 -0.9210 -0.8065  2.4145
14022SOL    HW243741   8.319   4.157   6.548 -0.0252 -0.3618  1.6991
14023SOL     OW43742   1.782   2.874   1.957 -0.0057 -0.0533 -0.3242
14023SOL    HW143743   1.729   2.871   2.036  1.0681 -2.1809  0.4115
14023SOL    HW243744   1.751   2.801   1.904  0.4582  0.2637 -1.0536
14024SOL     OW43745   6.655   3.753   1.064 -0.6751 -0.3336  0.5350
14024SOL    HW143746   6.746   3.779   1.079 -1.2880  2.1014  0.3938
14024SOL    HW243747   6.603   3.815   1.114 -2.3057 -1.8768  0.8707
14025SOL     OW43748   9.571   9.028   7.251  0.5607  0.4887 -0.3357
14025SOL    HW143749   9.561   8.979   7.170 -0.2506 -0.2499  0.1861
14025SOL    HW243750   9.496   9.088   7.253  1.4851  1.7166 -0.9163
14026SOL     OW43751   8.659   5.285   8.877 -0.3691 -0.2397 -0.4423
14026SOL    HW143752   8.596   5.347   8.913 -1.5972 -1.4809 -0.3520
14026SOL    HW243753   8.737   5.296   8.930 -1.6230 -0.9368  1.6659
14027SOL     OW43754   0.134   0.556   4.067  0.1035  0.1251 -0.1534
14027SOL    HW143755   0.040   0.572   4.067  0.2107  0.8621 -1.6526
14027SOL    HW243756   0.162   0.574   3.977  1.8396  0.8958  0.5017
14028SOL     OW43757   0.858   7.449   0.231 -0.4866  0.3029  0.2887
14028SOL    HW143758   0.913   7.491   0.165  0.0187  0.6303  0.9020
14028SOL    HW243759   0.919   7.394   0.281 -0.7817  0.3644  0.7220
14029SOL     OW43760   6.430   9.626   0.844  0.0370 -0.2855  0.3236
14029SOL    HW143761   6.349   9.606   0.891 -0.2001  0.3988  0.2121
14029SOL    HW243762   6.403   9.636   0.753  0.2985 -0.3440  0.2384
14030SOL     OW43763   3.893   5.557   6.273 -0.0475  0.3311  0.0543
14030SOL    HW143764   3.916   5.622   6.206 -0.2029 -1.0366 -1.3988
14030SOL    HW243765   3.887   5.607   6.354  0.5356  1.9981 -0.8770
14031SOL     OW43766   9.013   9.561   5.403 -0.3390  0.6863 -0.1155
14031SOL    HW143767   9.062   9.635   5.437 -0.7276  0.2541  1.4826
14031SOL    HW243768   8.922   9.579   5.428 -0.6700  0.3912 -1.0521
14032SOL     OW43769   7.351   0.547   1.071 -0.7324 -0.4587 -0.0705
14032SOL    HW143770   7.346   0.522   0.978  0.8645 -0.1253 -0.2795
14032SOL    HW243771   7.359   0.642   1.069  2.6812 -0.6233  0.1589
14033SOL     OW43772   4.380   8.906   7.569 -0.0468  0.6172 -0.0437
14033SOL    HW143773   4.315   8.926   7.636  0.5594 -1.7518  1.3822
14033SOL    HW243774   4.457   8.876   7.617  0.9881  0.3425 -1.7614
14034SOL     OW43775   4.694   4.899   5.399 -0.4106 -0.1633  0.4060
14034SOL    HW143776   4.645   4.834   5.349 -0.2294 -2.3632  2.8406
14034SOL    HW243777   4.628   4.939   5.457 -0.4704  1.7495 -0.8932
14035SOL     OW43778   6.203   1.722   2.334  0.3862  0.1721  0.0324
14035SOL    HW143779   6.280   1.685   2.290 -0.1855 -0.5185 -0.4178
14035SOL    HW243780   6.230   1.732   2.425  1.4075  1.1056 -0.3512
14036SOL     OW43781   0.488   0.785   1.801  0.4428  0.1170 -0.0440
14036SOL    HW143782   0.465   0.724   1.871 -0.5900 -1.9375 -2.0579
14036SOL    HW243783   0.446   0.867   1.826 -0.1004 -0.6305  1.6186
14037SOL     OW43784   7.808   1.460   8.338  0.8052  0.1798  0.3322
14037SOL    HW143785   7.731   1.442   8.284  0.2962 -0.0998  1.1292
14037SOL    HW243786   7.838   1.373   8.367  2.4514  0.1395 -1.3307
14038SOL     OW43787   5.381   5.496   3.304 -0.3569 -0.0122 -0.0184
14038SOL    HW143788   5.398   5.584   3.270  0.2017  0.8285  2.2802
14038SOL    HW243789   5.289   5.480   3.285 -0.4492  1.0271 -0.5125
14039SOL     OW43790   2.487   0.127   4.621 -0.1882  0.1848 -0.1755
14039SOL    HW143791   2.566   0.099   4.667  0.0666 -0.9155 -1.2352
14039SOL    HW243792   2.429   0.159   4.690  0.7760  0.0347  0.7288
14040SOL     OW43793   8.616   5.065   6.155 -0.3712 -0.3522  0.5673
14040SOL    HW143794   8.522   5.078   6.162 -0.2920  0.7398 -0.0941
14040SOL    HW243795   8.651   5.151   6.131  0.4966 -1.2651 -1.8042
14041SOL     OW43796   8.946   9.217   6.447 -0.4848 -0.4253 -1.0422
14041SOL    HW143797   9.039   9.196   6.451 -0.0510  1.4996  1.0690
14041SOL    HW243798   8.943   9.308   6.416 -1.3069  0.8391  2.3077
14042SOL     OW43799   8.305   5.540   7.634 -0.8755 -0.3432 -0.1149
14042SOL    HW143800   8.373   5.485   7.673 -0.0912 -0.4489 -1.5282
14042SOL    HW243801   8.330   5.630   7.658  0.2763 -0.3122 -1.2799
14043SOL     OW43802   5.930   9.106   3.124  0.5880 -0.0770 -0.8254
14043SOL    HW143803   5.924   9.042   3.053  1.9744 -1.2207  0.0324
14043SOL    HW243804   5.898   9.188   3.086 -0.6707 -1.1284 -2.1324
14044SOL     OW43805   5.064   6.909   8.573  0.1584 -0.2817  0.2891
14044SOL    HW143806   5.052   6.931   8.481  0.8076 -1.5993 -0.1275
14044SOL    HW243807   5.039   6.989   8.620 -1.9377 -0.1617 -0.9072
14045SOL     OW43808   8.026   6.030   7.166  0.4281 -0.7598  0.5040
14045SOL    HW143809   7.978   6.093   7.220 -0.4055 -0.9570  0.0145
14045SOL    HW243810   8.111   6.072   7.150 -0.0958  0.2318  0.2238
14046SOL     OW43811   5.052   3.497   5.055 -0.0367 -0.0204 -0.3668
14046SOL    HW143812   5.093   3.581   5.035  1.3790 -0.0906  1.8398
14046SOL    HW243813   5.098   3.434   4.999 -1.7831  0.6949 -2.7715
14047SOL     OW43814   6.586   1.319   2.189 -0.1138 -0.6704 -0.2808
14047SOL    HW143815   6.563   1.292   2.100  0.0607  0.4647 -0.6912
14047SOL    HW243816   6.682   1.321   2.189 -0.1137  1.6696 -0.8423
14048SOL     OW43817   5.810   2.007   5.017  0.3358 -0.0147  0.3117
14048SOL    HW143818   5.871   2.044   4.953  1.1776  0.4232  1.3397
14048SOL    HW243819   5.843   2.037   5.102 -1.9523  1.1623  0.8545
14049SOL     OW43820   2.700   6.524   5.613 -0.0723  0.1840  0.6466
14049SOL    HW143821   2.608   6.499   5.613 -0.9287  2.9992  0.2737
14049SOL    HW243822   2.708   6.589   5.683  1.6374 -0.0211  0.6793
14050SOL     OW43823   1.928   3.232   7.324  0.0055  0.4312  0.0670
14050SOL    HW143824   1.902   3.154   7.276  2.6663 -0.1463 -0.6280
14050SOL    HW243825   1.855   3.250   7.383 -2.2099 -0.4588 -2.2094
14051SOL     OW43826   7.138   6.955   5.338 -0.1098  0.2299  0.4820
14051SOL    HW143827   7.129   6.903   5.418  0.0218 -0.4181  0.0855
14051SOL    HW243828   7.051   6.994   5.325 -0.7815 -1.3891 -0.2105
14052SOL     OW43829   4.873   3.608   7.379  0.1884 -0.3437 -0.0922
14052SOL    HW143830   4.880   3.532   7.323  1.3118 -0.8953  0.7540
14052SOL    HW243831   4.892   3.575   7.467 -1.7519  0.4382  0.6920
14053SOL     OW43832   6.666   8.366   7.937  0.4393 -0.2729 -0.0849
14053SOL    HW143833   6.652   8.450   7.981  0.7573 -0.2583 -0.0089
14053SOL    HW243834   6.752   8.374   7.898 -0.2621  0.1135 -1.6310
14054SOL     OW43835   6.773   8.957   3.700  0.3498  0.4432  0.0476
14054SOL    HW143836   6.836   8.885   3.710 -0.3562 -0.0369  1.2978
14054SOL    HW243837   6.720   8.953   3.780 -0.5386  1.5483 -0.4672
14055SOL     OW43838   7.819   7.870   4.500 -0.1951 -0.0958  0.4683
14055SOL    HW143839   7.739   7.860   4.447 -0.0815  0.5145  0.1693
14055SOL    HW243840   7.881   7.808   4.462 -0.1168  0.3334 -0.1259
14056SOL     OW43841   6.045   7.623   1.222  0.3023 -0.1694 -0.0872
14056SOL    HW143842   6.107   7.665   1.163 -1.2505 -0.0006 -1.6880
14056SOL    HW243843   6.040   7.682   1.297 -2.5246  3.3055 -2.6591
14057SOL     OW43844   6.251   2.940   4.012 -0.1334 -0.0112 -0.3001
14057SOL    HW143845   6.211   2.984   3.937 -0.2080 -1.5906 -1.2526
14057SOL    HW243846   6.182   2.935   4.078  0.1281  1.9935  0.1898
14058SOL     OW43847   8.741   1.557   2.512 -0.1082 -0.0928 -0.6914
14058SOL    HW143848   8.786   1.503   2.448  0.3477 -0.1877 -0.2991
14058SOL    HW243849   8.804   1.627   2.533 -0.2472 -0.0674 -0.3490
14059SOL     OW43850   6.421   9.161   0.530  0.2409  0.4941 -0.3297
14059SOL    HW143851   6.492   9.160   0.594  0.2138 -0.2105 -0.3097
14059SOL    HW243852   6.375   9.243   0.547  1.3338  1.1992 -0.6651
14060SOL     OW43853   3.667   7.701   7.977  0.3871 -1.0677  0.3220
14060SOL    HW143854   3.615   7.733   8.051  1.9365  0.5458  0.7855
14060SOL    HW243855   3.748   7.751   7.981  0.7725 -1.3607 -2.1516
14061SOL     OW43856   2.734   7.549   6.479 -0.2528 -0.0959 -0.1282
14061SOL    HW143857   2.744   7.480   6.545  2.1081 -1.1900 -1.4922
14061SOL    HW243858   2.643   7.540   6.449 -0.1935 -2.3109  0.1318
14062SOL     OW43859   9.608   6.101   2.826 -0.0207  0.4549 -0.2885
14062SOL    HW143860   9.644   6.189   2.813  1.2631 -0.0461 -0.2954
14062SOL    HW243861   9.615   6.086   2.920  1.1046 -0.1574 -0.4454
14063SOL     OW43862   6.394   3.929   9.114  0.2219 -0.5616  0.4001
14063SOL    HW143863   6.453   3.873   9.064 -0.2419 -1.1964  0.5423
14063SOL    HW243864   6.440   4.012   9.123  0.6214 -0.6873 -0.4310
14064SOL     OW43865   3.511   6.057   4.795  0.5660 -0.3843  0.2852
14064SOL    HW143866   3.420   6.088   4.799  0.4916 -0.6673  0.7192
14064SOL    HW243867   3.562   6.137   4.778  0.1848 -0.3089 -0.5564
14065SOL     OW43868   5.755   1.325   2.459  0.1446 -0.0128 -0.4860
14065SOL    HW143869   5.809   1.383   2.512  0.0115 -0.3049 -0.0206
14065SOL    HW243870   5.795   1.238   2.469 -0.0475 -0.1214 -0.6367
14066SOL     OW43871   5.241   6.138   0.842  0.1768 -0.4561 -0.8101
14066SOL    HW143872   5.209   6.167   0.756  2.5085  1.0293 -1.2816
14066SOL    HW243873   5.216   6.209   0.902  0.9341 -0.1593 -0.8327
14067SOL     OW43874   0.136   7.632   9.248 -0.1361 -0.2105 -0.3642
14067SOL    HW143875   0.162   7.607   9.336  1.0025  2.9738  0.3470
14067SOL    HW243876   0.042   7.616   9.245 -0.3421  0.2680  1.7340
14068SOL     OW43877   0.764   1.299   4.719 -0.2415  0.4429 -0.0695
14068SOL    HW143878   0.827   1.233   4.688  0.3867  0.5751  0.8788
14068SOL    HW243879   0.783   1.377   4.667 -0.0573  0.2817 -0.2446
14069SOL     OW43880   1.750   5.752   5.318 -0.5395  0.1843 -0.1726
14069SOL    HW143881   1.830   5.791   5.284  1.5228 -2.6672  1.0890
14069SOL    HW243882   1.750   5.774   5.411 -0.3870 -1.0876  0.1447
14070SOL     OW43883   5.288   6.457   0.414 -0.0426  0.6309  0.5815
14070SOL    HW143884   5.356   6.475   0.348  0.0812  0.6210  0.7047
14070SOL    HW243885   5.254   6.544   0.437 -1.7533  0.5125 -1.2209
14071SOL     OW43886   1.437   0.907   2.473 -0.1534 -0.3188 -0.3684
14071SOL    HW143887   1.360   0.884   2.524  0.3238 -0.0091  0.5189
14071SOL    HW243888   1.466   0.825   2.433 -0.7143 -0.5053 -0.3941
14072SOL     OW43889   5.945   5.917   8.578  0.0576 -0.5335 -0.7479
14072SOL    HW143890   5.963   5.946   8.668 -1.0032 -2.8855  0.3052
14072SOL    HW243891   5.854   5.942   8.563  0.1652 -0.3509 -1.1040
14073SOL     OW43892   0.544   1.905   9.595 -0.3610  0.2438  0.4774
14073SOL    HW143893   0.568   1.922   9.686 -0.1853  1.1768  0.2714
14073SOL    HW243894   0.449   1.890   9.598 -0.2746 -0.2463  0.8735
14074SOL     OW43895   0.916   2.203   0.079  0.0455 -0.1447  0.4727
14074SOL    HW143896   0.833   2.188   0.034 -0.1066 -0.9127  0.9932
14074SOL    HW243897   0.941   2.117   0.113  0.7753  0.1875  0.7910
14075SOL     OW43898   8.186   5.677   3.235 -0.1718 -0.1861  0.4612
14075SOL    HW143899   8.099   5.670   3.273  0.9846 -1.0899  3.2259
14075SOL    HW243900   8.221   5.759   3.270  1.0657 -1.2344  1.8243
14076SOL     OW43901   8.528   3.049   6.775 -0.0431 -0.4337  0.0470
14076SOL    HW143902   8.620   3.068   6.794  0.1477 -1.9987  0.8083
14076SOL    HW243903   8.491   3.134   6.750  1.6545  0.1753 -0.5295
14077SOL     OW43904   8.124   0.883   0.633  0.4242 -0.5321  0.4959
14077SOL    HW143905   8.096   0.841   0.551  0.1380 -0.7530  0.7060
14077SOL    HW243906   8.156   0.969   0.605 -1.2995  0.1045  0.3300
14078SOL     OW43907   0.177   4.874   6.995  0.1361  0.7066  0.4804
14078SOL    HW143908   0.256   4.875   7.048 -0.2037  0.1377  0.9985
14078SOL    HW243909   0.180   4.791   6.947  0.3934  1.1688 -0.3276
14079SOL     OW43910   5.029   4.685   7.639  0.0628  0.2124 -0.4084
14079SOL    HW143911   4.989   4.772   7.648 -0.3627 -0.1530  1.5568
14079SOL    HW243912   5.081   4.692   7.558  0.8314  2.6174  0.1911
14080SOL     OW43913   2.794   2.731   9.322  0.3053 -0.0639 -0.6134
14080SOL    HW143914   2.885   2.716   9.348  0.1121 -0.8929 -0.3744
14080SOL    HW243915   2.743   2.714   9.402 -0.0379  0.7604 -0.6456
14081SOL     OW43916   6.906   6.671   8.334 -0.6104  0.4150 -0.2300
14081SOL    HW143917   6.826   6.718   8.358 -1.5902 -0.9040 -0.7533
14081SOL    HW243918   6.879   6.579   8.328  1.0126 -0.0997 -0.1811
14082SOL     OW43919   5.472   2.135   7.466 -0.2380  0.7560 -0.1628
14082SOL    HW143920   5.566   2.152   7.456 -0.3443  0.4328 -2.2053
14082SOL    HW243921   5.430   2.204   7.415 -1.0161 -0.0576 -0.6520
14083SOL     OW43922   2.791   9.251   9.145 -0.0647 -0.0815  0.0173
14083SOL    HW143923   2.763   9.238   9.236  0.5472 -0.9096  0.0898
14083SOL    HW243924   2.867   9.194   9.134 -0.4880 -0.4464 -1.1905
14084SOL     OW43925   2.036   8.372   7.844  0.1422 -0.2867 -0.0136
14084SOL    HW143926   2.076   8.339   7.764  0.3714  0.4561 -0.2155
14084SOL    HW243927   1.949   8.332   7.846 -0.2847  0.5324 -1.2100
14085SOL     OW43928   2.097   6.526   2.837  0.7318  0.6076  0.5203
14085SOL    HW143929   2.160   6.474   2.887 -0.3616 -1.7458 -0.4132
14085SOL    HW243930   2.015   6.517   2.886 -0.2666 -1.4309 -1.3487
14086SOL     OW43931   3.992   9.221   0.776  0.6321 -0.4427  0.1408
14086SOL    HW143932   3.987   9.314   0.795 -2.8584 -0.6728  0.8863
14086SOL    HW243933   3.902   9.192   0.766  1.5453 -3.8078  0.1385
14087SOL     OW43934   6.200   5.368   9.471 -0.0146  0.6127 -0.3178
14087SOL    HW143935   6.280   5.319   9.494  0.9172  1.3688 -1.8314
14087SOL    HW243936   6.195   5.363   9.376 -2.2341 -0.0599 -0.2308
14088SOL     OW43937   9.482   4.897   7.011 -0.4380  0.0558  0.2885
14088SOL    HW143938   9.483   4.972   7.071  1.1158  0.7592 -0.5711
14088SOL    HW243939   9.488   4.821   7.068  0.6237  0.6986  1.0687
14089SOL     OW43940   8.671   7.741   1.117  0.1724  0.3297 -0.5347
14089SOL    HW143941   8.683   7.658   1.163  1.1064  1.7277  1.9171
14089SOL    HW243942   8.744   7.745   1.056  0.6342 -0.2723 -0.0372
14090SOL     OW43943   6.158   2.794   8.133 -0.5320 -0.3477  0.2870
14090SOL    HW143944   6.251   2.810   8.153 -0.6655  0.0130  0.6427
14090SOL    HW243945   6.157   2.706   8.094 -0.0235 -0.2947  0.1407
14091SOL     OW43946   9.264   4.405   2.491  0.1982  0.2445  0.6553
14091SOL    HW143947   9.347   4.444   2.465 -0.6180  1.0877 -0.8853
14091SOL    HW243948   9.228   4.370   2.409 -1.0696  0.1423  1.2363
14092SOL     OW43949   4.228   7.827   2.454 -0.5182 -0.0894  0.0627
14092SOL    HW143950   4.210   7.919   2.469 -1.8989 -0.5243  1.2790
14092SOL    HW243951   4.142   7.787   2.442  0.0647 -1.1998 -0.5747
14093SOL     OW43952   2.517   5.060   1.357  0.7295  0.7510  0.1002
14093SOL    HW143953   2.492   5.086   1.446 -1.3075 -0.6656  0.0035
14093SOL    HW243954   2.553   5.140   1.318  1.5064  1.4422  2.1281
14094SOL     OW43955   1.277   6.737   2.505  0.2000  0.3480 -0.0840
14094SOL    HW143956   1.343   6.685   2.551  1.3836  0.7674 -1.2401
14094SOL    HW243957   1.198   6.683   2.506  0.8855 -0.6621  0.3449
14095SOL     OW43958   4.366   5.316   9.188 -0.0402 -0.3874 -0.2396
14095SOL    HW143959   4.450   5.362   9.195 -0.7694  0.7866  1.2666
14095SOL    HW243960   4.311   5.376   9.138 -0.4634 -0.4155  0.1919
14096SOL     OW43961   3.153   9.375   6.110 -0.3570 -0.0439  0.3229
14096SOL    HW143962   3.058   9.373   6.107 -0.3140 -0.6925 -1.1438
14096SOL    HW243963   3.176   9.321   6.186 -1.1543  0.1094  0.6762
14097SOL     OW43964   2.976   9.491   0.774  0.5756  0.0461 -0.3107
14097SOL    HW143965   3.004   9.571   0.731 -1.9524  0.5267 -1.2321
14097SOL    HW243966   2.940   9.520   0.858 -0.9204  0.0205 -0.9061
14098SOL     OW43967   6.279   7.784   0.634 -0.1728  0.0725  0.1392
14098SOL    HW143968   6.331   7.862   0.614  1.0028 -0.3101  1.5450
14098SOL    HW243969   6.243   7.757   0.549 -1.0784  2.4228 -0.2971
14099SOL     OW43970   5.725   7.792   7.022  0.0927 -0.1952 -0.0331
14099SOL    HW143971   5.637   7.797   7.059  0.4160  0.1875  0.7240
14099SOL    HW243972   5.779   7.761   7.095  0.7365  0.4855 -0.2078
14100SOL     OW43973   3.966   4.027   8.422 -0.5676 -0.3999 -0.5548
14100SOL    HW143974   3.981   3.932   8.422  0.3858 -0.2696 -1.4141
14100SOL    HW243975   3.892   4.040   8.363 -1.2522 -0.6680  0.2215
14101SOL     OW43976   0.025   5.692   8.000 -0.3807 -0.2445  0.4116
14101SOL    HW143977   0.015   5.600   7.978  1.3949 -0.3562 -0.0648
14101SOL    HW243978  -0.037   5.707   8.071 -2.0566 -1.3139 -0.7709
14102SOL     OW43979   6.250   3.347   9.543 -0.3498  0.3379  0.0435
14102SOL    HW143980   6.162   3.380   9.561 -0.9082 -0.8413 -0.4340
14102SOL    HW243981   6.238   3.253   9.529  1.2591 -0.1970  1.8929
14103SOL     OW43982   1.099   1.049   7.831  0.2321 -0.0776  0.5332
14103SOL    HW143983   1.044   0.975   7.856  0.3552 -0.7115 -0.9896
14103SOL    HW243984   1.147   1.019   7.754  0.9128  1.3026  0.3863
14104SOL     OW43985   3.639   6.824   1.155 -0.2055 -0.2074  0.1343
14104SOL    HW143986   3.656   6.889   1.223 -1.7043  0.5518 -0.1941
14104SOL    HW243987   3.692   6.748   1.182 -0.5402  0.1584  2.0035
14105SOL     OW43988   6.384   0.558   3.635  0.4641 -0.0477 -0.1513
14105SOL    HW143989   6.289   0.569   3.639  0.5222  0.3525  0.2765
14105SOL    HW243990   6.399   0.505   3.557 -0.1621 -0.6638  0.1333
14106SOL     OW43991   9.203   7.282   5.567 -0.0141  0.1415  0.1321
14106SOL    HW143992   9.280   7.326   5.603  0.0686 -0.2550  0.4427
14106SOL    HW243993   9.129   7.322   5.614 -0.0440  0.8549 -0.4954
14107SOL     OW43994   1.423   5.239   5.789 -0.0834  0.9705  0.8632
14107SOL    HW143995   1.409   5.148   5.815 -0.9664  0.5521 -0.9574
14107SOL    HW243996   1.363   5.289   5.844 -0.8327  0.2791  0.6938
14108SOL     OW43997   1.185   6.174   3.395 -0.7449 -0.3011 -0.3148
14108SOL    HW143998   1.126   6.200   3.324 -0.3092  1.1831 -0.1549
14108SOL    HW243999   1.131   6.118   3.451 -1.1979 -1.2365 -1.6096
14109SOL     OW44000   6.062   6.185   3.720  0.2303  0.0424 -0.2297
14109SOL    HW144001   6.072   6.272   3.758  0.1277  0.3611 -0.9052
14109SOL    HW244002   5.968   6.174   3.710  0.2748  0.2155 -0.9265
14110SOL     OW44003   7.569   9.456   5.406  0.7382 -0.6194  0.0120
14110SOL    HW144004   7.623   9.455   5.327  0.2416  0.1674 -0.3466
14110SOL    HW244005   7.632   9.443   5.477  1.1024 -2.0584 -0.5347
14111SOL     OW44006   5.366   5.228   5.273 -0.2037  0.2555  0.1842
14111SOL    HW144007   5.372   5.167   5.346 -0.6432 -0.1543 -0.1161
14111SOL    HW244008   5.278   5.216   5.239  0.1607  0.0876 -0.7263
14112SOL     OW44009   2.600   1.697   8.374 -0.3035 -0.5931  0.2087
14112SOL    HW144010   2.599   1.601   8.368  0.9737 -0.6596  0.6303
14112SOL    HW244011   2.662   1.725   8.306 -3.2800  0.2438 -2.4280
14113SOL     OW44012   3.508   6.603   3.294 -0.1394  0.3523 -0.2473
14113SOL    HW144013   3.535   6.620   3.204  0.6234  0.3144 -0.0259
14113SOL    HW244014   3.556   6.667   3.346  1.6757 -1.4815  0.4506
14114SOL     OW44015   8.067   5.121   0.547  0.0611  0.0672 -0.0188
14114SOL    HW144016   8.159   5.130   0.569  0.2103  0.1792 -0.6831
14114SOL    HW244017   8.063   5.131   0.452 -0.9890  2.8384  0.2471
14115SOL     OW44018   5.162   5.780   0.077 -0.1473 -0.3426 -0.2235
14115SOL    HW144019   5.247   5.792   0.121 -0.7877  0.0503  0.9342
14115SOL    HW244020   5.181   5.719   0.006  1.6266  1.5752 -1.5199
14116SOL     OW44021   0.198   6.437   4.918  0.2145  0.1995 -0.0229
14116SOL    HW144022   0.266   6.502   4.936 -1.4344  1.8427  0.7078
14116SOL    HW244023   0.222   6.400   4.833  2.1574  0.4652  0.3653
14117SOL     OW44024   9.298   0.492   3.098  0.5834  0.5995  0.1895
14117SOL    HW144025   9.255   0.577   3.109 -2.4983 -0.9539  1.2717
14117SOL    HW244026   9.226   0.428   3.103  2.9480 -2.1850  1.1307
14118SOL     OW44027   3.774   7.830   4.008 -0.0173 -0.1984  0.1137
14118SOL    HW144028   3.829   7.830   4.086 -0.2064  1.8115  0.2790
14118SOL    HW244029   3.708   7.763   4.026  0.2834 -0.1653  1.4353
14119SOL     OW44030   4.483   7.887   7.169 -0.0011 -0.1872 -0.5151
14119SOL    HW144031   4.532   7.894   7.250 -0.6794 -1.8171  0.0744
14119SOL    HW244032   4.396   7.859   7.195 -0.5104  0.1682 -1.7363
14120SOL     OW44033   7.976   5.793   4.248  0.1196  0.0186  0.3449
14120SOL    HW144034   7.998   5.791   4.341 -0.8778 -0.4658  0.5863
14120SOL    HW244035   7.995   5.882   4.220  0.6495  0.0991  0.9569
14121SOL     OW44036   6.241   5.887   5.799 -0.0680 -0.4676  0.0285
14121SOL    HW144037   6.300   5.902   5.873  0.2830  2.3627 -0.7192
14121SOL    HW244038   6.155   5.875   5.839  0.1893  0.5485  0.9247
14122SOL     OW44039   3.142   5.705   4.056  0.1018  0.4193 -0.2923
14122SOL    HW144040   3.066   5.719   4.112  0.4576 -0.1031  0.3224
14122SOL    HW244041   3.217   5.733   4.109  0.4233  0.0968 -0.5730
14123SOL     OW44042   7.533   1.984   1.465 -0.4564  0.0009 -0.7088
14123SOL    HW144043   7.482   2.064   1.453 -0.1091  0.1431 -1.2322
14123SOL    HW244044   7.561   1.987   1.557  0.5010  1.0319 -1.0251
14124SOL     OW44045   7.247   2.401   3.345  0.5241 -0.6717 -0.4487
14124SOL    HW144046   7.319   2.432   3.399  1.0359 -1.4428 -0.6566
14124SOL    HW244047   7.274   2.420   3.255  0.3413 -0.7117 -0.5141
14125SOL     OW44048   2.661   4.423   1.287  0.0542 -0.0189 -0.2347
14125SOL    HW144049   2.665   4.500   1.230  2.6210  0.4953  0.5075
14125SOL    HW244050   2.737   4.371   1.262 -0.1492 -0.9926  1.0683
14126SOL     OW44051   7.712   3.032   6.877  0.0768  0.1378 -0.1465
14126SOL    HW144052   7.760   3.090   6.817  1.6025  1.4088  2.1356
14126SOL    HW244053   7.772   2.959   6.892  0.3508  0.5812  0.9574
14127SOL     OW44054   7.332   0.504   3.226  0.2346 -0.2688  0.2605
14127SOL    HW144055   7.389   0.456   3.166 -0.0166 -2.5783  1.7471
14127SOL    HW244056   7.391   0.564   3.271  1.2344 -1.4491  0.6035
14128SOL     OW44057   6.510   3.028   5.668  0.3295  0.4638  0.4082
14128SOL    HW144058   6.459   2.981   5.734 -0.0060 -1.1099 -0.9100
14128SOL    HW244059   6.444   3.064   5.609  0.5299 -3.2826 -2.4846
14129SOL     OW44060   6.529   0.650   2.389 -0.1896 -0.0714 -0.0616
14129SOL    HW144061   6.598   0.714   2.370  1.3339 -1.3366  0.9359
14129SOL    HW244062   6.560   0.569   2.348 -2.1490 -0.1993 -1.4182
14130SOL     OW44063   5.644   0.426   2.127 -0.0380 -0.0849  0.5364
14130SOL    HW144064   5.713   0.465   2.074 -0.7250 -2.1346 -2.1242
14130SOL    HW244065   5.682   0.345   2.160 -0.8829 -0.8959 -0.4007
14131SOL     OW44066   0.767   4.189   1.716  0.0310 -0.0000 -0.2894
14131SOL    HW144067   0.698   4.126   1.734 -0.9432  1.0912 -0.1069
14131SOL    HW244068   0.738   4.235   1.637 -0.4459  1.7891  0.8628
14132SOL     OW44069   1.512   9.558   2.826  0.5105 -0.4286 -0.9230
14132SOL    HW144070   1.472   9.532   2.743 -0.4787  0.2679 -0.6780
14132SOL    HW244071   1.478   9.495   2.890  0.3268 -0.2436 -0.8367
14133SOL     OW44072   1.193   7.655   8.095  0.3200 -0.0370 -0.1932
14133SOL    HW144073   1.220   7.572   8.056  3.1628  0.9367 -0.5825
14133SOL    HW244074   1.155   7.631   8.179 -0.7388 -1.8227 -1.1350
14134SOL     OW44075   6.944   0.328   2.353  0.2392 -0.6639  0.7103
14134SOL    HW144076   6.976   0.367   2.434 -0.8659 -1.9949  1.8521
14134SOL    HW244077   7.009   0.261   2.331 -0.3442 -1.5397  1.5463
14135SOL     OW44078   8.340   8.918   9.163 -0.0480  0.0912 -0.1036
14135SOL    HW144079   8.427   8.956   9.149 -0.8487  1.6636 -1.1149
14135SOL    HW244080   8.290   8.989   9.204 -0.8361 -0.8296  0.5532
14136SOL     OW44081   0.036   4.072   0.890 -0.1314  0.0454  0.6587
14136SOL    HW144082  -0.039   4.035   0.845  0.1148  1.0693 -0.6932
14136SOL    HW244083   0.109   4.013   0.868 -0.0301  0.4891 -0.2777
14137SOL     OW44084   7.069   4.114   4.752 -0.3791 -0.6517 -0.6619
14137SOL    HW144085   7.152   4.097   4.708 -0.7960  1.1443 -2.2944
14137SOL    HW244086   7.011   4.043   4.723  0.1949 -1.1403 -0.6202
14138SOL     OW44087   3.174   5.199   7.892  0.7364  0.2263  0.2909
14138SOL    HW144088   3.113   5.250   7.839  0.9935  1.0996  0.8184
14138SOL    HW244089   3.125   5.119   7.914  0.5715 -0.0772 -1.1013
14139SOL     OW44090   4.008   9.070   3.501 -0.4837 -0.3921  0.1885
14139SOL    HW144091   3.997   9.085   3.595  1.0144  0.6112  0.2441
14139SOL    HW244092   3.941   9.123   3.460  0.8852  1.8078  0.6280
14140SOL     OW44093   1.940   2.619   1.712 -0.0515 -0.2837  0.0827
14140SOL    HW144094   1.934   2.618   1.808 -1.9733 -1.4762 -0.0067
14140SOL    HW244095   2.024   2.662   1.695  1.0749 -1.3617  2.3208
14141SOL     OW44096   3.244   8.980   2.679  0.4174 -0.8815 -0.1361
14141SOL    HW144097   3.250   9.075   2.668 -0.5117 -0.9245 -1.2926
14141SOL    HW244098   3.322   8.946   2.633  0.8894 -0.6837  0.5001
14142SOL     OW44099   9.482   5.729   5.112 -0.2565  0.1124 -0.6997
14142SOL    HW144100   9.394   5.764   5.099 -0.5105  0.3514  1.3299
14142SOL    HW244101   9.476   5.681   5.195  1.5156  0.1165 -0.5369
14143SOL     OW44102   7.033   7.295   8.853  0.5468  0.5549 -0.0817
14143SOL    HW144103   7.021   7.278   8.947  1.2659  1.9837  0.2898
14143SOL    HW244104   7.093   7.226   8.824 -1.9394 -1.7382 -0.2134
14144SOL     OW44105   1.514   8.055   8.272 -0.5290 -0.1222 -0.1583
14144SOL    HW144106   1.608   8.053   8.291 -0.0670 -0.4272 -2.2423
14144SOL    HW244107   1.486   7.964   8.282 -0.5689 -0.0703  0.2337
14145SOL     OW44108   5.241   2.930   0.439  0.0387  0.2200 -0.2371
14145SOL    HW144109   5.274   2.848   0.476  1.0636  0.4601 -0.5912
14145SOL    HW244110   5.229   2.987   0.515 -0.4882 -0.1789 -0.0111
14146SOL     OW44111   8.120   9.247   5.843 -0.5668  0.1976  0.2708
14146SOL    HW144112   8.132   9.262   5.749  0.6234 -0.7288  0.2488
14146SOL    HW244113   8.120   9.334   5.882  1.8154  0.5082 -0.2872
14147SOL     OW44114   5.346   1.650   6.748 -0.7319 -0.1111 -0.2691
14147SOL    HW144115   5.409   1.662   6.677 -0.1412 -1.6149 -0.0362
14147SOL    HW244116   5.396   1.667   6.828 -0.7008 -0.9518 -0.1005
14148SOL     OW44117   3.423   1.179   6.579  0.2118 -0.3754 -0.4006
14148SOL    HW144118   3.412   1.086   6.599 -0.9172 -0.0812  0.4410
14148SOL    HW244119   3.497   1.182   6.519  1.6334 -1.6270  1.1970
14149SOL     OW44120   4.864   0.811   9.472  0.4737  0.1726  0.2746
14149SOL    HW144121   4.946   0.846   9.438 -0.4640  1.5536 -0.6705
14149SOL    HW244122   4.856   0.724   9.433  0.5335  0.8343 -1.2490
14150SOL     OW44123   0.964   8.343   1.930 -0.1685 -0.5137 -0.2098
14150SOL    HW144124   0.927   8.402   1.865 -1.0580 -0.5511  0.2470
14150SOL    HW244125   1.028   8.396   1.978  1.4476 -0.8225 -1.9114
14151SOL     OW44126   7.336   3.236   9.117  0.4382 -0.0724  0.4192
14151SOL    HW144127   7.253   3.283   9.115  0.6727  0.4343  1.6827
14151SOL    HW244128   7.363   3.232   9.025 -1.3078 -0.8721 -0.1064
14152SOL     OW44129   8.502   8.605   3.996  0.2237  0.1402 -0.1925
14152SOL    HW144130   8.545   8.520   4.001  2.0957  1.0997  1.0929
14152SOL    HW244131   8.427   8.597   4.055  0.2377 -0.7047 -0.2778
14153SOL     OW44132   1.324   8.052   7.140  0.4075  0.0838  0.6581
14153SOL    HW144133   1.259   8.056   7.210 -0.4229  0.7973 -0.1287
14153SOL    HW244134   1.339   7.958   7.128 -0.4667 -0.0995  0.8801
14154SOL     OW44135   8.403   2.848   4.087 -0.0308 -0.1967 -0.5383
14154SOL    HW144136   8.468   2.805   4.032  0.6584  1.0203 -0.7183
14154SOL    HW244137   8.405   2.800   4.169  1.1286 -0.1600 -0.5325
14155SOL     OW44138   2.298   5.953   7.085  0.1720  0.1545  0.3118
14155SOL    HW144139   2.339   5.873   7.052 -0.7007 -0.0880 -0.2043
14155SOL    HW244140   2.216   5.960   7.036  0.5259  1.7044 -0.1005
14156SOL     OW44141   9.605   1.677   2.927  0.5518  0.1319 -0.2071
14156SOL    HW144142   9.670   1.675   2.857  1.0537 -0.7374  0.2751
14156SOL    HW244143   9.588   1.585   2.948 -0.3959  0.3588  0.0838
14157SOL     OW44144   4.019   0.718   5.795  0.9411  0.1994 -0.6147
14157SOL    HW144145   4.021   0.630   5.831 -0.6534  0.8598  1.2875
14157SOL    HW244146   4.098   0.760   5.828  1.6510 -0.4412 -1.4437
14158SOL     OW44147   5.029   2.143   9.051  0.6436  0.0298 -0.4544
14158SOL    HW144148   4.967   2.080   9.013 -0.4536  0.2019  0.9421
14158SOL    HW244149   5.087   2.089   9.105 -0.4594  0.1804  0.9516
14159SOL     OW44150   8.831   0.380   2.538  0.3263 -0.4792  0.6888
14159SOL    HW144151   8.742   0.363   2.568 -0.0379 -0.7384 -0.4753
14159SOL    HW244152   8.844   0.473   2.553 -0.4619 -0.2618  0.1080
14160SOL     OW44153   3.959   0.705   8.143  0.5228 -0.5579 -1.0849
14160SOL    HW144154   4.014   0.632   8.174 -0.4359 -0.9198 -0.1797
14160SOL    HW244155   3.910   0.669   8.070 -0.5949 -1.1224 -0.0931
14161SOL     OW44156   5.504   2.447   2.859  0.4080 -0.5863 -0.4208
14161SOL    HW144157   5.528   2.358   2.884  0.3325 -0.7103 -0.7792
14161SOL    HW244158   5.476   2.440   2.768 -3.6885 -0.9795  0.6606
14162SOL     OW44159   1.183   3.183   9.339 -0.2220  0.3306 -0.5005
14162SOL    HW144160   1.176   3.215   9.429  0.2322  2.2474 -1.1087
14162SOL    HW244161   1.275   3.159   9.329 -0.2709  0.1240 -0.4542
14163SOL     OW44162   1.663   5.742   4.107  0.0388 -0.5584 -0.1561
14163SOL    HW144163   1.754   5.771   4.121 -0.0954  0.5152 -1.3357
14163SOL    HW244164   1.645   5.765   4.016 -0.8975 -2.2547 -0.4307
14164SOL     OW44165   1.339   2.730   0.932  0.0760 -0.1627 -0.1245
14164SOL    HW144166   1.387   2.787   0.992 -1.3324  1.1737 -0.2039
14164SOL    HW244167   1.272   2.787   0.893 -2.4438 -2.1787  0.9478
14165SOL     OW44168   2.261   0.925   5.593  0.4845 -0.2535 -0.5581
14165SOL    HW144169   2.196   0.864   5.628 -2.1229  1.6065 -1.7910
14165SOL    HW244170   2.268   0.993   5.660  1.2583 -0.4832 -0.3966
14166SOL     OW44171   6.428   8.025   7.249 -0.0435  0.3210  0.0774
14166SOL    HW144172   6.460   8.067   7.169 -0.0696 -0.2781 -0.2570
14166SOL    HW244173   6.363   7.961   7.218 -1.0406  1.0194  0.6971
14167SOL     OW44174   0.578   8.016   6.340 -0.0880  0.3902 -0.1929
14167SOL    HW144175   0.657   8.055   6.303  0.6491 -0.0387  0.8961
14167SOL    HW244176   0.513   8.023   6.269  0.5303  1.9129 -0.6601
14168SOL     OW44177   6.033   7.670   3.174  0.5564  0.0740 -0.5813
14168SOL    HW144178   6.071   7.720   3.246 -0.9807  0.3837  0.0517
14168SOL    HW244179   6.015   7.735   3.106 -0.4859  0.2425 -0.1631
14169SOL     OW44180   6.149   9.515   7.481  0.2389 -0.4362 -0.1513
14169SOL    HW144181   6.138   9.480   7.569  1.6742  1.3607  0.8047
14169SOL    HW244182   6.231   9.477   7.450  0.6651  0.3228  0.0220
14170SOL     OW44183   6.692   2.393   4.162  0.1603  0.1539  0.1924
14170SOL    HW144184   6.648   2.353   4.237 -0.5485 -0.4973 -0.5691
14170SOL    HW244185   6.668   2.486   4.168 -1.2890 -0.1752 -0.1794
14171SOL     OW44186   6.301   1.555   4.799  0.3134 -0.2245 -0.3939
14171SOL    HW144187   6.379   1.501   4.786  1.9438  1.7980  0.3966
14171SOL    HW244188   6.242   1.499   4.850  2.1164 -1.1321  0.8291
14172SOL     OW44189   3.486   8.937   2.524 -0.4271  0.0950  0.3385
14172SOL    HW144190   3.554   8.898   2.468 -1.4731  0.5349 -1.3169
14172SOL    HW244191   3.535   8.979   2.595  0.9837 -0.2556 -0.3719
14173SOL     OW44192   0.345   0.289   1.456  0.5352 -0.1250  0.5544
14173SOL    HW144193   0.389   0.234   1.520  0.0856 -0.3140  0.7070
14173SOL    HW244194   0.390   0.271   1.374  1.7751  0.8613  0.9835
14174SOL     OW44195   6.443   3.986   4.976 -0.5666  0.4451  0.4196
14174SOL    HW144196   6.448   4.081   4.983 -0.6972  0.4421  0.5563
14174SOL    HW244197   6.455   3.968   4.883  1.8294  0.4514  0.6705
14175SOL     OW44198   2.683   1.657   6.279  0.3242  0.6189  0.0324
14175SOL    HW144199   2.695   1.739   6.326  1.3973  0.0181  0.8448
14175SOL    HW244200   2.596   1.627   6.306  0.4085  0.9113  0.6399
14176SOL     OW44201   2.163   3.609   1.311  0.0253  0.1309  0.0268
14176SOL    HW144202   2.115   3.530   1.286 -1.8573  0.6823  1.5648
14176SOL    HW244203   2.094   3.673   1.331  1.4892  2.3303 -1.5721
14177SOL     OW44204   8.666   6.636   3.374 -0.5608  0.0200 -0.2094
14177SOL    HW144205   8.753   6.659   3.407 -0.7148 -0.4999  0.6087
14177SOL    HW244206   8.616   6.616   3.453 -0.7294 -2.0407 -0.7748
14178SOL     OW44207   7.292   8.812   2.124  0.0332  0.1282 -0.3758
14178SOL    HW144208   7.273   8.726   2.163  0.5071 -0.4044 -1.2620
14178SOL    HW244209   7.368   8.845   2.172 -0.3611  0.2046  0.1939
14179SOL     OW44210   1.321   7.674   5.618 -0.7689  0.4183 -0.7378
14179SOL    HW144211   1.258   7.731   5.661 -0.0641  2.2949 -2.0774
14179SOL    HW244212   1.267   7.621   5.559 -1.5650 -1.2135  1.3173
14180SOL     OW44213   4.318   4.630   4.286 -0.3115  0.0970  0.0665
14180SOL    HW144214   4.334   4.633   4.192 -4.4923 -1.7685 -0.9061
14180SOL    HW244215   4.362   4.550   4.316  0.9470  0.6440 -0.2818
14181SOL     OW44216   6.822   1.633   4.850  0.6786  0.0587 -0.0097
14181SOL    HW144217   6.805   1.654   4.758  1.4912 -1.9917 -0.7096
14181SOL    HW244218   6.777   1.701   4.900  0.1936  1.2126 -1.9205
14182SOL     OW44219   7.541   8.579   9.266  0.4358  0.2002 -0.1715
14182SOL    HW144220   7.505   8.631   9.193 -0.1306  0.9983  0.6522
14182SOL    HW244221   7.464   8.549   9.314  0.7811 -0.9401 -0.2977
14183SOL     OW44222   5.530   3.230   1.560 -0.1793  0.9256  0.4344
14183SOL    HW144223   5.476   3.212   1.636 -1.6267 -0.5413 -0.8874
14183SOL    HW244224   5.469   3.262   1.494  0.6080 -0.3067 -0.9442
14184SOL     OW44225   6.813   4.227   4.103  0.2385 -0.0638  0.2893
14184SOL    HW144226   6.868   4.306   4.099  2.1697 -1.3757 -1.4898
14184SOL    HW244227   6.830   4.190   4.189  1.5143  0.0217  0.0953
14185SOL     OW44228   2.511   6.329   4.156 -0.0885  0.2149 -0.0247
14185SOL    HW144229   2.533   6.243   4.192 -1.1687 -0.8388 -1.7086
14185SOL    HW244230   2.445   6.364   4.215  1.5960  0.7145  1.6481
14186SOL     OW44231   5.614   0.530   5.258 -0.0929 -0.4142 -0.5513
14186SOL    HW144232   5.648   0.483   5.334 -0.0318 -0.4635 -0.6086
14186SOL    HW244233   5.690   0.541   5.201  0.2707  1.2557  0.2077
14187SOL     OW44234   4.327   5.919   8.694 -0.2177  0.3617  0.3210
14187SOL    HW144235   4.336   5.881   8.782  0.3292  0.0933  0.1559
14187SOL    HW244236   4.280   5.852   8.644 -0.5301  0.5152  0.4125
14188SOL     OW44237   9.492   2.873   9.305 -0.1400 -0.0672  0.0924
14188SOL    HW144238   9.543   2.888   9.385  0.7818  0.9388 -0.6683
14188SOL    HW244239   9.457   2.784   9.316  2.9509 -1.3970 -0.0065
14189SOL     OW44240   0.428   7.152   7.884 -0.8452 -0.4355 -0.2040
14189SOL    HW144241   0.421   7.106   7.968  0.5164 -1.4922 -0.6249
14189SOL    HW244242   0.487   7.097   7.832  1.3954  2.0735 -0.5322
14190SOL     OW44243   3.400   7.684   2.372  0.1372 -0.2679 -0.4331
14190SOL    HW144244   3.328   7.635   2.412  0.1090  0.3517  0.2989
14190SOL    HW244245   3.359   7.761   2.334  0.3243 -0.2681 -0.6387
14191SOL     OW44246   9.110   3.488   2.298 -0.6097 -0.0770  0.6391
14191SOL    HW144247   9.024   3.528   2.307 -0.2867  0.0906  4.7923
14191SOL    HW244248   9.171   3.557   2.322  0.7815 -0.2915 -1.9042
14192SOL     OW44249   1.976   3.382   9.271  0.0781  0.1873 -0.5804
14192SOL    HW144250   2.044   3.444   9.298 -0.3777  0.7487 -0.7124
14192SOL    HW244251   2.011   3.296   9.296  1.5284  0.2973 -2.0505
14193SOL     OW44252   4.155   6.755   6.289 -0.2704 -0.2450 -0.0524
14193SOL    HW144253   4.132   6.730   6.200  0.2347 -1.5594  0.1594
14193SOL    HW244254   4.250   6.759   6.290 -0.3163  2.9410 -0.3475
14194SOL     OW44255   1.330   7.206   6.023 -0.2732 -0.3698 -0.1115
14194SOL    HW144256   1.421   7.220   5.994 -0.5020 -0.5309 -0.9236
14194SOL    HW244257   1.288   7.163   5.949 -1.1648  0.2186  0.0468
14195SOL     OW44258   8.753   9.561   0.782  0.0077 -0.3955 -0.2793
14195SOL    HW144259   8.844   9.543   0.804  0.8793  0.6384 -2.7063
14195SOL    HW244260   8.741   9.653   0.807 -0.8627 -0.9034  1.3329
14196SOL     OW44261   7.757   1.574   1.721 -0.5337  0.4400 -0.6145
14196SOL    HW144262   7.839   1.554   1.675 -0.7812  1.4604 -1.5519
14196SOL    HW244263   7.689   1.533   1.667 -0.6605 -0.3085  0.0988
14197SOL     OW44264   1.268   9.153   8.146  0.2332 -0.2845 -0.3130
14197SOL    HW144265   1.185   9.134   8.191  0.3995 -0.9028 -0.2598
14197SOL    HW244266   1.335   9.111   8.199  0.5238 -0.2835 -0.6721
14198SOL     OW44267   0.753   4.639   3.620 -0.0370  0.8423 -0.2255
14198SOL    HW144268   0.670   4.664   3.579  0.7564  2.0638 -1.1541
14198SOL    HW244269   0.796   4.584   3.555 -0.0169  0.3641  0.1812
14199SOL     OW44270   7.515   5.061   2.705 -0.1383 -0.1779  0.1950
14199SOL    HW144271   7.495   5.079   2.797  0.6158  0.4777  0.2332
14199SOL    HW244272   7.524   5.148   2.665  0.3180 -0.4605 -0.3231
14200SOL     OW44273   6.156   3.218   4.991  0.0891 -0.2001 -0.1205
14200SOL    HW144274   6.110   3.159   4.931  0.2615 -1.3767  0.8801
14200SOL    HW244275   6.218   3.265   4.935 -0.3652 -0.6345 -1.0076
14201SOL     OW44276   6.007   3.790   4.814  0.6004  0.1382  0.1141
14201SOL    HW144277   5.928   3.748   4.847 -0.3588  0.0914 -2.0510
14201SOL    HW244278   6.030   3.855   4.880 -0.6530 -0.5464  1.2585
14202SOL     OW44279   0.217   6.517   8.778 -0.3314 -0.1972 -0.2108
14202SOL    HW144280   0.282   6.476   8.721 -0.0000 -0.3384  0.2618
14202SOL    HW244281   0.237   6.610   8.774  1.3057 -0.3984  1.5992
14203SOL     OW44282   9.435   4.517   8.450 -0.1942  0.5923  0.0075
14203SOL    HW144283   9.431   4.566   8.533 -1.5021  1.4830 -0.5505
14203SOL    HW244284   9.344   4.504   8.426  0.1718  0.0974 -1.1594
14204SOL     OW44285   4.143   9.119   8.098 -0.0939 -0.1619  0.5756
14204SOL    HW144286   4.063   9.072   8.122 -0.2399  0.0715  0.5559
14204SOL    HW244287   4.112   9.194   8.047  0.1019  0.1694  0.9363
14205SOL     OW44288   8.000   4.586   7.368 -0.1301 -0.0686 -0.2356
14205SOL    HW144289   7.973   4.678   7.369  0.9609  0.3162  2.5308
14205SOL    HW244290   7.927   4.539   7.409 -0.5525 -0.4183 -1.3599
14206SOL     OW44291   7.174   1.711   5.076  0.1768  0.1082  0.2670
14206SOL    HW144292   7.113   1.775   5.113 -0.2241 -0.7665  1.1748
14206SOL    HW244293   7.184   1.645   5.144  1.7004 -0.0747 -0.1050
14207SOL     OW44294   8.542   4.478   8.560 -0.0653 -0.3176  0.3530
14207SOL    HW144295   8.460   4.443   8.527  0.6235  0.9223 -3.0563
14207SOL    HW244296   8.520   4.517   8.645 -2.1298 -3.1363  1.2525
14208SOL     OW44297   0.329   8.484   7.068 -0.2202  0.2030 -0.1711
14208SOL    HW144298   0.316   8.393   7.040  1.0290 -0.4626  1.2936
14208SOL    HW244299   0.401   8.516   7.013  0.4518 -0.2500  0.4236
14209SOL     OW44300   9.189   8.663   7.582  0.1754  0.7410  0.0097
14209SOL    HW144301   9.197   8.719   7.504 -0.6296  1.8954  0.7205
14209SOL    HW244302   9.114   8.700   7.630  0.5153 -0.0911  1.2134
14210SOL     OW44303   7.784   6.759   9.369 -0.4994  0.1393  0.0191
14210SOL    HW144304   7.838   6.835   9.349  0.7136 -0.9971 -1.2317
14210SOL    HW244305   7.695   6.788   9.353 -0.2711  1.9065  1.6262
14211SOL     OW44306   4.826   8.421   6.149 -0.7248  0.4171 -0.5066
14211SOL    HW144307   4.870   8.506   6.141  0.2113  0.2410  1.8858
14211SOL    HW244308   4.737   8.443   6.176 -0.2677  0.6903  0.9030
14212SOL     OW44309   3.429   8.575   1.869  0.2280  0.1544 -0.2767
14212SOL    HW144310   3.524   8.568   1.884  0.2418  1.9289  0.6712
14212SOL    HW244311   3.411   8.669   1.874 -1.7756 -0.2417  0.7703
14213SOL     OW44312   7.487   5.271   4.671 -0.0557  0.6972 -0.1988
14213SOL    HW144313   7.462   5.363   4.660 -2.0405  0.0994 -1.3111
14213SOL    HW244314   7.567   5.261   4.619 -0.3671  1.5935 -0.8820
14214SOL     OW44315   6.401   8.426   2.682 -0.2104  0.1637 -0.0099
14214SOL    HW144316   6.392   8.438   2.776 -1.4666 -0.2185 -0.0632
14214SOL    HW244317   6.312   8.435   2.648  0.0870 -0.6077 -1.0481
14215SOL     OW44318   6.622   7.092   8.806  0.3128  0.2167  0.1060
14215SOL    HW144319   6.605   7.048   8.889  1.7311  1.6587  1.2209
14215SOL    HW244320   6.589   7.180   8.818 -2.0448 -0.2851 -1.9283
14216SOL     OW44321   6.023   8.303   2.784 -0.0470  0.3404  0.5377
14216SOL    HW144322   6.083   8.339   2.719 -0.0088  1.9768  1.4444
14216SOL    HW244323   6.077   8.248   2.840  0.5752  1.5317  1.1403
14217SOL     OW44324   9.612   6.521   1.857 -0.2310  0.0975  0.5190
14217SOL    HW144325   9.627   6.430   1.881  1.0298 -0.7127 -2.7229
14217SOL    HW244326   9.685   6.569   1.896 -0.2380 -0.4704  1.2464
14218SOL     OW44327   3.994   7.583   5.820  0.7691  0.2251  0.0233
14218SOL    HW144328   4.022   7.663   5.776  1.4863  0.0740  0.1859
14218SOL    HW244329   4.063   7.567   5.885  0.7008 -0.5949 -0.1034
14219SOL     OW44330   5.547   4.527   3.641  0.1181 -0.1179 -0.5359
14219SOL    HW144331   5.480   4.595   3.632  1.5474  1.3184 -0.9112
14219SOL    HW244332   5.560   4.519   3.735 -1.3625 -1.2516 -0.3995
14220SOL     OW44333   6.161   7.403   0.506  0.6948 -0.0655 -0.3398
14220SOL    HW144334   6.217   7.347   0.453  0.4440 -2.9382  2.1652
14220SOL    HW244335   6.072   7.369   0.492  0.6286 -0.8982  1.8243
14221SOL     OW44336   5.698   3.392   5.577 -0.6609 -0.2272 -0.3933
14221SOL    HW144337   5.673   3.429   5.493  0.7468 -2.4071 -1.8933
14221SOL    HW244338   5.672   3.300   5.571  0.0644 -0.5897  1.3010
14222SOL     OW44339   1.549   5.470   7.565  0.5535  0.6919 -0.3038
14222SOL    HW144340   1.496   5.402   7.606 -0.8161  1.4146 -0.8232
14222SOL    HW244341   1.551   5.541   7.629 -0.6637  1.3823 -0.9947
14223SOL     OW44342   2.339   2.813   7.103 -0.2172 -0.0154 -0.1099
14223SOL    HW144343   2.398   2.750   7.063 -0.2260 -1.1164  1.4918
14223SOL    HW244344   2.255   2.766   7.110 -0.1431  0.0209  1.3700
14224SOL     OW44345   1.650   8.167   3.508  0.3115 -0.2273 -0.1651
14224SOL    HW144346   1.653   8.133   3.597 -1.4168 -2.2732 -0.7972
14224SOL    HW244347   1.724   8.125   3.463 -0.0734 -0.8863 -0.1976
14225SOL     OW44348   1.771   8.693   0.291 -0.2223 -0.1051  0.3832
14225SOL    HW144349   1.865   8.676   0.288 -0.1667  0.2988 -0.5500
14225SOL    HW244350   1.742   8.685   0.200 -1.0416  0.0340  0.6194
14226SOL     OW44351   8.810   4.239   1.413  0.6141  0.1868 -0.3341
14226SOL    HW144352   8.793   4.332   1.401  0.1224 -0.0289 -1.4424
14226SOL    HW244353   8.810   4.226   1.508 -0.7709  1.0541 -0.1916
14227SOL     OW44354   0.148   3.013   5.233  0.3015 -0.1581  0.2918
14227SOL    HW144355   0.228   3.039   5.188 -0.8161  1.9293 -0.6566
14227SOL    HW244356   0.078   3.054   5.183 -1.3501 -1.4951  1.3814
14228SOL     OW44357   3.336   9.310   6.346 -0.2003  0.3610 -0.1249
14228SOL    HW144358   3.430   9.325   6.343 -0.0794 -0.5154 -1.2026
14228SOL    HW244359   3.324   9.224   6.307 -1.2147 -0.7111  2.3059
14229SOL     OW44360   2.929   8.525   4.654  0.0349  0.2562 -0.4350
14229SOL    HW144361   2.939   8.573   4.572 -2.0006  2.5148  0.5302
14229SOL    HW244362   2.870   8.453   4.632  2.0127 -1.1196 -1.5820
14230SOL     OW44363   7.017   5.871   5.102  0.6340 -0.7421  0.1925
14230SOL    HW144364   7.039   5.909   5.187  0.9645 -1.0020  0.2277
14230SOL    HW244365   7.033   5.942   5.039  3.7549 -1.4776 -0.0466
14231SOL     OW44366   5.018   8.861   9.321 -0.0538  0.5568 -0.0045
14231SOL    HW144367   4.964   8.904   9.254 -0.0467 -1.8224 -1.6366
14231SOL    HW244368   4.955   8.815   9.376  0.0914  0.6142  0.2081
14232SOL     OW44369   7.611   0.924   4.860  0.0327  0.2785  0.0712
14232SOL    HW144370   7.660   0.951   4.938  0.1496  0.1745  0.0339
14232SOL    HW244371   7.605   1.003   4.807  0.7827  0.1274 -0.2548
14233SOL     OW44372   8.619   6.018   1.723 -0.0051  0.5881 -0.4107
14233SOL    HW144373   8.526   6.033   1.742  0.2186  1.1782  0.2718
14233SOL    HW244374   8.623   5.927   1.695 -0.6988  0.3635  0.1843
14234SOL     OW44375   9.367   3.159   5.825  0.3125 -0.3033  0.0790
14234SOL    HW144376   9.392   3.127   5.912 -0.1836 -0.5363  0.1370
14234SOL    HW244377   9.380   3.254   5.829  2.1206 -0.4987 -0.1962
14235SOL     OW44378   1.086   4.387   3.781  0.0786 -0.2213 -0.4947
14235SOL    HW144379   1.044   4.426   3.705  0.9462  0.6711 -0.5293
14235SOL    HW244380   1.149   4.452   3.811 -0.6086 -0.3219  1.3233
14236SOL     OW44381   4.649   7.436   5.266 -0.0966 -0.0073 -0.5643
14236SOL    HW144382   4.711   7.374   5.304  1.6989  2.5373  0.9616
14236SOL    HW244383   4.685   7.457   5.180 -0.6272 -0.9422 -1.0210
14237SOL     OW44384   0.768   4.707   6.794  0.2136  0.2649 -0.0804
14237SOL    HW144385   0.690   4.656   6.816 -0.6693  1.1254 -1.1245
14237SOL    HW244386   0.765   4.717   6.699  2.2106 -0.6170 -0.2937
14238SOL     OW44387   0.653   2.560   1.257 -0.0165  0.1178  0.6755
14238SOL    HW144388   0.715   2.605   1.200  1.4570  1.0043  2.8569
14238SOL    HW244389   0.583   2.624   1.271  0.3083  0.4170  0.9493
14239SOL     OW44390   0.618   7.792   9.298 -0.2172  0.1395  0.0858
14239SOL    HW144391   0.708   7.823   9.294 -0.0788 -0.2614  0.0476
14239SOL    HW244392   0.617   7.712   9.245  0.0900 -1.4967  2.3659
14240SOL     OW44393   8.150   5.466   3.022  0.0530  0.5103  0.0007
14240SOL    HW144394   8.164   5.538   3.083  1.7909  2.0080 -2.0173
14240SOL    HW244395   8.086   5.501   2.959  1.1601  0.4666 -1.1863
14241SOL     OW44396   9.593   1.127   3.695 -0.8792 -0.3070 -0.0742
14241SOL    HW144397   9.656   1.153   3.762 -0.4881  0.8431 -0.8480
14241SOL    HW244398   9.523   1.192   3.700 -0.4843  0.2447 -1.2355
14242SOL     OW44399   2.050   2.772   4.603  0.4966  0.1623  0.3284
14242SOL    HW144400   2.114   2.709   4.637  2.1277  2.3708  1.6296
14242SOL    HW244401   2.070   2.779   4.510 -0.0884 -1.6052  0.0404
14243SOL     OW44402   8.342   8.853   6.076  0.1216  0.2152  0.1017
14243SOL    HW144403   8.330   8.759   6.090  1.9901  0.1809  1.7798
14243SOL    HW244404   8.384   8.885   6.155 -0.1248  2.4323 -0.5841
14244SOL     OW44405   1.002   8.925   4.219  0.0089 -0.2243 -0.0957
14244SOL    HW144406   0.937   8.899   4.284  1.7834  1.2703  2.4658
14244SOL    HW244407   0.977   9.015   4.195 -0.2937 -0.5554 -1.0656
14245SOL     OW44408   7.008   5.285   6.995 -0.1598 -0.0407 -0.0892
14245SOL    HW144409   7.104   5.284   6.997 -0.1495 -0.5126 -0.6093
14245SOL    HW244410   6.986   5.354   6.933 -0.2052  1.6423  1.7165
14246SOL     OW44411   1.176   1.641   9.236  0.2866  0.4886  0.3441
14246SOL    HW144412   1.196   1.571   9.174  0.8801  0.0727  0.9910
14246SOL    HW244413   1.091   1.674   9.208  1.1302  1.2420 -1.5425
14247SOL     OW44414   5.324   2.831   8.590 -0.3784  0.1178  0.1161
14247SOL    HW144415   5.253   2.870   8.640 -0.1483 -1.3034  1.6373
14247SOL    HW244416   5.294   2.742   8.571  0.2098  0.1254 -0.9204
14248SOL     OW44417   7.264   3.133   7.340  0.1170  0.1888 -0.2447
14248SOL    HW144418   7.338   3.072   7.343 -1.1733 -1.4147  0.4635
14248SOL    HW244419   7.253   3.152   7.246 -0.5687 -2.1637 -0.7071
14249SOL     OW44420   6.938   3.855   3.555  0.5502 -0.4023  0.3499
14249SOL    HW144421   7.022   3.854   3.601  1.0983 -1.5368 -0.6236
14249SOL    HW244422   6.954   3.804   3.476 -0.7297  0.4060 -0.4581
14250SOL     OW44423   7.529   3.529   7.585 -0.2455 -0.4110  0.0043
14250SOL    HW144424   7.471   3.487   7.523  0.4057 -0.0089 -0.8996
14250SOL    HW244425   7.615   3.489   7.569  0.1199  0.3518 -0.0045
14251SOL     OW44426   8.682   7.303   5.834 -0.3489  0.2270  0.0065
14251SOL    HW144427   8.616   7.313   5.766  0.2886 -1.7795 -0.9732
14251SOL    HW244428   8.745   7.240   5.799  1.7915  1.5681  1.1420
14252SOL     OW44429   3.326   7.009   4.304 -0.3626 -0.0886 -0.1341
14252SOL    HW144430   3.316   7.088   4.358  1.7387  0.2640 -0.1543
14252SOL    HW244431   3.399   6.962   4.345  0.6898 -0.2754 -2.1205
14253SOL     OW44432   3.131   2.803   4.343 -0.5027  0.3709 -0.6288
14253SOL    HW144433   3.206   2.861   4.331  0.8097 -1.6339 -2.9671
14253SOL    HW244434   3.165   2.730   4.394 -1.1737 -0.0548 -0.7806
14254SOL     OW44435   1.386   6.775   2.868  0.0410  0.0047  0.2225
14254SOL    HW144436   1.292   6.791   2.859  0.2000  0.2354 -1.4661
14254SOL    HW244437   1.393   6.681   2.884 -0.5121  0.1860  1.6722
14255SOL     OW44438   3.161   9.071   1.015 -0.0468  0.4208 -0.3931
14255SOL    HW144439   3.165   9.161   0.982  0.6290 -0.1827 -2.0543
14255SOL    HW244440   3.246   9.034   0.991  0.1134 -0.3491  1.2632
14256SOL     OW44441   4.385   6.584   3.655  0.4875  0.4971 -0.2099
14256SOL    HW144442   4.461   6.540   3.619 -0.0740 -1.7188  1.0961
14256SOL    HW244443   4.322   6.586   3.583  1.2587  1.1059 -0.8906
14257SOL     OW44444   6.054   2.528   7.683  0.7020  0.5707 -0.2724
14257SOL    HW144445   5.980   2.538   7.743 -0.6494 -0.8982 -1.6029
14257SOL    HW244446   6.042   2.441   7.645  1.6749  1.3289 -2.4397
14258SOL     OW44447   9.061   0.432   2.307 -0.1935 -0.1533 -0.5606
14258SOL    HW144448   9.051   0.516   2.352  0.7125  0.1812 -0.9330
14258SOL    HW244449   8.972   0.398   2.297 -0.6426  1.0861 -0.9899
14259SOL     OW44450   1.195   8.994   5.575  0.3164  0.4368  0.2295
14259SOL    HW144451   1.168   8.918   5.626 -0.3797 -0.2822 -1.1313
14259SOL    HW244452   1.276   8.966   5.531 -0.4804  0.0636 -1.0719
14260SOL     OW44453   8.716   0.256   4.333 -0.7170  0.1313 -0.2256
14260SOL    HW144454   8.664   0.291   4.405 -0.1916 -0.5545  0.4940
14260SOL    HW244455   8.752   0.174   4.366  0.0464  0.1186 -1.0462
14261SOL     OW44456   7.029   6.933   4.411 -0.1586 -0.5478  0.4767
14261SOL    HW144457   6.987   6.850   4.434 -2.1109  0.5365  1.0597
14261SOL    HW244458   7.032   6.933   4.316 -0.7002 -1.0494  0.4552
14262SOL     OW44459   9.424   3.962   8.028 -0.1698  0.4044 -0.0832
14262SOL    HW144460   9.398   4.053   8.040 -1.5938  0.1287 -0.7860
14262SOL    HW244461   9.433   3.952   7.933  0.3329 -0.0991  0.0106
14263SOL     OW44462   8.541   1.457   5.143  0.2586  0.3398 -0.0699
14263SOL    HW144463   8.515   1.523   5.206  3.0312  1.0238  0.4557
14263SOL    HW244464   8.480   1.469   5.070  0.1667  2.9475  0.3421
14264SOL     OW44465   8.869   5.409   6.470 -0.2032  0.5280  0.5887
14264SOL    HW144466   8.839   5.467   6.540 -0.5899  2.2403 -0.9147
14264SOL    HW244467   8.907   5.468   6.405 -0.1670 -0.9648 -0.8099
14265SOL     OW44468   1.026   5.362   4.868 -0.4309  0.2523 -0.0443
14265SOL    HW144469   0.973   5.374   4.789  0.9516  1.9578 -0.7768
14265SOL    HW244470   1.011   5.441   4.920  2.7085  1.7794 -1.1611
14266SOL     OW44471   1.576   6.329   9.108 -0.4265  0.4779  0.2850
14266SOL    HW144472   1.664   6.354   9.079 -0.2510  1.1753  1.3709
14266SOL    HW244473   1.528   6.315   9.027 -0.0851  2.8197 -0.3859
14267SOL     OW44474   9.661   4.991   3.764 -0.4260 -0.3349  0.1831
14267SOL    HW144475   9.640   5.072   3.811 -0.6602  0.2934 -0.9815
14267SOL    HW244476   9.751   5.004   3.733 -0.0945 -0.9496  0.8450
14268SOL     OW44477   5.829   2.526   3.107  0.1833  0.1459 -0.3335
14268SOL    HW144478   5.877   2.503   3.027 -1.1690 -1.2779 -0.7801
14268SOL    HW244479   5.738   2.530   3.080 -0.3792 -1.0380  1.2538
14269SOL     OW44480   7.269   1.464   8.165  0.1796  0.4365 -0.3793
14269SOL    HW144481   7.312   1.412   8.097 -0.4390 -1.3898  0.5632
14269SOL    HW244482   7.183   1.484   8.129  0.1082  0.0921 -0.3948
14270SOL     OW44483   8.890   4.334   7.340 -0.9341 -0.4948  0.0365
14270SOL    HW144484   8.843   4.415   7.319  1.1425  0.9536  0.6688
14270SOL    HW244485   8.903   4.292   7.255  0.3692  1.2749 -0.7159
14271SOL     OW44486   3.247   0.449   7.791 -0.0119 -0.0598 -0.0685
14271SOL    HW144487   3.155   0.462   7.817 -0.3209 -2.0533  0.0111
14271SOL    HW244488   3.254   0.355   7.776  1.4248  0.3614 -2.4583
14272SOL     OW44489   8.442   4.417   9.137  0.5843  0.1294  0.2147
14272SOL    HW144490   8.491   4.481   9.188 -1.6469  1.9524  0.2144
14272SOL    HW244491   8.428   4.344   9.197  0.8142  0.8288  1.1336
14273SOL     OW44492   1.774   7.397   1.253 -0.6143 -0.1794  0.0318
14273SOL    HW144493   1.754   7.374   1.162  0.5370  2.0902 -0.8758
14273SOL    HW244494   1.837   7.331   1.281  2.2864  1.3572 -2.3253
14274SOL     OW44495   8.488   4.630   9.591 -0.1989  0.9068 -0.1328
14274SOL    HW144496   8.552   4.608   9.659 -0.6535  0.7783  0.2580
14274SOL    HW244497   8.537   4.625   9.509 -0.0691 -0.6965  0.0174
14275SOL     OW44498   1.325   7.898   6.367  0.0987 -0.3441 -0.1352
14275SOL    HW144499   1.242   7.940   6.388 -0.6404 -0.5951 -2.3279
14275SOL    HW244500   1.310   7.805   6.386  0.4185 -0.1824  0.9541
14276SOL     OW44501   1.266   6.116   5.747 -0.3483  0.7081 -0.1280
14276SOL    HW144502   1.322   6.189   5.723  0.8759 -0.2664 -0.3165
14276SOL    HW244503   1.233   6.081   5.664 -1.6536  1.5505 -0.0051
14277SOL     OW44504   5.509   7.017   8.290 -0.0303 -0.2170 -0.1221
14277SOL    HW144505   5.593   7.062   8.296  0.9537 -2.1399  3.3993
14277SOL    HW244506   5.451   7.066   8.349 -0.6285 -0.3725 -0.5675
14278SOL     OW44507   7.720   5.237   2.055  0.3105  0.2858  0.2135
14278SOL    HW144508   7.767   5.157   2.077  0.3209  0.1291 -0.3542
14278SOL    HW244509   7.738   5.297   2.127  3.2726  1.0381 -0.9984
14279SOL     OW44510   7.591   6.863   0.920  0.2855 -0.1129  0.4799
14279SOL    HW144511   7.649   6.938   0.912  0.9497 -0.7478 -1.0209
14279SOL    HW244512   7.623   6.800   0.855 -2.7424 -0.0650 -1.2538
14280SOL     OW44513   1.368   0.961   9.348  0.9131 -0.3318 -0.4111
14280SOL    HW144514   1.364   0.970   9.253 -0.1065  1.3393 -0.2545
14280SOL    HW244515   1.455   0.993   9.372  1.1372 -0.6645 -0.7720
14281SOL     OW44516   8.092   2.950   0.868  0.1988 -0.6173  0.3238
14281SOL    HW144517   8.103   3.045   0.868 -0.4706 -0.5302  1.3833
14281SOL    HW244518   8.028   2.932   0.937 -0.4157 -1.7583 -0.4923
14282SOL     OW44519   8.965   9.416   4.834  0.2601 -0.2404 -0.1580
14282SOL    HW144520   8.914   9.427   4.754 -1.0810  1.9060  0.9020
14282SOL    HW244521   9.027   9.489   4.833 -0.2476  0.2271  1.0675
14283SOL     OW44522   0.134   3.460   6.312  0.6448 -0.0410 -0.0073
14283SOL    HW144523   0.078   3.537   6.326  0.6131 -0.0715  0.0363
14283SOL    HW244524   0.223   3.493   6.321  0.6493  0.1052 -0.5737
14284SOL     OW44525   2.422   6.011   8.928 -0.5220  0.0654  0.0871
14284SOL    HW144526   2.442   5.950   8.857  1.3969  0.9406 -0.1905
14284SOL    HW244527   2.498   6.069   8.932  0.6061 -1.3245  4.3126
14285SOL     OW44528   6.233   8.270   9.557  0.1911 -0.2639  0.0620
14285SOL    HW144529   6.285   8.274   9.477 -0.3014  1.9835 -0.2244
14285SOL    HW244530   6.296   8.285   9.627  0.1454  1.5112 -0.2212
14286SOL     OW44531   3.408   2.403   6.187 -0.0364 -0.5368 -0.4747
14286SOL    HW144532   3.500   2.413   6.162 -0.2493  1.7580 -0.4955
14286SOL    HW244533   3.360   2.408   6.104 -0.1886 -2.8203 -0.6019
14287SOL     OW44534   7.836   5.185   4.567 -0.1751 -0.5341 -0.1038
14287SOL    HW144535   7.780   5.260   4.548  1.3001  0.5508 -0.3390
14287SOL    HW244536   7.803   5.115   4.511 -0.7223  0.3586 -0.9119
14288SOL     OW44537   4.380   4.527   2.637  0.0817 -0.1910 -0.0415
14288SOL    HW144538   4.378   4.447   2.690 -0.5963 -0.3595 -0.2975
14288SOL    HW244539   4.434   4.588   2.686  1.5543 -1.1789 -0.3860
14289SOL     OW44540   4.291   8.466   8.954  0.0890 -0.2739  0.3559
14289SOL    HW144541   4.345   8.479   9.032 -0.2734  0.8825  0.4346
14289SOL    HW244542   4.256   8.377   8.964  1.5764 -0.8792  0.5289
14290SOL     OW44543   5.533   7.615   2.472 -0.3607  0.3360  0.3364
14290SOL    HW144544   5.611   7.603   2.526 -0.8551  0.4077  1.0892
14290SOL    HW244545   5.562   7.667   2.398  0.3155  0.3362  0.5993
14291SOL     OW44546   2.667   6.300   6.850 -0.5458  0.3933 -0.2540
14291SOL    HW144547   2.655   6.394   6.864 -0.8233  0.0194  2.7189
14291SOL    HW244548   2.579   6.265   6.843 -0.4324  0.3805 -2.0056
14292SOL     OW44549   6.530   9.330   8.765 -0.2654 -0.3169 -0.1613
14292SOL    HW144550   6.617   9.303   8.735  0.4581  0.5114  1.0772
14292SOL    HW244551   6.510   9.270   8.836 -0.8056 -0.6300 -0.5726
14293SOL     OW44552   6.276   0.412   2.110 -0.3447 -0.0987  0.1481
14293SOL    HW144553   6.313   0.480   2.165  0.6136  0.5580 -1.2530
14293SOL    HW244554   6.348   0.350   2.095 -0.6160 -0.3272 -0.2629
14294SOL     OW44555   6.269   6.416   6.971  0.6401  0.8139  0.6896
14294SOL    HW144556   6.253   6.434   7.063 -1.5161  1.2489  0.2979
14294SOL    HW244557   6.191   6.368   6.943  0.3358  2.3354 -1.3207
14295SOL     OW44558   9.365   0.617   2.635 -0.1969  0.1212  0.2958
14295SOL    HW144559   9.432   0.557   2.601  0.0138 -0.0878  1.0549
14295SOL    HW244560   9.288   0.562   2.646 -0.1808  0.1239  0.4221
14296SOL     OW44561   0.642   6.544   4.504  0.1786 -0.8577  0.2321
14296SOL    HW144562   0.617   6.452   4.491 -0.2505 -0.4816 -2.1804
14296SOL    HW244563   0.644   6.580   4.415 -1.4983  1.9363  1.2025
14297SOL     OW44564   8.041   4.754   8.747  0.3971  0.0058  0.0528
14297SOL    HW144565   8.123   4.803   8.737  0.5758 -0.3372 -0.1738
14297SOL    HW244566   8.050   4.681   8.686 -1.0626  1.2514 -1.7646
14298SOL     OW44567   5.840   6.688   9.646 -0.0943 -0.5730  0.0215
14298SOL    HW144568   5.868   6.745   9.574  2.1753 -0.9486  0.5249
14298SOL    HW244569   5.764   6.733   9.684  1.0114  1.6218 -0.2010
14299SOL     OW44570   8.280   2.471   8.997  0.1996  0.0073  0.4234
14299SOL    HW144571   8.375   2.471   9.006  0.2244 -0.7169  0.2474
14299SOL    HW244572   8.260   2.388   8.953 -0.4513  0.4765 -0.1930
14300SOL     OW44573   2.014   3.681   6.460 -0.1716 -0.2457 -0.5959
14300SOL    HW144574   2.011   3.594   6.419 -1.0769 -0.5840  0.1481
14300SOL    HW244575   1.928   3.691   6.501  0.5809  0.1772  0.9747
14301SOL     OW44576   8.237   8.318   8.785 -0.1979 -0.5027 -0.2106
14301SOL    HW144577   8.233   8.227   8.812  1.1625 -0.5203  0.0238
14301SOL    HW244578   8.330   8.341   8.793 -0.3810  0.6380 -1.1166
14302SOL     OW44579   5.373   0.424   0.689  0.3128 -0.0288 -0.0415
14302SOL    HW144580   5.327   0.494   0.641  1.8046  1.2007  0.2312
14302SOL    HW244581   5.453   0.410   0.639  1.1682  0.1805  1.2451
14303SOL     OW44582   4.656   2.388   3.508  0.1136 -0.1932  0.3739
14303SOL    HW144583   4.682   2.356   3.422  1.6538 -0.1081  0.7746
14303SOL    HW244584   4.608   2.315   3.548 -0.5683 -0.2456 -0.5159
14304SOL     OW44585   1.215   4.852   1.963 -0.2926 -0.0376  0.1312
14304SOL    HW144586   1.146   4.858   1.897  0.8575  1.0565 -1.0184
14304SOL    HW244587   1.213   4.937   2.007  2.1392  1.1650 -1.8562
14305SOL     OW44588   9.310   0.792   5.605  0.2030 -0.0027 -0.6986
14305SOL    HW144589   9.310   0.703   5.571 -1.8351  0.1434 -1.2252
14305SOL    HW244590   9.399   0.805   5.639  0.6882 -2.0406 -1.0499
14306SOL     OW44591   0.080   4.201   4.504 -0.3445 -0.3435 -0.6217
14306SOL    HW144592   0.118   4.254   4.574  0.6606 -0.8158 -0.7940
14306SOL    HW244593   0.025   4.137   4.549  0.1410 -0.5169 -0.2725
14307SOL     OW44594   9.500   8.457   2.645 -0.2304  0.2906  0.8304
14307SOL    HW144595   9.566   8.389   2.652  0.2117  0.7433  1.1569
14307SOL    HW244596   9.513   8.494   2.558 -2.4055 -1.9723 -0.5968
14308SOL     OW44597   5.702   3.638   4.378 -0.2198  0.1417 -0.0089
14308SOL    HW144598   5.795   3.617   4.382 -0.1789  0.5497  2.8313
14308SOL    HW244599   5.658   3.559   4.411 -0.6675  0.9260  1.3311
14309SOL     OW44600   2.489   6.162   1.636 -0.3467  0.5109  0.1895
14309SOL    HW144601   2.540   6.163   1.555 -0.3430  0.7792  0.1943
14309SOL    HW244602   2.542   6.212   1.698  0.0656 -0.4299  0.6092
14310SOL     OW44603   1.351   9.552   2.598 -0.0381  0.7290  0.0243
14310SOL    HW144604   1.331   9.500   2.520 -2.0287 -1.5839  1.9148
14310SOL    HW244605   1.267   9.590   2.624  0.2655  0.3592  1.7120
14311SOL     OW44606   6.460   8.036   0.644  0.1796 -0.0474 -0.2474
14311SOL    HW144607   6.551   8.066   0.639  0.4900 -1.0908 -1.7015
14311SOL    HW244608   6.413   8.091   0.581 -0.0086 -0.1140 -0.1674
14312SOL     OW44609   1.998   4.193   0.508 -0.3106  0.0661  0.0168
14312SOL    HW144610   2.064   4.260   0.523  0.7297 -0.8596 -0.2971
14312SOL    HW244611   2.044   4.124   0.461 -1.2810 -0.9973  0.5747
14313SOL     OW44612   1.263   4.476   0.579 -0.2329  0.6392  0.3870
14313SOL    HW144613   1.344   4.526   0.567 -0.5085  0.9892 -0.0181
14313SOL    HW244614   1.238   4.494   0.670  0.3791  0.1754  0.6499
14314SOL     OW44615   0.142   4.527   1.266  0.0345  0.1353 -0.3374
14314SOL    HW144616   0.073   4.560   1.208 -0.5692 -0.7573 -0.1500
14314SOL    HW244617   0.097   4.466   1.325  0.8470  0.1456  0.3108
14315SOL     OW44618   8.751   1.925   0.391 -0.3366  0.2398 -0.0416
14315SOL    HW144619   8.732   1.887   0.477 -0.2675  0.9740  0.3014
14315SOL    HW244620   8.842   1.899   0.374 -0.3136  0.1882  0.1543
14316SOL     OW44621   2.535   7.683   2.319 -0.3056 -0.5510  0.8301
14316SOL    HW144622   2.544   7.693   2.414 -1.5090 -1.4890  1.0654
14316SOL    HW244623   2.604   7.621   2.295  0.9033  0.7247  0.8405
14317SOL     OW44624   8.711   4.524   1.432 -0.6380 -0.2069  0.0881
14317SOL    HW144625   8.789   4.578   1.443 -1.2796  0.3660  2.4693
14317SOL    HW244626   8.651   4.579   1.381  0.2048 -0.3425 -1.0691
14318SOL     OW44627   5.728   6.684   8.105  0.2726 -0.0112  0.5815
14318SOL    HW144628   5.782   6.623   8.054 -0.6736 -1.3931  1.1616
14318SOL    HW244629   5.669   6.724   8.040 -1.3359 -2.1994  0.5894
14319SOL     OW44630   2.542   6.917   3.376  0.0711  0.3817  0.1594
14319SOL    HW144631   2.505   6.854   3.438  0.6915 -0.0714  0.0893
14319SOL    HW244632   2.625   6.877   3.349  0.6635  1.4202  0.4092
14320SOL     OW44633   2.777   8.630   9.406  0.6138 -0.5257 -1.0177
14320SOL    HW144634   2.831   8.561   9.443  1.1428 -0.2623 -1.2944
14320SOL    HW244635   2.704   8.584   9.365  0.7293 -0.8901 -0.8120
14321SOL     OW44636   6.938   2.281   3.736  0.3336  0.0985  0.2451
14321SOL    HW144637   7.030   2.291   3.712 -0.0598 -1.4567 -2.1763
14321SOL    HW244638   6.910   2.200   3.694 -1.7247 -0.4208  2.3830
14322SOL     OW44639   9.284   3.049   5.607 -0.0515  0.3924  0.0044
14322SOL    HW144640   9.343   3.070   5.679 -0.5357  1.7425  0.0373
14322SOL    HW244641   9.256   3.134   5.573 -1.0330 -0.2160 -0.7873
14323SOL     OW44642   1.804   9.521   8.227 -0.2197 -0.1851  0.0399
14323SOL    HW144643   1.711   9.520   8.250 -0.1583  1.0587  0.4059
14323SOL    HW244644   1.824   9.613   8.212  1.0045 -0.4142  0.1818
14324SOL     OW44645   3.236   5.859   4.725 -0.3337 -0.0105  0.1591
14324SOL    HW144646   3.216   5.772   4.692 -1.3446  0.6307 -0.9758
14324SOL    HW244647   3.252   5.846   4.818 -0.6855 -1.3709  0.0498
14325SOL     OW44648   0.366   7.126   8.564 -0.8597 -0.4529 -0.6760
14325SOL    HW144649   0.284   7.175   8.573 -1.3599 -1.3775 -0.0461
14325SOL    HW244650   0.413   7.171   8.494 -1.6947  0.3787 -0.7250
14326SOL     OW44651   3.429   0.322   8.372 -0.1469 -0.0644  0.1731
14326SOL    HW144652   3.449   0.415   8.364  0.3897 -0.1944 -0.0954
14326SOL    HW244653   3.473   0.294   8.452  1.1520 -0.4336 -0.6172
14327SOL     OW44654   3.530   4.327   3.294  0.3220 -0.0984  0.4759
14327SOL    HW144655   3.611   4.332   3.345  0.1046 -0.7145  0.8868
14327SOL    HW244656   3.508   4.418   3.275  0.8424  0.0973  0.7832
14328SOL     OW44657   2.203   4.982   5.614  0.1902 -0.5914 -0.2107
14328SOL    HW144658   2.277   5.035   5.585 -0.8908  0.1928 -1.7122
14328SOL    HW244659   2.177   4.932   5.537 -2.2282  0.8671 -0.4593
14329SOL     OW44660   3.697   3.426   9.258  0.2531 -0.2038  0.0219
14329SOL    HW144661   3.749   3.449   9.181  0.6023 -0.5207  0.1639
14329SOL    HW244662   3.669   3.336   9.242  0.0739 -0.1686  0.1302
14330SOL     OW44663   8.433   8.196   6.519 -0.1431 -0.0437 -0.1197
14330SOL    HW144664   8.402   8.136   6.587  0.2117 -0.3538 -0.2348
14330SOL    HW244665   8.518   8.226   6.550 -0.2109  0.2135 -0.1804
14331SOL     OW44666   1.575   6.058   5.465  0.1293  0.5489  0.6429
14331SOL    HW144667   1.554   6.125   5.531  1.4820 -0.6162  2.3750
14331SOL    HW244668   1.635   5.999   5.511  0.0701 -1.0743 -1.2694
14332SOL     OW44669   5.491   8.838   3.956 -0.3823  0.1270  0.0935
14332SOL    HW144670   5.521   8.747   3.964 -0.7817 -0.0149 -0.0051
14332SOL    HW244671   5.545   8.875   3.886 -2.2270 -0.9048 -2.0095
14333SOL     OW44672   2.599   0.421   7.037 -0.0550 -0.2848  0.0899
14333SOL    HW144673   2.565   0.356   7.098 -0.7844 -0.8693 -0.9160
14333SOL    HW244674   2.673   0.377   6.994 -0.3995 -0.3866 -0.4177
14334SOL     OW44675   5.167   2.771   9.062  0.0654  0.3847  0.2651
14334SOL    HW144676   5.119   2.692   9.037 -0.1517  0.2019  1.2347
14334SOL    HW244677   5.251   2.764   9.015 -0.1700 -0.1462 -0.0810
14335SOL     OW44678   8.499   6.509   6.039 -0.2404 -0.0367 -0.2229
14335SOL    HW144679   8.444   6.515   5.961  0.9697 -0.3423 -1.1306
14335SOL    HW244680   8.462   6.436   6.089 -0.1997 -0.7586 -1.2121
14336SOL     OW44681   1.844   1.257   8.456  0.3764 -0.4358 -0.7501
14336SOL    HW144682   1.841   1.350   8.478  0.0618 -0.3222 -1.2550
14336SOL    HW244683   1.851   1.255   8.361  0.0537 -0.9330 -0.7695
14337SOL     OW44684   0.623   9.343   7.225 -0.4924  0.2841  0.3047
14337SOL    HW144685   0.664   9.257   7.233 -1.7094 -0.4116 -0.6750
14337SOL    HW244686   0.654   9.391   7.302  0.2465 -0.9978  0.8443
14338SOL     OW44687   2.821   8.883   3.895 -0.3743 -0.0735  0.2870
14338SOL    HW144688   2.843   8.976   3.891 -0.0429 -0.0932  1.3905
14338SOL    HW244689   2.755   8.871   3.826  0.4951  0.7109 -0.7082
14339SOL     OW44690   3.699   9.033   4.444  0.5686  0.1191 -0.4502
14339SOL    HW144691   3.754   9.046   4.521 -1.7613  0.1552  1.3154
14339SOL    HW244692   3.610   9.052   4.474 -0.6456 -1.3893 -2.7399
14340SOL     OW44693   1.361   6.193   6.000  0.0387 -0.2991 -0.5600
14340SOL    HW144694   1.325   6.153   5.921 -2.2284  0.3571  0.0766
14340SOL    HW244695   1.366   6.286   5.980 -1.9016  0.0887  0.4593
14341SOL     OW44696   2.713   1.890   3.663  0.1717  0.4196 -0.2879
14341SOL    HW144697   2.771   1.881   3.738  0.1422  0.6843 -0.2303
14341SOL    HW244698   2.698   1.801   3.633 -1.4722  0.1137  1.2774
14342SOL     OW44699   5.747   4.202   4.301  0.3561 -0.0204  0.0955
14342SOL    HW144700   5.701   4.282   4.325 -0.3158 -0.1714 -0.6349
14342SOL    HW244701   5.695   4.132   4.341  0.1743 -0.1677 -0.3927
14343SOL     OW44702   1.997   5.540   7.301 -0.4110 -0.3192  0.3578
14343SOL    HW144703   1.939   5.614   7.319 -0.1880  0.1474 -0.7791
14343SOL    HW244704   2.085   5.577   7.306 -0.3267 -0.2281 -1.2920
14344SOL     OW44705   1.308   8.781   9.054 -0.1641 -0.1589  0.4744
14344SOL    HW144706   1.242   8.749   9.114 -0.7864  1.7277  0.8812
14344SOL    HW244707   1.390   8.777   9.103 -0.5113  0.4457  1.1222
14345SOL     OW44708   5.157   7.198   1.104 -0.5472 -0.6869  0.1437
14345SOL    HW144709   5.225   7.134   1.123 -1.2714 -1.6258 -0.3377
14345SOL    HW244710   5.106   7.203   1.185  2.9125  3.8266  2.4931
14346SOL     OW44711   7.633   0.034   1.823 -0.1673 -0.1444  0.0004
14346SOL    HW144712   7.639   0.022   1.728  2.8262 -0.0741  0.0683
14346SOL    HW244713   7.660   0.125   1.837  1.1043 -0.6383  0.9767
14347SOL     OW44714   3.825   0.624   8.575  0.5269 -0.0310  0.2125
14347SOL    HW144715   3.813   0.666   8.490 -0.2298 -0.6005  0.0340
14347SOL    HW244716   3.785   0.538   8.565  0.5124 -0.1341  1.1246
14348SOL     OW44717   5.886   0.315   1.936 -0.9182 -0.3071 -0.2281
14348SOL    HW144718   5.895   0.388   1.997 -1.2504 -1.0227  0.7009
14348SOL    HW244719   5.963   0.260   1.953  0.1688  0.5792 -2.0089
14349SOL     OW44720   1.048   2.461   9.470 -0.2054 -0.2756  0.1526
14349SOL    HW144721   0.970   2.514   9.488 -0.4099 -0.1310 -1.0823
14349SOL    HW244722   1.102   2.516   9.413  1.0336 -0.1953  1.3305
14350SOL     OW44723   5.694   3.879   2.497 -0.2300 -0.6129 -0.9131
14350SOL    HW144724   5.627   3.810   2.493 -0.1342 -0.7037 -0.9613
14350SOL    HW244725   5.687   3.914   2.586  0.2215 -1.1899 -0.6398
14351SOL     OW44726   3.541   8.638   8.730  0.2984  0.1226 -0.2815
14351SOL    HW144727   3.479   8.671   8.795  1.0829  0.5681  0.2455
14351SOL    HW244728   3.603   8.710   8.718  1.6403 -0.8961  0.3662
14352SOL     OW44729   4.296   0.789   4.663  0.3857  0.0987  0.0759
14352SOL    HW144730   4.339   0.766   4.746 -0.7993  1.3864  1.0953
14352SOL    HW244731   4.213   0.743   4.665  0.1161  0.5626 -0.1334
14353SOL     OW44732   0.313   2.535   9.527 -0.5436  0.6644  0.3394
14353SOL    HW144733   0.385   2.553   9.586  1.2170 -0.2207 -1.4096
14353SOL    HW244734   0.238   2.582   9.564  0.6057  0.6194  2.8691
14354SOL     OW44735   7.853   0.088   0.139  0.3117  0.3756 -0.0278
14354SOL    HW144736   7.927   0.038   0.104  1.2095  0.5394  1.5235
14354SOL    HW244737   7.825   0.038   0.216  0.7486  1.8516  1.1195
14355SOL     OW44738   9.142   9.105   7.912 -0.1555  0.2330  0.3751
14355SOL    HW144739   9.144   9.013   7.884 -0.1979  0.1918  0.5054
14355SOL    HW244740   9.049   9.130   7.906 -0.1087  0.3424  0.0989
14356SOL     OW44741   6.454   5.866   7.387 -0.4377  0.4824  0.1776
14356SOL    HW144742   6.429   5.887   7.477 -0.7945  1.2100 -0.0842
14356SOL    HW244743   6.520   5.798   7.396 -1.7301 -0.7312  0.9372
14357SOL     OW44744   0.388   2.217   0.880  0.1472  0.2261 -0.2000
14357SOL    HW144745   0.343   2.301   0.892  2.0282  1.3880 -0.8218
14357SOL    HW244746   0.328   2.166   0.825  0.5833  2.6750 -3.2494
14358SOL     OW44747   3.381   3.274   4.750 -0.2279  0.5106 -0.0269
14358SOL    HW144748   3.404   3.365   4.767 -2.3626  1.0511  0.2534
14358SOL    HW244749   3.359   3.238   4.836 -1.8291  0.5019 -0.4040
14359SOL     OW44750   8.942   7.264   7.569  0.3451 -0.3422  0.3804
14359SOL    HW144751   8.986   7.313   7.638 -0.0230 -0.2259  0.5338
14359SOL    HW244752   9.012   7.218   7.523  0.7053  0.4186  0.1597
14360SOL     OW44753   8.394   3.908   2.822  0.2100 -0.4815  0.3898
14360SOL    HW144754   8.427   3.825   2.858  3.6880  0.9697  0.8970
14360SOL    HW244755   8.446   3.922   2.743 -0.8681  0.8545 -0.1186
14361SOL     OW44756   5.193   3.089   3.635 -0.2139  0.2319  0.3475
14361SOL    HW144757   5.173   3.013   3.581  0.0325  0.5241 -0.1651
14361SOL    HW244758   5.266   3.061   3.690 -0.6589 -0.1613  0.7423
14362SOL     OW44759   3.555   7.114   4.766 -0.2229  0.0770 -0.8366
14362SOL    HW144760   3.604   7.134   4.686  1.6007 -3.2429 -0.6969
14362SOL    HW244761   3.491   7.048   4.740  0.1684 -0.8068  0.3593
14363SOL     OW44762   9.367   3.823   2.785  0.9688 -0.0674 -0.2020
14363SOL    HW144763   9.326   3.867   2.859  2.1956  0.4228  0.2127
14363SOL    HW244764   9.350   3.880   2.711 -1.0124 -0.9841 -0.5127
14364SOL     OW44765   7.010   2.900   9.031 -0.1047 -0.7894  0.3539
14364SOL    HW144766   7.045   2.860   8.951  1.9205 -0.5753  1.0764
14364SOL    HW244767   7.024   2.833   9.099  0.8902  0.1109  1.0649
14365SOL     OW44768   1.266   8.144   6.146 -0.7580 -0.6749  0.0455
14365SOL    HW144769   1.256   8.105   6.232  0.2982 -0.8761  0.0883
14365SOL    HW244770   1.343   8.102   6.109 -1.6675 -1.2006 -1.3498
14366SOL     OW44771   0.062   8.298   4.471 -0.1308  0.5324  0.2410
14366SOL    HW144772   0.103   8.309   4.556 -2.2087  0.4597  1.3271
14366SOL    HW244773   0.056   8.203   4.459  0.6138  0.5356 -0.2535
14367SOL     OW44774   4.663   4.980   1.348 -0.1814  0.4405 -0.2523
14367SOL    HW144775   4.705   4.987   1.434 -1.5071  1.9280  0.3220
14367SOL    HW244776   4.683   5.062   1.305  0.9745 -0.5354 -1.6481
14368SOL     OW44777   7.521   1.549   3.576  0.1785 -0.2882 -0.0570
14368SOL    HW144778   7.515   1.464   3.532  0.4225 -1.4823  2.0582
14368SOL    HW244779   7.535   1.527   3.669  0.9398  2.0698  0.4662
14369SOL     OW44780   4.028   0.464   7.005  0.0018  0.3677  0.2147
14369SOL    HW144781   3.939   0.473   7.038  0.1802 -0.0806  0.8406
14369SOL    HW244782   4.052   0.552   6.975 -0.1947  0.7734  1.2129
14370SOL     OW44783   3.405   3.004   2.559 -0.0081 -0.2695 -0.4588
14370SOL    HW144784   3.312   2.993   2.540 -0.3575  0.4774  0.7287
14370SOL    HW244785   3.410   3.012   2.654  0.8806  2.8120 -0.6666
14371SOL     OW44786   0.356   7.343   6.819 -0.0549 -0.0632 -0.1154
14371SOL    HW144787   0.296   7.389   6.877 -0.2291  1.6487 -1.5528
14371SOL    HW244788   0.317   7.352   6.732  1.6568  0.0231 -0.9194
14372SOL     OW44789   3.762   9.654   5.597  0.5811 -0.3070 -0.7151
14372SOL    HW144790   3.736   9.743   5.575 -0.2269  0.2935  2.2002
14372SOL    HW244791   3.682   9.612   5.628  1.5558 -0.9308  1.1017
14373SOL     OW44792   2.242   1.650   3.137  0.4135 -0.5438  0.0193
14373SOL    HW144793   2.311   1.715   3.126 -0.6376  0.4043 -1.2920
14373SOL    HW244794   2.266   1.580   3.076  1.6618 -1.5362  1.5901
14374SOL     OW44795   6.963   3.086   8.335 -0.1033 -0.0529 -0.0366
14374SOL    HW144796   6.908   3.074   8.258 -0.2326  1.1718 -0.1522
14374SOL    HW244797   7.036   3.026   8.322 -1.0745 -1.2442 -0.1773
14375SOL     OW44798   1.716   6.936   2.404 -0.0435 -0.8613  0.0344
14375SOL    HW144799   1.697   6.910   2.494  0.3987 -0.8316  0.1370
14375SOL    HW244800   1.794   6.886   2.381 -1.3551 -2.5337 -1.0809
14376SOL     OW44801   8.204   5.298   9.114 -0.3340 -0.1691  0.2499
14376SOL    HW144802   8.240   5.367   9.170 -0.8400 -0.5201  1.0116
14376SOL    HW244803   8.121   5.333   9.082  0.4107  0.4364 -1.1083
14377SOL     OW44804   4.129   3.086   0.689  0.4167  0.1675  0.1050
14377SOL    HW144805   4.066   3.025   0.725  0.2889  0.3699  0.2216
14377SOL    HW244806   4.193   3.100   0.759  1.5547 -1.3526 -0.5563
14378SOL     OW44807   6.924   3.672   3.320 -0.1677 -0.4339  0.1978
14378SOL    HW144808   6.876   3.651   3.240 -1.4521 -1.7590  1.2467
14378SOL    HW244809   7.003   3.716   3.290 -0.2762 -1.5094 -1.8321
14379SOL     OW44810   1.032   1.886   1.925  0.0989  0.1378 -0.4384
14379SOL    HW144811   1.020   1.815   1.988  1.5102  0.1480 -0.1164
14379SOL    HW244812   0.997   1.964   1.968 -0.2848 -0.1303 -0.2665
14380SOL     OW44813   0.063   9.266   2.128  0.2887 -0.5909 -0.4440
14380SOL    HW144814   0.142   9.236   2.173 -0.3358  0.7721  1.7442
14380SOL    HW244815  -0.008   9.245   2.189 -0.5431  1.8810 -0.4674
14381SOL     OW44816   5.683   2.783   2.146 -0.3611  0.6914  0.5653
14381SOL    HW144817   5.699   2.841   2.220 -0.2298 -0.4131  1.4194
14381SOL    HW244818   5.732   2.704   2.166 -0.8350  0.1322 -0.4045
14382SOL     OW44819   4.623   6.365   8.033 -0.4865 -0.1521  0.1929
14382SOL    HW144820   4.637   6.429   8.103 -1.5439  1.2886 -0.8532
14382SOL    HW244821   4.610   6.282   8.078  0.1862  0.4995  1.6326
14383SOL     OW44822   5.613   3.491   2.212  0.2459  0.6174 -0.5523
14383SOL    HW144823   5.520   3.495   2.192  0.1349 -0.5759 -0.3675
14383SOL    HW244824   5.622   3.412   2.266  1.4683  0.3310 -1.1478
14384SOL     OW44825   4.770   4.707   1.205  0.3730  0.4182 -0.0106
14384SOL    HW144826   4.821   4.685   1.283 -1.5290  1.5183  1.6317
14384SOL    HW244827   4.742   4.797   1.219 -2.7603 -0.3751 -0.3312
14385SOL     OW44828   2.458   5.402   3.177 -0.2225  0.0988 -0.0258
14385SOL    HW144829   2.468   5.456   3.255  1.3472 -0.7917  0.4548
14385SOL    HW244830   2.544   5.405   3.135 -1.1881  0.9932 -2.0495
14386SOL     OW44831   8.281   4.783   2.284  0.8260 -0.7143  0.4882
14386SOL    HW144832   8.365   4.738   2.276  0.7424 -0.8158  0.1542
14386SOL    HW244833   8.254   4.767   2.374  0.4176 -2.0290  0.1699
14387SOL     OW44834   6.439   1.140   8.075 -0.4261  0.2928 -0.2513
14387SOL    HW144835   6.402   1.090   8.003 -1.0565  1.1614 -0.5391
14387SOL    HW244836   6.532   1.148   8.054 -0.5914  0.4690 -0.9319
14388SOL     OW44837   0.581   4.670   4.329  0.6387  0.1111 -0.4605
14388SOL    HW144838   0.529   4.640   4.403 -1.4403 -0.2701 -1.9807
14388SOL    HW244839   0.596   4.763   4.346  0.0325  0.0730  0.3283
14389SOL     OW44840   3.645   6.090   5.188 -0.6182 -0.2019 -0.1010
14389SOL    HW144841   3.688   6.136   5.260 -0.2246 -0.4933 -0.1468
14389SOL    HW244842   3.559   6.066   5.223 -0.0897 -1.1476  0.5948
14390SOL     OW44843   1.483   4.398   2.879  0.5819  0.3434  0.5337
14390SOL    HW144844   1.396   4.430   2.855  0.6806  0.4029  0.2520
14390SOL    HW244845   1.523   4.372   2.796  0.6363 -0.1835  0.7241
14391SOL     OW44846   0.497   6.116   8.860  0.2024  0.0721  0.1511
14391SOL    HW144847   0.438   6.095   8.933 -0.0173  1.5108  0.4073
14391SOL    HW244848   0.445   6.095   8.782  0.1291 -0.6592  0.3838
14392SOL     OW44849   4.486   8.714   7.421 -0.3924  0.4862 -0.5097
14392SOL    HW144850   4.427   8.776   7.464 -1.0266 -1.1769  1.1363
14392SOL    HW244851   4.556   8.769   7.385 -0.9633  2.1593  0.7803
14393SOL     OW44852   2.636   5.211   5.718  0.1116 -0.5677 -0.6321
14393SOL    HW144853   2.722   5.232   5.681  1.3245 -2.9054  0.6201
14393SOL    HW244854   2.637   5.116   5.730 -2.0036 -0.4737  0.9834
14394SOL     OW44855   2.231   3.505   4.058  0.1918  0.4800 -0.2188
14394SOL    HW144856   2.315   3.534   4.094 -0.3564 -0.6544  2.2394
14394SOL    HW244857   2.251   3.424   4.013  0.8470  1.7626 -2.3668
14395SOL     OW44858   6.403   0.552   0.667 -0.4813 -0.4712  0.4439
14395SOL    HW144859   6.396   0.644   0.641 -3.7697 -0.7469 -0.1583
14395SOL    HW244860   6.493   0.527   0.646  0.1654  2.2790 -0.4348
14396SOL     OW44861   1.321   7.570   9.185  0.6779 -0.1039 -0.0265
14396SOL    HW144862   1.364   7.622   9.252  2.0379  0.2557 -1.1222
14396SOL    HW244863   1.263   7.511   9.233 -0.6388  2.1315  1.2700
14397SOL     OW44864   2.786   5.550   6.152  0.3050  0.1228  0.5418
14397SOL    HW144865   2.699   5.552   6.114 -0.6762 -2.7991  2.3585
14397SOL    HW244866   2.841   5.509   6.085 -0.2259 -0.1478  0.2739
14398SOL     OW44867   3.388   8.120   2.673 -0.2526 -0.3594 -0.6545
14398SOL    HW144868   3.449   8.090   2.605 -0.2168 -0.3574 -0.6234
14398SOL    HW244869   3.367   8.210   2.648 -0.2799 -0.3759 -0.6919
14399SOL     OW44870   7.349   7.152   3.166  0.0933 -0.0815 -0.2781
14399SOL    HW144871   7.368   7.200   3.086  0.1625 -1.4133 -1.0875
14399SOL    HW244872   7.410   7.078   3.164 -1.3210 -1.2845 -0.0506
14400SOL     OW44873   1.546   0.801   7.875  0.5766 -0.1631 -0.3350
14400SOL    HW144874   1.635   0.830   7.898 -0.9333  2.5068  2.8880
14400SOL    HW244875   1.514   0.757   7.953 -1.0719 -0.8780 -1.3703
14401SOL     OW44876   8.866   8.511   1.021 -0.0978  0.2777  0.3765
14401SOL    HW144877   8.898   8.502   1.111 -1.7112  0.3730  0.9848
14401SOL    HW244878   8.839   8.603   1.014  1.2732  0.6335 -0.6611
14402SOL     OW44879   1.700   8.415   6.452 -0.2058 -0.1508 -0.1199
14402SOL    HW144880   1.675   8.374   6.370 -0.3099 -0.6999  0.1816
14402SOL    HW244881   1.795   8.405   6.456 -0.0599  0.8400 -0.6786
14403SOL     OW44882   8.160   3.828   3.770 -0.0827  0.3886 -0.2136
14403SOL    HW144883   8.173   3.765   3.699 -2.1781  1.4828 -1.6462
14403SOL    HW244884   8.109   3.780   3.835  0.2224 -0.0497 -0.2907
14404SOL     OW44885   7.808   5.263   6.532  0.1354 -0.7025  0.1238
14404SOL    HW144886   7.877   5.324   6.558 -0.7108  0.4460 -0.2733
14404SOL    HW244887   7.797   5.278   6.438 -0.3539 -1.1892  0.1003
14405SOL     OW44888   5.736   5.779   7.737 -0.4970  0.5992  0.1450
14405SOL    HW144889   5.657   5.728   7.725  0.0986 -0.4563  0.5153
14405SOL    HW244890   5.707   5.870   7.737 -1.5958  0.2629 -0.4528
14406SOL     OW44891   4.521   1.475   1.673  0.4587  0.1458  0.5768
14406SOL    HW144892   4.492   1.527   1.747  1.8889 -0.5426  1.6675
14406SOL    HW244893   4.574   1.406   1.711  0.4706 -0.7822 -1.0247
14407SOL     OW44894   6.754   7.060   1.450  0.4752 -1.0086 -0.4052
14407SOL    HW144895   6.691   7.122   1.413 -0.0857 -1.0735  0.4196
14407SOL    HW244896   6.701   6.997   1.499  1.2468 -0.1981  1.5848
14408SOL     OW44897   4.452   8.150   3.359  0.2595 -0.2451  0.3296
14408SOL    HW144898   4.485   8.060   3.366  0.8012  0.0573  2.0744
14408SOL    HW244899   4.520   8.204   3.398 -0.4296  0.8577  0.0510
14409SOL     OW44900   3.860   0.562   5.509  0.1992  0.2059  0.0430
14409SOL    HW144901   3.817   0.622   5.447 -0.0010 -1.1072 -1.1430
14409SOL    HW244902   3.789   0.530   5.564  0.0705  0.0363 -0.2151
14410SOL     OW44903   3.981   3.162   5.635 -0.1942  0.3715  1.0875
14410SOL    HW144904   3.926   3.092   5.669 -1.6553  1.1455  0.4026
14410SOL    HW244905   3.999   3.218   5.710  2.1469 -1.3844  1.9640
14411SOL     OW44906   2.965   9.246   5.508  0.0213 -0.1266  0.3044
14411SOL    HW144907   3.020   9.312   5.466 -0.4677 -1.2897 -2.3117
14411SOL    HW244908   3.027   9.184   5.546  0.5050  0.0370 -0.2076
14412SOL     OW44909   3.743   1.511   1.480 -0.2229 -0.0398 -0.6031
14412SOL    HW144910   3.810   1.499   1.413  0.4297 -2.1054  0.3168
14412SOL    HW244911   3.663   1.530   1.432  0.2086 -1.5425 -1.9821
14413SOL     OW44912   5.624   6.593   4.763 -0.3724  0.2042  0.0233
14413SOL    HW144913   5.630   6.508   4.719  2.9709  0.9946 -1.3692
14413SOL    HW244914   5.634   6.572   4.856 -0.3172 -1.0093 -0.2434
14414SOL     OW44915   5.303   3.941   1.364 -0.1034 -0.1444  0.0174
14414SOL    HW144916   5.380   3.936   1.421  0.1327 -1.3762 -0.3940
14414SOL    HW244917   5.238   3.988   1.417  0.9279  0.9688  0.3460
14415SOL     OW44918   6.210   5.212   6.663  0.2379  0.7338  0.2336
14415SOL    HW144919   6.301   5.234   6.643  0.0157 -0.1564 -2.0301
14415SOL    HW244920   6.162   5.293   6.649  0.4509  0.7598 -0.3710
14416SOL     OW44921   6.114   9.553   9.293 -0.7955  0.2765 -0.2997
14416SOL    HW144922   6.168   9.475   9.297  0.2720  0.9099 -1.6546
14416SOL    HW244923   6.038   9.527   9.240 -0.3320  0.2113 -0.9394
14417SOL     OW44924   9.531   5.847   4.006  0.4004  0.1395  0.2558
14417SOL    HW144925   9.582   5.792   3.946  3.1643 -0.8298  3.2374
14417SOL    HW244926   9.582   5.926   4.017 -0.7360  0.8852  0.3442
14418SOL     OW44927   6.863   6.818   3.990  0.1083 -0.0703 -0.4548
14418SOL    HW144928   6.871   6.859   3.904 -0.8360 -0.0409 -0.5361
14418SOL    HW244929   6.785   6.764   3.983 -1.0738  1.3685  0.9466
14419SOL     OW44930   8.804   7.735   5.980 -0.2659 -0.2059  0.2576
14419SOL    HW144931   8.857   7.775   6.049  0.2441  0.4200 -0.4667
14419SOL    HW244932   8.809   7.641   5.997  0.0032 -0.0727  0.9598
14420SOL     OW44933   3.048   0.892   8.091  0.3353 -0.0383  0.2620
14420SOL    HW144934   3.082   0.812   8.052  1.2606 -0.9664  2.7705
14420SOL    HW244935   2.959   0.870   8.118  0.4915 -0.1496  0.6974
14421SOL     OW44936   5.743   2.328   1.932  0.0034 -0.0465 -0.0464
14421SOL    HW144937   5.692   2.251   1.955 -0.7584  0.5563  0.3394
14421SOL    HW244938   5.834   2.301   1.943 -0.2783 -0.5125  1.3215
14422SOL     OW44939   5.725   6.575   9.143 -0.0298 -0.0001  0.0275
14422SOL    HW144940   5.765   6.656   9.111 -0.6151  0.2223 -0.1616
14422SOL    HW244941   5.679   6.600   9.223  1.6324 -0.6049  1.2410
14423SOL     OW44942   7.381   1.290   2.450 -0.4471  0.2504 -0.3557
14423SOL    HW144943   7.383   1.341   2.369 -1.2403 -0.5359 -0.8857
14423SOL    HW244944   7.375   1.356   2.519 -0.4188  0.9086 -0.9641
14424SOL     OW44945   0.188   3.784   8.549 -0.1563  0.4348 -0.1792
14424SOL    HW144946   0.150   3.814   8.466  0.5377  1.6248 -0.0806
14424SOL    HW244947   0.127   3.717   8.580 -1.1143  0.8917 -1.0141
14425SOL     OW44948   1.058   1.970   7.109 -0.5832 -0.0863  0.1032
14425SOL    HW144949   1.152   1.984   7.121 -0.7106  1.1930 -0.2655
14425SOL    HW244950   1.050   1.878   7.085  0.6012 -0.1358 -0.1277
14426SOL     OW44951   9.091   1.342   4.857 -0.5994 -0.2523  0.5442
14426SOL    HW144952   9.177   1.359   4.817 -0.1417  0.1974  1.6765
14426SOL    HW244953   9.031   1.337   4.783 -0.0300  1.9765 -0.1675
14427SOL     OW44954   0.266   7.623   2.463 -0.3069 -0.0149  1.0796
14427SOL    HW144955   0.239   7.660   2.547  2.7223  0.3808  1.9665
14427SOL    HW244956   0.341   7.675   2.437 -0.0481 -1.3296 -0.9878
14428SOL     OW44957   5.932   8.681   5.871  0.2269 -0.0450 -0.2235
14428SOL    HW144958   5.978   8.731   5.938 -0.1276 -1.6252  1.2656
14428SOL    HW244959   5.867   8.742   5.836  0.8566  1.0077  0.3655
14429SOL     OW44960   0.849   5.963   0.940  0.0111  0.4332 -0.2356
14429SOL    HW144961   0.764   5.958   0.895 -0.7619 -0.0043  1.1822
14429SOL    HW244962   0.848   6.047   0.984  0.7190  0.8180 -0.9310
14430SOL     OW44963   6.026   1.666   6.406  0.1378 -0.4082 -0.0009
14430SOL    HW144964   5.964   1.596   6.424  2.7794 -2.7747  0.6154
14430SOL    HW244965   6.005   1.695   6.317 -0.7569 -2.3064 -0.4486
14431SOL     OW44966   2.025   7.075   3.289 -0.1944 -0.0998 -0.3458
14431SOL    HW144967   2.119   7.086   3.301  0.0192 -1.9232 -0.1364
14431SOL    HW244968   2.014   6.983   3.265 -1.9722 -0.0570  0.1705
14432SOL     OW44969   4.610   4.833   6.794 -0.4891  0.2075 -0.0808
14432SOL    HW144970   4.535   4.781   6.823 -0.1080 -0.6416 -0.5782
14432SOL    HW244971   4.573   4.919   6.771 -1.0457  0.3559  1.2697
14433SOL     OW44972   1.697   0.084   1.261  0.0634  0.0171 -0.4769
14433SOL    HW144973   1.775   0.093   1.207  0.2136 -0.9653 -0.4441
14433SOL    HW244974   1.724   0.112   1.348  0.5986 -0.9940 -0.3016
14434SOL     OW44975   3.910   4.562   8.078  0.2877  0.0678  0.0042
14434SOL    HW144976   3.975   4.616   8.123 -0.2432 -0.3100  1.2631
14434SOL    HW244977   3.870   4.622   8.015  1.6902  0.3611 -0.6440
14435SOL     OW44978   3.404   5.150   2.955 -0.2048 -0.3964 -0.0244
14435SOL    HW144979   3.484   5.124   3.001  2.1936  1.1594 -2.9392
14435SOL    HW244980   3.370   5.224   3.004  1.5842  0.4723 -0.0383
14436SOL     OW44981   1.207   2.547   7.221 -0.3907  0.1228  0.1387
14436SOL    HW144982   1.182   2.608   7.151 -0.2206 -0.4858 -0.4730
14436SOL    HW244983   1.225   2.602   7.296  2.4967  1.1266 -1.1425
14437SOL     OW44984   3.661   4.424   8.056 -0.0018 -0.6981  0.1710
14437SOL    HW144985   3.679   4.393   7.968  0.2080 -1.0918  0.3484
14437SOL    HW244986   3.693   4.513   8.058 -2.1338  0.1652 -0.8662
14438SOL     OW44987   2.047   9.552   8.965  0.4558 -0.2191  0.2079
14438SOL    HW144988   2.127   9.534   8.915  1.0358 -1.1730  1.4402
14438SOL    HW244989   2.020   9.467   8.999  0.5865  0.5055  2.2534
14439SOL     OW44990   6.706   4.960   6.044  0.8389  0.0460  0.1065
14439SOL    HW144991   6.713   4.864   6.040 -1.3067 -0.1398 -0.1811
14439SOL    HW244992   6.760   4.990   5.970  1.0783 -0.9578 -0.1548
14440SOL     OW44993   1.498   5.197   7.593 -0.1577 -0.3622 -0.1485
14440SOL    HW144994   1.420   5.145   7.611 -0.5199  0.4252  0.6272
14440SOL    HW244995   1.571   5.141   7.619 -0.4816 -0.8744 -0.3183
14441SOL     OW44996   0.018   3.517   4.074 -0.1542 -0.4179  0.1683
14441SOL    HW144997  -0.013   3.538   4.162  1.2788  1.2133  0.3275
14441SOL    HW244998   0.009   3.599   4.025  0.3888 -0.9276 -0.8199
14442SOL     OW44999   1.098   8.260   4.864  0.2563  0.2785  0.0864
14442SOL    HW145000   1.148   8.333   4.899 -2.0981  2.7519 -1.3088
14442SOL    HW245001   1.008   8.276   4.892 -0.5990 -1.2033 -1.5589
14443SOL     OW45002   2.692   8.061   5.551 -0.6338 -0.3821  0.9977
14443SOL    HW145003   2.632   8.136   5.556 -1.1940 -0.8006  0.6221
14443SOL    HW245004   2.657   8.007   5.481  0.5294 -0.3458  0.3794
14444SOL     OW45005   3.586   3.036   3.047  0.2385 -0.3498  0.0641
14444SOL    HW145006   3.515   3.026   3.110  0.7161  1.1683  0.8918
14444SOL    HW245007   3.665   3.010   3.094  0.7866  2.0595  0.6139
14445SOL     OW45008   1.565   5.425   4.856 -0.5924  0.0927 -0.2490
14445SOL    HW145009   1.603   5.437   4.769 -0.6993 -0.6284 -0.4007
14445SOL    HW245010   1.472   5.412   4.841 -0.4675 -1.0756 -0.1278
14446SOL     OW45011   7.662   5.232   8.269  0.1480  0.8007  0.2465
14446SOL    HW145012   7.680   5.326   8.277 -1.4672  1.3709 -1.9542
14446SOL    HW245013   7.654   5.217   8.175  0.5526 -1.6118  0.5352
14447SOL     OW45014   2.241   4.214   3.993  0.2736  0.4320  0.4212
14447SOL    HW145015   2.316   4.189   3.939 -1.1777 -0.4057 -1.2665
14447SOL    HW245016   2.248   4.157   4.070  0.1761 -1.2249 -0.7418
14448SOL     OW45017   8.263   4.696   1.613 -0.0027  0.4785  0.0084
14448SOL    HW145018   8.190   4.634   1.615  0.0879  0.3780  1.3768
14448SOL    HW245019   8.339   4.643   1.589 -0.0730  0.2094  0.3598
14449SOL     OW45020   7.652   9.287   9.498  0.6318  0.2837 -0.6159
14449SOL    HW145021   7.658   9.296   9.593  0.9406  0.3734 -0.6426
14449SOL    HW245022   7.574   9.338   9.474  0.4361  0.0871 -0.3890
14450SOL     OW45023   3.289   6.991   6.618 -0.5257  0.1740  0.1015
14450SOL    HW145024   3.362   7.047   6.644 -0.2051 -0.4518  0.5648
14450SOL    HW245025   3.276   7.010   6.525  0.2123  0.3016  0.0221
14451SOL     OW45026   2.525   5.335   8.969  0.4909 -0.2610 -0.0038
14451SOL    HW145027   2.518   5.375   8.883  0.7094  1.6472  0.8124
14451SOL    HW245028   2.616   5.349   8.995  0.0562  0.6286  1.1580
14452SOL     OW45029   4.158   0.201   5.875  0.2433  0.2616 -0.5506
14452SOL    HW145030   4.235   0.161   5.834  0.1198 -0.4053 -0.1613
14452SOL    HW245031   4.193   0.262   5.939  0.4455  0.2680 -0.6670
14453SOL     OW45032   2.983   2.903   0.340  0.1110 -0.4051  0.1188
14453SOL    HW145033   2.937   2.874   0.261  0.1620  0.0231 -0.0747
14453SOL    HW245034   2.944   2.853   0.411  0.1697 -0.9104 -0.1977
14454SOL     OW45035   5.297   2.834   7.428  0.2550 -0.1544  0.1150
14454SOL    HW145036   5.373   2.878   7.390 -0.0770  0.3669  0.0484
14454SOL    HW245037   5.227   2.847   7.365 -0.5446  1.5035  1.2843
14455SOL     OW45038   2.374   5.984   3.327 -0.0507  0.3653 -0.1377
14455SOL    HW145039   2.376   6.074   3.294 -0.3617  0.4944  0.1840
14455SOL    HW245040   2.389   5.930   3.250  1.0811  0.7171 -0.1873
14456SOL     OW45041   9.048   4.625   6.244 -0.7214  0.4145  0.0281
14456SOL    HW145042   9.084   4.687   6.307 -0.3554 -0.3941  0.6335
14456SOL    HW245043   8.959   4.607   6.276 -0.3734 -0.3575  0.6121
14457SOL     OW45044   9.521   8.066   1.571  0.1697 -0.3084  0.1140
14457SOL    HW145045   9.458   8.011   1.526  0.9359 -0.4210 -0.8570
14457SOL    HW245046   9.600   8.013   1.578 -0.0915 -0.5210  2.1728
14458SOL     OW45047   8.067   5.534   0.287 -0.2383  0.2990 -0.1871
14458SOL    HW145048   7.996   5.572   0.340  0.6580  1.7926 -0.0187
14458SOL    HW245049   8.104   5.466   0.343  1.5865  2.7451  1.8141
14459SOL     OW45050   7.015   3.788   5.220 -0.5439 -0.3103 -0.4670
14459SOL    HW145051   7.040   3.696   5.225 -2.8376 -0.9609  0.1529
14459SOL    HW245052   7.027   3.811   5.128 -0.0795 -1.2653 -0.6573
14460SOL     OW45053   4.970   6.282   6.834 -0.5020  0.3639  0.0362
14460SOL    HW145054   4.999   6.337   6.762  0.0222  1.0974  0.7799
14460SOL    HW245055   5.043   6.284   6.896 -0.8160 -0.5007  0.4477
14461SOL     OW45056   1.370   2.571   7.741 -0.0700 -0.3751 -0.2262
14461SOL    HW145057   1.393   2.481   7.721 -0.0795 -0.3501 -0.3534
14461SOL    HW245058   1.454   2.615   7.754 -0.0582 -0.3549 -0.3739
14462SOL     OW45059   1.558   3.978   0.106 -0.5724  0.3535  0.4836
14462SOL    HW145060   1.463   3.975   0.116 -0.5620  1.4872  0.9534
14462SOL    HW245061   1.578   4.069   0.086  0.5097  0.3357  1.3612
14463SOL     OW45062   3.814   2.213   6.748 -0.2126 -0.0379 -0.7565
14463SOL    HW145063   3.885   2.191   6.809 -1.3775  2.4949  1.8062
14463SOL    HW245064   3.736   2.174   6.788 -0.8151  0.5587 -1.3401
14464SOL     OW45065   5.181   8.308   9.102  0.0768 -0.0032 -0.2184
14464SOL    HW145066   5.121   8.240   9.131 -0.6971  1.7205  2.5980
14464SOL    HW245067   5.250   8.260   9.056 -2.0519 -2.3014 -1.2463
14465SOL     OW45068   3.398   8.702   4.879 -0.1802 -0.2416 -0.3235
14465SOL    HW145069   3.334   8.760   4.921  1.7466  1.4586  0.4248
14465SOL    HW245070   3.436   8.755   4.809  2.4210 -0.0849  1.0643
14466SOL     OW45071   4.309   2.386   1.470  0.3131 -0.4682  0.3917
14466SOL    HW145072   4.224   2.404   1.508  0.3062 -1.7103  1.0227
14466SOL    HW245073   4.293   2.314   1.409  0.3417  1.3987 -1.9691
14467SOL     OW45074   8.659   4.230   3.685  0.5422 -0.7214  0.5955
14467SOL    HW145075   8.688   4.154   3.736 -1.0097 -1.4021  0.5185
14467SOL    HW245076   8.564   4.221   3.681  0.4604  0.4415 -0.6804
14468SOL     OW45077   3.599   2.677   7.441 -0.5123 -0.5809  0.4127
14468SOL    HW145078   3.555   2.699   7.523 -0.1140 -0.6985  0.6571
14468SOL    HW245079   3.629   2.761   7.407  1.3369 -0.7467  1.5311
14469SOL     OW45080   1.923   2.618   3.170  0.0039  0.6442  0.8935
14469SOL    HW145081   1.918   2.688   3.104  0.0722 -0.4249 -0.2815
14469SOL    HW245082   1.986   2.556   3.134 -0.8637 -0.5570  1.3921
14470SOL     OW45083   0.149   3.304   3.264 -0.4046 -0.3546  0.0722
14470SOL    HW145084   0.145   3.363   3.340 -0.2233 -1.4517  0.9531
14470SOL    HW245085   0.182   3.221   3.299  1.4566 -0.3702 -1.5470
14471SOL     OW45086   5.971   0.528   3.292 -0.2483 -0.2107 -0.0008
14471SOL    HW145087   6.024   0.550   3.215  0.1405  0.2892  0.3951
14471SOL    HW245088   5.882   0.521   3.259  0.0003 -0.5942 -0.6012
14472SOL     OW45089   1.384   7.467   4.432 -0.2969  0.1559  0.1780
14472SOL    HW145090   1.342   7.452   4.517  0.9689  0.0080  0.8099
14472SOL    HW245091   1.361   7.557   4.410 -0.1830  0.3911  0.9681
14473SOL     OW45092   5.129   7.246   5.322 -0.5043  0.2061  0.5864
14473SOL    HW145093   5.131   7.198   5.239 -0.4293 -0.3483  0.9079
14473SOL    HW245094   5.220   7.243   5.353 -0.6682 -0.1854  1.0307
14474SOL     OW45095   0.622   1.720   6.506 -0.2279 -0.5082  0.4621
14474SOL    HW145096   0.602   1.786   6.571 -0.2751 -0.2653  0.2040
14474SOL    HW245097   0.658   1.769   6.432 -0.7214 -0.7221  0.0776
14475SOL     OW45098   8.802   2.968   6.558  0.0299  0.6994  0.1769
14475SOL    HW145099   8.823   3.060   6.570 -0.4965  1.1256 -1.8887
14475SOL    HW245100   8.821   2.950   6.466 -1.1211 -0.9038  0.2078
14476SOL     OW45101   6.232   9.460   9.606 -0.0512  0.4251 -0.2344
14476SOL    HW145102   6.148   9.499   9.584  1.1961  1.9989 -2.7942
14476SOL    HW245103   6.271   9.440   9.521  1.2888 -2.3107  0.9195
14477SOL     OW45104   0.183   7.679   6.674  0.4571 -0.3021  0.0857
14477SOL    HW145105   0.213   7.669   6.764 -0.4854 -2.5912  0.2228
14477SOL    HW245106   0.221   7.761   6.645 -0.5181  1.3565  3.0695
14478SOL     OW45107   5.367   8.011   5.872  0.7929  0.0032 -0.1899
14478SOL    HW145108   5.419   7.975   5.800  0.6246 -0.0589 -0.2807
14478SOL    HW245109   5.354   7.936   5.931  0.8472  0.0312 -0.1419
14479SOL     OW45110   2.198   2.723   7.947 -0.3195 -0.3183  0.2368
14479SOL    HW145111   2.160   2.745   8.032 -1.0783 -0.3592 -0.0921
14479SOL    HW245112   2.278   2.675   7.969 -0.3358 -0.0377  0.9307
14480SOL     OW45113   1.366   0.957   2.890 -0.3774  0.3354 -0.2610
14480SOL    HW145114   1.336   0.867   2.874  0.4171  0.1560 -0.7611
14480SOL    HW245115   1.343   0.973   2.982 -1.4015 -0.0286 -0.4421
14481SOL     OW45116   5.165   5.400   4.859  0.2773 -0.4868  0.2283
14481SOL    HW145117   5.208   5.362   4.936  1.4500  2.3362  1.0976
14481SOL    HW245118   5.193   5.344   4.786 -0.2169 -2.7627  1.6928
14482SOL     OW45119   2.024   5.042   5.818 -0.4257  0.3391 -0.2089
14482SOL    HW145120   2.091   5.020   5.754 -1.4730  1.0278 -1.6095
14482SOL    HW245121   1.948   4.990   5.792 -0.8913  0.6899  0.4210
14483SOL     OW45122   9.660   4.701   9.669  0.0706  0.0296 -0.0016
14483SOL    HW145123   9.567   4.714   9.687  0.4836 -0.0610  2.5590
14483SOL    HW245124   9.672   4.606   9.668  0.3348  0.0308  1.1447
14484SOL     OW45125   1.193   0.647   1.838  0.1938 -0.1540  0.1389
14484SOL    HW145126   1.182   0.554   1.856  1.0486 -0.3442 -0.2749
14484SOL    HW245127   1.125   0.690   1.890 -1.4420 -1.1261 -1.1303
14485SOL     OW45128   4.018   9.482   2.590  0.4443  0.0156 -0.3361
14485SOL    HW145129   3.986   9.524   2.510  0.0011  1.4661  0.5725
14485SOL    HW245130   4.066   9.551   2.636  0.5160 -0.7340  0.7450
14486SOL     OW45131   6.176   4.186   5.624 -0.5824  0.0022  0.8143
14486SOL    HW145132   6.143   4.269   5.590  0.4052  0.0563 -0.0448
14486SOL    HW245133   6.264   4.177   5.587  0.0231 -0.5836  2.3041
14487SOL     OW45134   9.537   9.263   4.337  0.5793  0.3113 -0.3566
14487SOL    HW145135   9.470   9.305   4.284  1.1859  0.5156 -0.9864
14487SOL    HW245136   9.543   9.174   4.301  0.5944  0.2726 -0.2586
14488SOL     OW45137   6.624   0.905   9.327  0.2186 -0.0246 -0.6113
14488SOL    HW145138   6.690   0.899   9.257 -1.3491 -1.8960 -2.0372
14488SOL    HW245139   6.654   0.842   9.393  1.3712  1.2937  0.1787
14489SOL     OW45140   1.546   2.158   6.726 -0.0873 -0.4924  0.1864
14489SOL    HW145141   1.597   2.080   6.749  2.1946  0.7563 -0.3740
14489SOL    HW245142   1.510   2.188   6.809  2.1385 -0.0683  1.0602
14490SOL     OW45143   4.499   4.749   1.391 -0.2856  0.2369  0.3753
14490SOL    HW145144   4.549   4.820   1.353  1.1204 -0.6643  0.4710
14490SOL    HW245145   4.467   4.783   1.475  2.0704  0.1471  1.3832
14491SOL     OW45146   7.407   5.325   2.746 -0.0776  0.3974 -0.3942
14491SOL    HW145147   7.400   5.301   2.653 -0.2566  1.0480 -0.5580
14491SOL    HW245148   7.486   5.379   2.750  0.7436 -0.7973  0.1013
14492SOL     OW45149   5.972   2.298   6.966 -0.2217 -0.6403  0.1715
14492SOL    HW145150   5.936   2.373   6.919 -0.0036 -0.4938  0.2362
14492SOL    HW245151   5.908   2.279   7.034  0.1437  0.0506  0.7217
14493SOL     OW45152   6.786   7.072   6.469  0.0324 -0.2400 -0.0584
14493SOL    HW145153   6.868   7.042   6.429 -0.5791 -0.9289 -0.8262
14493SOL    HW245154   6.773   7.160   6.434 -0.1579 -0.5853 -0.8714
14494SOL     OW45155   2.954   4.837   9.089  0.7056 -0.2412 -0.4152
14494SOL    HW145156   2.946   4.791   9.006  0.1032 -1.9060  0.5256
14494SOL    HW245157   2.865   4.868   9.107  0.0899 -2.5840  1.0431
14495SOL     OW45158   7.073   2.768   7.036 -0.1283  0.6816  0.0355
14495SOL    HW145159   7.052   2.788   7.127 -1.0827 -0.5190  0.1010
14495SOL    HW245160   6.989   2.743   6.997  0.6191 -0.9844 -0.5892
14496SOL     OW45161   3.179   1.123   8.046  0.0172 -0.1401  0.2810
14496SOL    HW145162   3.144   1.034   8.058  0.9884 -0.6110 -0.2253
14496SOL    HW245163   3.190   1.132   7.952  2.1351 -0.3900  0.4504
14497SOL     OW45164   8.649   9.101   7.376 -0.5304 -0.8303 -0.5846
14497SOL    HW145165   8.590   9.123   7.449  0.6572 -1.4090  0.5796
14497SOL    HW245166   8.732   9.142   7.399  0.0311 -1.5285 -1.3292
14498SOL     OW45167   4.645   6.986   7.438 -0.2210 -0.7836  0.0567
14498SOL    HW145168   4.705   6.965   7.510 -0.1441 -0.6206  0.0409
14498SOL    HW245169   4.681   7.066   7.399 -1.3963  0.3311  1.1559
14499SOL     OW45170   3.023   8.619   6.672 -0.2335  0.4872  0.0725
14499SOL    HW145171   3.020   8.703   6.718 -1.0343 -0.3769  1.6766
14499SOL    HW245172   3.027   8.643   6.579 -0.2333  2.2886  0.5030
14500SOL     OW45173   7.259   5.677   6.220 -0.2043 -0.0864 -0.0972
14500SOL    HW145174   7.259   5.582   6.211 -0.1017 -0.0472 -0.5787
14500SOL    HW245175   7.209   5.708   6.144  0.9536  0.2993 -0.7278
14501SOL     OW45176   4.562   4.134   5.481 -0.4947  0.2697  0.3063
14501SOL    HW145177   4.633   4.139   5.546  1.0555  1.3138 -1.3751
14501SOL    HW245178   4.571   4.214   5.430  0.6743 -1.9936 -3.4411
14502SOL     OW45179   9.036   7.273   4.389 -0.5919 -0.6233 -0.0808
14502SOL    HW145180   9.040   7.305   4.479 -1.1807 -1.7490  0.3737
14502SOL    HW245181   8.958   7.217   4.387  0.7704 -2.6293 -0.5939
14503SOL     OW45182   1.739   6.126   0.627 -0.4431 -0.2053 -0.5755
14503SOL    HW145183   1.765   6.203   0.576 -1.0214  0.4627  0.1100
14503SOL    HW245184   1.808   6.063   0.612  2.1785  1.8165  1.9112
14504SOL     OW45185   4.545   3.649   2.056  0.5020  0.1045 -0.5435
14504SOL    HW145186   4.514   3.568   2.014 -0.3326  1.2347 -2.2035
14504SOL    HW245187   4.468   3.683   2.102  0.5936  0.4216 -0.6240
14505SOL     OW45188   4.874   1.921   0.691  0.2928  0.7408  0.1332
14505SOL    HW145189   4.803   1.866   0.725  0.1314 -0.3080 -1.7663
14505SOL    HW245190   4.833   2.005   0.671 -0.7521 -0.2219 -2.0410
14506SOL     OW45191   0.166   4.621   8.846  0.2870  0.0500 -0.3825
14506SOL    HW145192   0.164   4.604   8.752  0.8207 -0.4865 -0.3097
14506SOL    HW245193   0.093   4.681   8.862  0.2684  0.2430 -1.1548
14507SOL     OW45194   7.334   2.416   4.538 -0.7510  0.8937  0.0570
14507SOL    HW145195   7.394   2.355   4.496 -0.8437  0.9792 -0.2061
14507SOL    HW245196   7.276   2.361   4.591 -1.3492  0.6625 -0.8113
14508SOL     OW45197   4.323   1.993   6.532  0.9078 -0.0029  0.5351
14508SOL    HW145198   4.265   1.921   6.555 -1.4348  1.3628 -0.6463
14508SOL    HW245199   4.278   2.071   6.564  0.8229  1.3327 -2.4802
14509SOL     OW45200   8.608   8.606   2.478 -0.2065  0.4858 -0.1188
14509SOL    HW145201   8.603   8.525   2.428 -1.0510  0.6627 -0.3393
14509SOL    HW245202   8.653   8.667   2.419  0.2568  0.2394 -0.0264
14510SOL     OW45203   1.736   9.045   9.138  0.0030  0.0909 -0.0254
14510SOL    HW145204   1.788   8.965   9.149 -1.3482 -0.8175  0.0804
14510SOL    HW245205   1.740   9.063   9.044 -0.3689 -0.6077 -0.1826
14511SOL     OW45206   9.048   6.902   0.081  0.4926 -0.5304 -0.2859
14511SOL    HW145207   8.982   6.834   0.089  0.5292 -0.5689 -0.3068
14511SOL    HW245208   8.999   6.981   0.056  0.0482  0.1748  2.4573
14512SOL     OW45209   6.268   4.894   1.220  0.7583 -0.1857 -0.3212
14512SOL    HW145210   6.223   4.811   1.200  0.7696 -0.1524 -0.4847
14512SOL    HW245211   6.199   4.960   1.214 -0.0226 -0.5215  2.9478
14513SOL     OW45212   7.950   5.580   9.298  0.0132  0.7577  0.1723
14513SOL    HW145213   7.922   5.533   9.376 -0.2465  1.7229  0.6698
14513SOL    HW245214   7.895   5.544   9.228  0.5320 -0.4081  0.3270
14514SOL     OW45215   7.209   9.077   4.446  0.5165 -0.1663  0.2842
14514SOL    HW145216   7.136   9.128   4.480  0.4147  0.3117 -0.6115
14514SOL    HW245217   7.282   9.139   4.443  0.3658 -0.0096 -0.9091
14515SOL     OW45218   1.172   7.392   7.425  0.0306  0.1972 -0.9388
14515SOL    HW145219   1.187   7.486   7.421 -0.4119  0.2993 -0.2884
14515SOL    HW245220   1.153   7.374   7.517  0.7851 -0.6343 -0.9299
14516SOL     OW45221   2.195   1.886   4.881 -0.0330 -0.1371 -0.1092
14516SOL    HW145222   2.224   1.974   4.858  1.1311 -0.2521  0.8236
14516SOL    HW245223   2.117   1.900   4.935  0.8426  0.4107  1.0701
14517SOL     OW45224   6.654   8.686   3.489 -0.7323 -0.3506  0.3139
14517SOL    HW145225   6.706   8.766   3.484 -0.8254 -0.1638  1.8222
14517SOL    HW245226   6.701   8.623   3.433  0.7949 -0.0122  1.1490
14518SOL     OW45227   3.279   2.101   2.182  0.1077  0.7461  0.0397
14518SOL    HW145228   3.285   2.081   2.276  0.9332  3.1833  0.5840
14518SOL    HW245229   3.187   2.086   2.160  0.3671 -2.2267  0.5734
14519SOL     OW45230   4.953   1.279   8.534  0.0382  0.1080  0.2894
14519SOL    HW145231   5.027   1.323   8.492  0.4472  0.0195  0.9009
14519SOL    HW245232   4.916   1.344   8.593  0.5354 -0.2959  1.0648
14520SOL     OW45233   7.791   0.202   0.667 -0.2180 -0.4332  0.3495
14520SOL    HW145234   7.801   0.128   0.728  0.5939 -0.7792 -0.1909
14520SOL    HW245235   7.880   0.223   0.639 -0.4096  0.9714  0.7270
14521SOL     OW45236   0.036   5.549   2.370 -0.2078 -0.4299  0.0650
14521SOL    HW145237  -0.049   5.594   2.367 -0.8866 -1.5545  1.2837
14521SOL    HW245238   0.077   5.581   2.450  1.0102  0.8680 -1.0148
14522SOL     OW45239   4.155   7.588   4.769 -0.6762  0.3336  0.0400
14522SOL    HW145240   4.156   7.538   4.850  1.1543  1.0187  0.4745
14522SOL    HW245241   4.209   7.538   4.708  0.3010  1.2211  0.1515
14523SOL     OW45242   9.205   3.707   6.850 -0.5604 -0.1298 -0.1384
14523SOL    HW145243   9.138   3.677   6.788 -1.0440 -2.1382  1.2710
14523SOL    HW245244   9.190   3.801   6.857 -1.3378 -0.0556 -2.0350
14524SOL     OW45245   9.435   9.475   7.039  0.1231  0.0246 -0.0671
14524SOL    HW145246   9.510   9.431   6.999  1.5578  2.8577 -0.7111
14524SOL    HW245247   9.361   9.452   6.982  0.5903 -2.0692  0.0675
14525SOL     OW45248   8.140   1.150   9.615 -0.0175  0.3233 -0.2180
14525SOL    HW145249   8.124   1.115   9.702  0.9757  0.2454 -0.0471
14525SOL    HW245250   8.223   1.198   9.624  2.1931 -2.7997 -1.9385
14526SOL     OW45251   6.550   7.735   1.258  0.1880 -0.2480  0.1252
14526SOL    HW145252   6.523   7.825   1.276 -0.0866 -0.0498 -1.2124
14526SOL    HW245253   6.476   7.681   1.289 -0.5880  0.1282 -1.0342
14527SOL     OW45254   5.055   3.866   1.569  0.2841  0.2325  0.0423
14527SOL    HW145255   5.067   3.959   1.587  0.1276 -0.1822  2.7127
14527SOL    HW245256   4.971   3.861   1.524 -0.0235  1.3368  0.4570
14528SOL     OW45257   7.724   4.929   1.876 -0.0147  0.3094  0.8023
14528SOL    HW145258   7.784   4.868   1.835  0.6468  2.2240 -1.2309
14528SOL    HW245259   7.730   4.908   1.970  1.6341 -1.3995  0.3866
14529SOL     OW45260   7.356   5.616   5.499 -0.0156  0.1774  0.2000
14529SOL    HW145261   7.362   5.586   5.590  0.9951  2.3214  0.8902
14529SOL    HW245262   7.265   5.646   5.490  0.5464  2.3771  1.3505
14530SOL     OW45263   0.738   8.114   9.612 -0.4182  0.0714 -1.1893
14530SOL    HW145264   0.674   8.073   9.670  0.2724  0.3894 -0.1930
14530SOL    HW245265   0.684   8.152   9.542 -1.5249  1.7835  0.4771
14531SOL     OW45266   1.881   0.151   8.301 -0.0801  0.1257  0.0960
14531SOL    HW145267   1.916   0.202   8.374  0.7436 -0.9166  0.4564
14531SOL    HW245268   1.955   0.142   8.241 -0.4020 -0.1000 -0.2698
14532SOL     OW45269   1.416   4.660   3.151 -0.1939 -0.6026  0.1589
14532SOL    HW145270   1.440   4.576   3.190 -0.2227 -0.7040 -0.0420
14532SOL    HW245271   1.321   4.666   3.162 -0.3863 -1.2089 -1.0171
14533SOL     OW45272   3.892   7.991   7.588 -0.0124 -0.7775 -1.1446
14533SOL    HW145273   3.897   8.071   7.640 -0.1168 -1.4119 -0.1317
14533SOL    HW245274   3.817   8.004   7.531 -0.3465 -0.3672 -0.6151
14534SOL     OW45275   4.970   6.582   7.952 -0.2762 -0.3279  0.3463
14534SOL    HW145276   5.062   6.580   7.925  0.2131 -1.7142  1.9698
14534SOL    HW245277   4.945   6.490   7.958 -1.5536  0.0284  0.6678
14535SOL     OW45278   1.582   3.606   2.287  0.4767  0.2469 -0.5489
14535SOL    HW145279   1.508   3.655   2.324  1.6317  1.7865 -0.1702
14535SOL    HW245280   1.618   3.664   2.220  1.6056 -0.2897 -0.4346
14536SOL     OW45281   6.432   8.402   5.259  0.0991  0.1961  0.2021
14536SOL    HW145282   6.458   8.357   5.339  0.1752  1.4883  0.9326
14536SOL    HW245283   6.484   8.482   5.259  0.5436 -0.0491 -1.4648
14537SOL     OW45284   2.819   5.726   2.496 -0.0573  0.7544  0.1247
14537SOL    HW145285   2.901   5.707   2.451 -0.5779 -0.4367 -0.3681
14537SOL    HW245286   2.841   5.798   2.556  1.9508 -1.0162  1.6931
14538SOL     OW45287   6.763   1.547   8.048 -0.2693  0.4493  0.1280
14538SOL    HW145288   6.730   1.554   7.958  0.0272 -1.5076 -0.1775
14538SOL    HW245289   6.686   1.521   8.099  0.2001 -1.6729 -0.1618
14539SOL     OW45290   0.026   1.843   0.643 -0.0775  0.3281  0.5075
14539SOL    HW145291  -0.018   1.926   0.662  0.6694  0.7923  0.2506
14539SOL    HW245292  -0.033   1.798   0.582  0.5498  1.6735 -1.1720
14540SOL     OW45293   0.016   1.249   5.153 -0.1845  0.1335  0.5357
14540SOL    HW145294   0.106   1.238   5.123 -0.1439 -0.7011  0.9216
14540SOL    HW245295   0.009   1.341   5.178  0.2214  0.4683 -0.5731
14541SOL     OW45296   5.597   1.877   1.905 -0.1651  0.2122 -0.6488
14541SOL    HW145297   5.690   1.896   1.895 -0.0692 -0.5603 -1.3305
14541SOL    HW245298   5.556   1.919   1.830 -0.6052  1.9585  0.5007
14542SOL     OW45299   4.398   8.433   7.732 -0.2628 -0.2993 -0.0357
14542SOL    HW145300   4.481   8.467   7.699 -0.2197 -0.7415 -0.4001
14542SOL    HW245301   4.358   8.390   7.656 -1.2489  0.6886 -0.0946
14543SOL     OW45302   7.084   2.138   8.130 -0.0310 -0.2047  0.2062
14543SOL    HW145303   7.022   2.152   8.059 -1.0239 -0.2617  1.0377
14543SOL    HW245304   7.075   2.216   8.185  0.7032 -0.1742  0.2891
14544SOL     OW45305   8.519   8.054   5.618  0.3037 -0.1045  0.3816
14544SOL    HW145306   8.524   8.128   5.557  1.8721 -0.8034 -0.4089
14544SOL    HW245307   8.447   8.075   5.676 -2.4294 -0.1003 -2.6814
14545SOL     OW45308   8.634   8.204   0.671 -0.0867  0.6222 -0.1933
14545SOL    HW145309   8.603   8.281   0.718  0.3307 -0.2551  1.6677
14545SOL    HW245310   8.591   8.130   0.716  1.3103 -0.3444 -0.3809
14546SOL     OW45311   8.797   7.020   1.728 -0.0828 -0.1943  0.0146
14546SOL    HW145312   8.810   7.107   1.691  0.4905 -0.8363 -1.3837
14546SOL    HW245313   8.722   6.984   1.680  0.1874 -0.7670  0.0111
14547SOL     OW45314   6.907   6.156   3.503  0.3358 -0.0572 -0.3698
14547SOL    HW145315   6.878   6.212   3.431 -0.2015 -0.9332 -0.8404
14547SOL    HW245316   6.955   6.085   3.460  1.7631  0.4641  0.2773
14548SOL     OW45317   9.459   2.908   8.162  0.3054 -0.1016  0.0995
14548SOL    HW145318   9.518   2.977   8.132  0.7835 -0.6877 -0.3394
14548SOL    HW245319   9.515   2.830   8.171 -0.2705 -0.4975  0.3267
14549SOL     OW45320   6.790   7.021   8.460 -0.2097  0.1921 -0.0431
14549SOL    HW145321   6.738   6.946   8.490  0.7912 -0.2452  0.6713
14549SOL    HW245322   6.731   7.071   8.406 -0.9278 -1.1129 -0.5164
14550SOL     OW45323   9.232   0.875   0.551 -0.3692 -0.1623 -0.3643
14550SOL    HW145324   9.141   0.871   0.520 -0.5446 -1.8576  0.2289
14550SOL    HW245325   9.269   0.952   0.508 -2.7192  1.9772  1.1801
14551SOL     OW45326   1.723   1.327   5.732 -0.2242 -0.0305 -0.0159
14551SOL    HW145327   1.767   1.347   5.649  0.7169  0.5686  0.6072
14551SOL    HW245328   1.654   1.393   5.739 -0.2088  0.0099 -0.2544
14552SOL     OW45329   1.742   9.115   0.929  0.2506  0.2061 -0.2272
14552SOL    HW145330   1.804   9.044   0.941  1.2935  1.0170 -0.6561
14552SOL    HW245331   1.789   9.194   0.955 -0.8076  0.7751  0.0365
14553SOL     OW45332   4.557   5.909   0.802  0.2505  0.0366 -0.2862
14553SOL    HW145333   4.530   6.001   0.798 -0.6630 -0.1265  1.2090
14553SOL    HW245334   4.476   5.861   0.817  0.5834 -1.1378 -1.9586
14554SOL     OW45335   0.916   7.714   0.915  0.2824  0.4391 -0.1871
14554SOL    HW145336   0.849   7.772   0.880  2.3537  2.6033 -0.8145
14554SOL    HW245337   0.912   7.727   1.010 -0.6361 -0.0051 -0.1572
14555SOL     OW45338   2.469   2.009   6.194 -0.4137 -0.3324 -0.6953
14555SOL    HW145339   2.493   1.985   6.283 -2.0702  1.5596  0.3371
14555SOL    HW245340   2.526   2.083   6.173 -2.2983  1.4669  0.1875
14556SOL     OW45341   1.197   1.051   5.576 -0.0636  0.9047  0.2747
14556SOL    HW145342   1.183   0.966   5.617 -0.8982  1.7916  1.8963
14556SOL    HW245343   1.120   1.103   5.600  0.5183  2.1817 -0.5135
14557SOL     OW45344   5.333   6.649   2.999 -0.1358 -0.6463  0.1687
14557SOL    HW145345   5.411   6.675   2.949  0.7719 -0.7288  1.4615
14557SOL    HW245346   5.322   6.556   2.980  0.4102 -0.7566  0.3568
14558SOL     OW45347   1.337   4.812   7.151 -0.2779  0.1999 -0.1872
14558SOL    HW145348   1.418   4.822   7.100 -0.6900  0.1839 -0.8521
14558SOL    HW245349   1.332   4.719   7.171  0.5439  0.3846  0.9977
14559SOL     OW45350   4.357   0.544   4.028 -0.3385 -0.2943  0.2109
14559SOL    HW145351   4.442   0.560   3.988 -0.3915  0.2169  0.3027
14559SOL    HW245352   4.340   0.451   4.012  0.8593 -0.7362  1.3507
14560SOL     OW45353   5.158   7.951   1.158 -0.4288 -0.4028 -0.2357
14560SOL    HW145354   5.099   8.022   1.134  0.6383  0.2311 -1.0914
14560SOL    HW245355   5.112   7.871   1.132 -1.6928 -0.0621  0.8304
14561SOL     OW45356   8.101   7.186   6.753 -0.2791  0.3608 -0.3122
14561SOL    HW145357   8.036   7.116   6.744  1.1549 -0.9571 -0.9580
14561SOL    HW245358   8.171   7.148   6.805 -0.6740  2.2822  1.7601
14562SOL     OW45359   3.617   2.098   1.929 -0.2342  0.4065 -0.1475
14562SOL    HW145360   3.651   2.024   1.880  0.7129  0.6443  0.1450
14562SOL    HW245361   3.544   2.131   1.875  1.8414  1.7221 -2.3296
14563SOL     OW45362   1.542   9.130   0.288 -0.4706  0.0344 -0.1737
14563SOL    HW145363   1.539   9.219   0.324 -0.7719  0.1838 -0.5565
14563SOL    HW245364   1.473   9.083   0.335 -0.7855  0.1965 -0.4676
14564SOL     OW45365   7.765   4.295   9.636 -0.5380  0.3561  0.2721
14564SOL    HW145366   7.687   4.344   9.662  0.4972  2.9274 -1.1361
14564SOL    HW245367   7.746   4.267   9.546  0.3568  1.5861 -0.3302
14565SOL     OW45368   0.215   6.814   5.640  0.2953 -0.0200  0.1318
14565SOL    HW145369   0.126   6.816   5.604 -0.4351  0.8056  1.8755
14565SOL    HW245370   0.238   6.721   5.641 -0.0964 -0.1637 -1.3372
14566SOL     OW45371   5.405   8.528   8.087  0.4401  0.0963  0.2681
14566SOL    HW145372   5.355   8.452   8.057 -0.7757  1.7593 -2.2601
14566SOL    HW245373   5.347   8.572   8.149  0.4031 -0.0884  0.3656
14567SOL     OW45374   1.543   5.167   2.154 -0.1219  0.2597 -0.3893
14567SOL    HW145375   1.516   5.250   2.115 -0.7800  0.3509  0.2572
14567SOL    HW245376   1.462   5.127   2.184  0.4506  0.6954  1.8725
14568SOL     OW45377   0.808   6.232   4.639  0.1524 -0.0895  0.4202
14568SOL    HW145378   0.826   6.211   4.730  2.0080  2.9555  0.9192
14568SOL    HW245379   0.877   6.188   4.590 -0.3913 -1.1080  0.5627
14569SOL     OW45380   3.060   6.326   9.423 -0.0329 -0.3067  0.0654
14569SOL    HW145381   3.153   6.310   9.405 -0.1088 -0.4554 -0.2014
14569SOL    HW245382   3.041   6.408   9.378 -0.2753 -0.7868 -0.7176
14570SOL     OW45383   6.779   4.694   5.993 -0.0819  0.1318 -0.0267
14570SOL    HW145384   6.822   4.704   5.909  0.6774 -0.9745  0.2043
14570SOL    HW245385   6.774   4.599   6.007 -2.4494  0.2013  0.0492
14571SOL     OW45386   4.695   3.495   7.923 -0.0642 -0.2290  0.0316
14571SOL    HW145387   4.790   3.489   7.919 -0.0827 -3.8477  1.1105
14571SOL    HW245388   4.666   3.462   7.837 -0.4415  2.4149 -0.9407
14572SOL     OW45389   5.224   8.716   8.253  0.2643  0.0399 -0.3018
14572SOL    HW145390   5.304   8.737   8.302  1.1554 -2.0232 -0.7586
14572SOL    HW245391   5.179   8.652   8.308 -0.9381  0.9029 -0.2248
14573SOL     OW45392   6.445   5.697   4.436 -0.0810 -0.1715  0.2339
14573SOL    HW145393   6.428   5.606   4.460  1.2112 -0.4350  0.2086
14573SOL    HW245394   6.538   5.709   4.454 -0.2116  1.1113  0.1110
14574SOL     OW45395   3.456   3.880   0.123  0.5421  0.1536  0.1614
14574SOL    HW145396   3.544   3.843   0.112 -0.0151 -0.8269 -1.3609
14574SOL    HW245397   3.451   3.950   0.058 -0.1273 -0.4658 -0.4752
14575SOL     OW45398   3.766   7.499   2.679 -0.4148  0.4818  0.4179
14575SOL    HW145399   3.720   7.455   2.750 -0.8443 -0.6501 -0.5276
14575SOL    HW245400   3.761   7.438   2.605  1.3480  0.9519 -0.1461
14576SOL     OW45401   5.491   6.731   0.446  0.3799  0.0677  0.4540
14576SOL    HW145402   5.396   6.733   0.434  0.2660  1.7367  1.2672
14576SOL    HW245403   5.507   6.650   0.493 -0.4618 -0.8883 -0.8190
14577SOL     OW45404   1.100   1.890   5.887 -0.3214  0.7359  0.1726
14577SOL    HW145405   1.120   1.917   5.797  2.2569  0.2533  0.5318
14577SOL    HW245406   1.115   1.796   5.888  0.5338  0.8568  1.2712
14578SOL     OW45407   1.409   6.459   8.198 -0.3426 -0.1811 -0.3354
14578SOL    HW145408   1.327   6.494   8.163 -1.0804  0.0352  1.4818
14578SOL    HW245409   1.454   6.535   8.234  0.1221 -0.4800 -0.2717
14579SOL     OW45410   6.331   0.190   0.889  0.4499 -0.1856  0.4616
14579SOL    HW145411   6.389   0.115   0.876 -0.3321 -0.7139 -0.1350
14579SOL    HW245412   6.335   0.239   0.807  0.7365  0.2737  0.7447
14580SOL     OW45413   0.397   7.594   4.292  0.4005  0.1288  0.0356
14580SOL    HW145414   0.389   7.689   4.285  0.5009  0.1656  0.4297
14580SOL    HW245415   0.485   7.580   4.328  0.0395 -0.0801  0.8510
14581SOL     OW45416   5.388   8.893   3.179 -0.0688  0.0807  0.8062
14581SOL    HW145417   5.448   8.845   3.122 -2.3629 -0.8895 -0.9543
14581SOL    HW245418   5.336   8.946   3.119 -0.7938  1.1176  2.2902
14582SOL     OW45419   6.888   6.129   0.849  0.1935 -0.0355 -0.2943
14582SOL    HW145420   6.910   6.218   0.876 -1.4491  1.0017 -2.0700
14582SOL    HW245421   6.804   6.112   0.890 -0.1951 -0.1706 -1.1302
14583SOL     OW45422   2.958   4.094   0.183 -0.1751 -0.0448 -0.0654
14583SOL    HW145423   2.933   4.185   0.200  1.2665  0.3509  0.0321
14583SOL    HW245424   2.958   4.052   0.269  2.0917  0.6561  0.3383
14584SOL     OW45425   4.481   2.165   5.680 -0.0628  0.1849  0.3954
14584SOL    HW145426   4.562   2.199   5.642 -0.7704 -0.6752 -2.1012
14584SOL    HW245427   4.417   2.172   5.609 -2.2895  1.0895  2.3713
14585SOL     OW45428   0.280   2.192   6.252  0.0334  0.3262 -0.1833
14585SOL    HW145429   0.200   2.172   6.203  0.0669 -0.2728 -0.0033
14585SOL    HW245430   0.351   2.162   6.196  0.0423 -1.0381  0.5321
14586SOL     OW45431   0.159   0.197   0.690 -0.3145  0.6002  0.5288
14586SOL    HW145432   0.092   0.258   0.720 -1.1106 -0.2309  0.5089
14586SOL    HW245433   0.206   0.245   0.622 -0.1530  1.5882  1.3141
14587SOL     OW45434   1.344   5.897   3.090 -0.2332 -0.5017 -0.6082
14587SOL    HW145435   1.435   5.895   3.059  0.6326 -0.5204  1.7504
14587SOL    HW245436   1.295   5.934   3.017  1.6062 -0.8050 -2.0750
14588SOL     OW45437   8.769   8.489   4.532 -0.2939  0.2922 -0.4907
14588SOL    HW145438   8.852   8.503   4.577  0.0888  1.5376 -1.5020
14588SOL    HW245439   8.734   8.578   4.520 -0.8865 -0.0845 -1.6685
14589SOL     OW45440   9.157   6.420   6.766 -0.0858 -0.0317 -0.3249
14589SOL    HW145441   9.228   6.414   6.702 -0.8802 -0.3151 -1.2066
14589SOL    HW245442   9.197   6.394   6.849  1.0354  0.6154 -0.6390
14590SOL     OW45443   1.834   9.119   3.473 -0.2357  0.0393 -0.2509
14590SOL    HW145444   1.752   9.120   3.522  0.7636  0.1527  1.5285
14590SOL    HW245445   1.818   9.175   3.397 -0.9868  2.4476  1.5461
14591SOL     OW45446   8.772   5.009   4.794 -0.2130 -0.6136  0.1668
14591SOL    HW145447   8.811   5.096   4.798 -0.7917 -0.3872  2.1562
14591SOL    HW245448   8.821   4.963   4.725  0.0831  1.2590 -0.9376
14592SOL     OW45449   7.509   4.665   2.436  0.5708 -0.0150  0.4425
14592SOL    HW145450   7.495   4.572   2.453  1.7565 -0.5628 -1.3628
14592SOL    HW245451   7.459   4.683   2.357 -1.5646  1.5047  2.0308
14593SOL     OW45452   0.831   1.990   5.629  0.5930  0.1018 -0.0606
14593SOL    HW145453   0.840   2.044   5.708 -1.6506  0.5499 -0.0550
14593SOL    HW245454   0.817   1.901   5.662  0.2394  0.1888  0.0171
14594SOL     OW45455   3.843   5.793   8.676  0.0997 -0.5084  0.3067
14594SOL    HW145456   3.818   5.796   8.583  1.0204 -1.3237  0.0194
14594SOL    HW245457   3.759   5.788   8.723 -0.3293 -2.3176 -0.5840
14595SOL     OW45458   3.684   1.455   0.016 -0.3342  0.2830 -0.1164
14595SOL    HW145459   3.671   1.405   0.096  0.0209 -1.0629 -0.8507
14595SOL    HW245460   3.629   1.411  -0.049  0.2076  0.6755 -0.8588
14596SOL     OW45461   6.543   1.383   5.904 -0.7784  0.2044  0.5979
14596SOL    HW145462   6.465   1.378   5.959 -1.3568  2.3774  0.0758
14596SOL    HW245463   6.614   1.403   5.965 -1.1314  1.0049  0.7550
14597SOL     OW45464   6.070   8.952   2.472  0.4903 -0.1862 -0.1546
14597SOL    HW145465   6.067   8.948   2.377 -0.1852 -0.7673 -0.1206
14597SOL    HW245466   6.158   8.921   2.494 -0.0857 -2.2300 -0.5245
14598SOL     OW45467   9.054   9.484   0.479 -0.1393  0.6010  0.1922
14598SOL    HW145468   9.090   9.544   0.544  3.5042 -1.4837  0.3225
14598SOL    HW245469   9.008   9.418   0.530  1.5700 -0.2926  0.6390
14599SOL     OW45470   1.533   9.531   8.678 -0.0079 -0.5647 -0.2651
14599SOL    HW145471   1.521   9.452   8.732 -0.0245  0.1162  0.7552
14599SOL    HW245472   1.482   9.598   8.723  1.4162  0.4660 -0.1228
14600SOL     OW45473   5.636   6.390   1.484 -0.3145  0.5703 -0.3068
14600SOL    HW145474   5.595   6.304   1.473 -0.0884  0.4926 -0.5783
14600SOL    HW245475   5.701   6.376   1.553 -0.0635  0.4409 -0.5646
14601SOL     OW45476   0.638   3.905   2.730 -0.2093 -0.1257  0.4309
14601SOL    HW145477   0.682   3.971   2.784  1.0981  0.1397 -0.8778
14601SOL    HW245478   0.700   3.888   2.659 -1.0531 -1.8755  0.0711
14602SOL     OW45479   1.858   1.249   3.774 -0.1056  0.0555  0.6395
14602SOL    HW145480   1.878   1.281   3.862  0.9080  1.2148  0.0343
14602SOL    HW245481   1.944   1.230   3.736 -0.3801  1.3517 -0.7148
14603SOL     OW45482   1.635   6.429   1.317 -0.3138  0.7915 -0.1398
14603SOL    HW145483   1.571   6.495   1.290  1.3277  2.4582 -0.1353
14603SOL    HW245484   1.719   6.464   1.290  0.7036 -0.9521  0.5865
14604SOL     OW45485   1.435   0.228   4.358  0.3223 -0.1876  0.3098
14604SOL    HW145486   1.384   0.248   4.436 -1.6197 -0.3638 -0.8399
14604SOL    HW245487   1.452   0.314   4.318  1.3002 -0.0990  0.8764
14605SOL     OW45488   8.409   2.750   7.746  0.2003  0.1335 -0.0319
14605SOL    HW145489   8.406   2.747   7.650 -1.1526  1.6720 -0.0812
14605SOL    HW245490   8.418   2.843   7.766  0.9229 -0.2095  1.3542
14606SOL     OW45491   4.634   4.717   4.134  0.7007 -0.3593 -0.4112
14606SOL    HW145492   4.543   4.707   4.105  1.4689  1.1965 -3.9157
14606SOL    HW245493   4.666   4.627   4.139 -0.9030 -0.9288  0.6409
14607SOL     OW45494   9.255   2.937   7.650  0.3622  0.2804 -0.1104
14607SOL    HW145495   9.167   2.911   7.675  0.5633 -0.5810 -0.2541
14607SOL    HW245496   9.292   2.978   7.729 -0.1690  0.6850 -0.0667
14608SOL     OW45497   5.726   8.207   3.706 -0.0020 -0.2538  0.1906
14608SOL    HW145498   5.735   8.126   3.656  0.1584  0.0972 -0.3593
14608SOL    HW245499   5.733   8.277   3.640  2.9107  0.3325  0.9529
14609SOL     OW45500   5.068   7.918   7.845  0.0474  0.1799 -0.8163
14609SOL    HW145501   5.158   7.950   7.855 -0.5100  1.5334  0.2281
14609SOL    HW245502   5.061   7.845   7.906  0.6446 -0.4297 -1.4614
14610SOL     OW45503   6.095   6.126   8.771 -0.4110  0.8904  0.4156
14610SOL    HW145504   6.152   6.183   8.822  0.2045  0.8544 -0.2033
14610SOL    HW245505   6.089   6.045   8.822 -0.5602  1.1894  0.8693
14611SOL     OW45506   5.141   1.175   6.701  0.2552 -0.3549 -0.1240
14611SOL    HW145507   5.163   1.169   6.608 -0.9532 -1.5290 -0.3588
14611SOL    HW245508   5.084   1.100   6.718 -0.2739  0.3353  1.3707
14612SOL     OW45509   3.507   0.918   7.603  0.5479 -0.0407 -0.1114
14612SOL    HW145510   3.560   0.879   7.672  1.6229  0.3564 -0.6937
14612SOL    HW245511   3.459   0.844   7.565  1.6274 -0.6088 -0.3951
14613SOL     OW45512   0.841   7.406   7.012 -0.2754 -0.7797  0.2418
14613SOL    HW145513   0.860   7.498   6.998 -0.5852 -0.3932  2.0595
14613SOL    HW245514   0.885   7.384   7.094 -1.1557 -1.9305  0.4442
14614SOL     OW45515   3.250   3.856   7.341 -0.2327 -0.5050 -0.5658
14614SOL    HW145516   3.274   3.939   7.381  1.6247 -1.0534 -0.4609
14614SOL    HW245517   3.322   3.797   7.362 -0.8668 -1.7783 -1.7789
14615SOL     OW45518   3.300   2.017   6.782 -0.7128  0.7583 -0.6663
14615SOL    HW145519   3.362   1.947   6.761  0.4039  1.1362  1.1304
14615SOL    HW245520   3.214   1.976   6.773 -0.0811 -1.2396  1.3394
14616SOL     OW45521   6.328   3.836   5.822  0.5238 -0.0806 -0.3867
14616SOL    HW145522   6.362   3.893   5.891 -1.4341 -0.8849  1.3230
14616SOL    HW245523   6.246   3.877   5.795 -0.8763 -1.9410  0.8016
14617SOL     OW45524   4.686   0.633   4.555  0.6865 -0.0047  0.4127
14617SOL    HW145525   4.757   0.696   4.549  0.6615 -0.0617 -0.5453
14617SOL    HW245526   4.607   0.686   4.561  0.7593  0.0537  0.9408
14618SOL     OW45527   6.862   7.706   7.395 -0.7209  0.4956  0.0043
14618SOL    HW145528   6.831   7.657   7.319 -1.8467  1.7859 -0.4090
14618SOL    HW245529   6.952   7.676   7.408 -1.3495 -1.6231 -0.2336
14619SOL     OW45530   0.561   7.967   0.143  0.4574 -0.4041 -1.1189
14619SOL    HW145531   0.488   7.946   0.200 -0.9778 -1.4407 -3.1942
14619SOL    HW245532   0.563   7.895   0.079  0.9192  1.4422 -3.3269
14620SOL     OW45533   8.933   7.055   3.720 -0.5001  0.2376 -0.0396
14620SOL    HW145534   8.990   7.032   3.647 -0.7222 -2.0030  0.4284
14620SOL    HW245535   8.993   7.090   3.786  0.0018  0.2035 -0.4679
14621SOL     OW45536   9.677   1.423   4.827  0.4805 -0.4760  0.2512
14621SOL    HW145537   9.757   1.470   4.849  0.6030  0.6015 -2.1576
14621SOL    HW245538   9.690   1.335   4.863  0.1270  1.1623  5.2154
14622SOL     OW45539   7.299   6.598   1.378 -0.2192 -0.7438  0.3330
14622SOL    HW145540   7.383   6.641   1.391 -0.3574 -0.8033  1.5417
14622SOL    HW245541   7.268   6.577   1.467 -0.2890 -3.0491 -0.1620
14623SOL     OW45542   1.773   2.147   4.772  0.4847  0.6558  0.4936
14623SOL    HW145543   1.699   2.165   4.715  0.6382  0.1551  0.1358
14623SOL    HW245544   1.740   2.165   4.860 -0.0435  0.4939  0.3329
14624SOL     OW45545   5.752   3.106   0.487  0.5425 -0.1745  0.5447
14624SOL    HW145546   5.777   3.110   0.395  1.0407  0.0285  0.6824
14624SOL    HW245547   5.732   3.197   0.510 -0.3286 -0.3328  0.4422
14625SOL     OW45548   4.928   5.523   9.614 -0.3815 -0.2201 -0.0251
14625SOL    HW145549   4.978   5.444   9.591  1.9562  1.1161  0.1598
14625SOL    HW245550   4.953   5.587   9.547 -1.2892  0.7348  0.5288
14626SOL     OW45551   7.172   2.261   1.818  0.1820  0.1900 -0.0979
14626SOL    HW145552   7.107   2.311   1.866 -0.9576  0.7111 -2.0664
14626SOL    HW245553   7.238   2.325   1.793  0.7594 -0.0739  0.7306
14627SOL     OW45554   1.918   8.410   1.258 -0.6901 -0.3999  0.2992
14627SOL    HW145555   1.890   8.501   1.267 -1.0786 -0.3905 -0.7812
14627SOL    HW245556   1.844   8.367   1.214 -0.1831 -1.0490  0.0651
14628SOL     OW45557   3.707   2.274   0.905 -0.1832 -0.5406  0.4563
14628SOL    HW145558   3.796   2.241   0.888 -0.1605 -0.9362  1.3091
14628SOL    HW245559   3.720   2.350   0.961 -0.4135 -0.9823  1.1139
14629SOL     OW45560   1.200   8.642   0.428 -0.1947  0.1181  0.1432
14629SOL    HW145561   1.289   8.637   0.392 -0.1746 -1.6853  0.3847
14629SOL    HW245562   1.197   8.573   0.494 -0.9477  1.9195  2.0897
14630SOL     OW45563   3.651   6.900   8.478  0.7388  0.1992 -0.2204
14630SOL    HW145564   3.716   6.957   8.519 -2.8513  3.0530  2.0499
14630SOL    HW245565   3.629   6.943   8.396 -2.3749  2.7870  1.7418
14631SOL     OW45566   2.545   3.479   5.561  0.1806  0.0169  0.3516
14631SOL    HW145567   2.591   3.558   5.531  1.2637 -0.8283 -0.2843
14631SOL    HW245568   2.528   3.495   5.654 -3.0514  2.5963 -0.5043
14632SOL     OW45569   3.809   6.390   1.661  0.3338 -0.1933  0.1201
14632SOL    HW145570   3.857   6.455   1.610  0.6661  0.1988  0.9189
14632SOL    HW245571   3.730   6.373   1.610  0.1506  0.9782 -0.0097
14633SOL     OW45572   9.567   9.113   5.043 -0.2238 -0.3601 -0.4154
14633SOL    HW145573   9.483   9.129   5.086 -0.1149 -0.1557 -0.2725
14633SOL    HW245574   9.632   9.134   5.110 -0.0553 -0.2552 -0.6107
14634SOL     OW45575   6.374   4.243   1.383 -0.7210  0.0291 -0.1919
14634SOL    HW145576   6.469   4.234   1.390 -0.7657 -0.1669  0.1488
14634SOL    HW245577   6.353   4.322   1.431 -0.7272  0.0937 -0.2996
14635SOL     OW45578   1.532   5.052   6.113  0.5237  0.1906 -0.0862
14635SOL    HW145579   1.458   5.057   6.053  0.8266 -0.0934 -0.4857
14635SOL    HW245580   1.493   5.065   6.200  0.3747  3.0452 -0.4799
14636SOL     OW45581   0.674   0.936   0.407 -0.0986 -0.2758 -0.0375
14636SOL    HW145582   0.756   0.973   0.374 -0.2994 -1.2091 -1.6780
14636SOL    HW245583   0.612   1.010   0.405  0.7161  0.5048  1.4720
14637SOL     OW45584   8.011   8.404   2.265 -0.1693 -0.0255 -0.2290
14637SOL    HW145585   7.959   8.324   2.271  1.1120 -0.9564 -1.1002
14637SOL    HW245586   8.080   8.393   2.331 -1.1770  1.3423  1.1525
14638SOL     OW45587   4.184   6.691   0.008 -0.2686  0.5785  0.2212
14638SOL    HW145588   4.137   6.661  -0.070 -0.9187 -1.7648  1.4130
14638SOL    HW245589   4.228   6.613   0.041  3.8358  2.4352 -0.2745
14639SOL     OW45590   6.002   1.704   5.180 -0.5620 -0.2180  0.2323
14639SOL    HW145591   6.080   1.711   5.124  0.1071 -1.7494  0.8995
14639SOL    HW245592   5.929   1.723   5.122  0.2755  0.7151 -0.5495
14640SOL     OW45593   6.275   2.626   4.501  0.3510  0.2112 -0.0917
14640SOL    HW145594   6.345   2.668   4.452 -0.1903  0.0582 -1.0334
14640SOL    HW245595   6.195   2.649   4.453  0.0275 -1.8656 -0.6778
14641SOL     OW45596   3.701   8.229   7.034 -0.3781  0.2653  0.0430
14641SOL    HW145597   3.742   8.299   7.085 -1.0155 -0.8546  2.2118
14641SOL    HW245598   3.607   8.246   7.041 -0.4733  0.1281 -0.8323
14642SOL     OW45599   1.165   6.403   5.696  0.1675 -0.4413 -0.7008
14642SOL    HW145600   1.195   6.360   5.777  1.0031 -0.3478 -0.9510
14642SOL    HW245601   1.242   6.449   5.664  0.1212 -1.2796 -2.0841
14643SOL     OW45602   1.148   5.778   3.375 -0.1298  0.5133 -0.3274
14643SOL    HW145603   1.211   5.833   3.329  1.0636 -0.6605 -0.1735
14643SOL    HW245604   1.097   5.839   3.428  1.2983  1.4542  0.0249
14644SOL     OW45605   3.865   4.089   3.447  0.3987  0.2644 -0.0408
14644SOL    HW145606   3.834   4.119   3.362  0.4258  2.0332  0.5392
14644SOL    HW245607   3.905   4.003   3.429 -3.5898 -1.5887 -0.9989
14645SOL     OW45608   7.692   7.240   4.053  0.3249 -0.2696 -0.1551
14645SOL    HW145609   7.730   7.157   4.082 -1.0770 -1.0052 -0.3443
14645SOL    HW245610   7.647   7.218   3.971 -1.0520  0.4154  0.3893
14646SOL     OW45611   0.990   1.672   5.387  0.1122 -0.0310 -0.3921
14646SOL    HW145612   1.006   1.582   5.359 -0.5485  0.1903 -1.5636
14646SOL    HW245613   0.895   1.676   5.402  0.3742  0.0146  1.3834
14647SOL     OW45614   9.414   0.219   7.758  0.0706 -0.4385 -0.0332
14647SOL    HW145615   9.378   0.196   7.672 -0.0750  0.1413 -0.1297
14647SOL    HW245616   9.340   0.257   7.805  0.1441 -0.7746  0.3582
14648SOL     OW45617   7.731   4.972   7.226 -0.3991 -0.2844  0.0828
14648SOL    HW145618   7.810   5.018   7.254 -0.2328  0.8672 -2.0568
14648SOL    HW245619   7.761   4.883   7.206  1.1101  0.7941 -3.2891
14649SOL     OW45620   1.193   7.373   0.578  0.0292  0.3909 -0.7321
14649SOL    HW145621   1.244   7.443   0.536 -0.6214  0.4162 -1.4858
14649SOL    HW245622   1.209   7.387   0.672  1.7803  0.1131 -0.9419
14650SOL     OW45623   2.734   5.680   3.870  0.0327  0.4196 -0.5168
14650SOL    HW145624   2.754   5.691   3.963 -0.1393  0.7709 -0.5176
14650SOL    HW245625   2.774   5.756   3.828  1.1433 -0.3562 -0.8971
14651SOL     OW45626   2.056   2.511   7.618 -0.1797  0.2180  0.3675
14651SOL    HW145627   2.130   2.550   7.572 -0.8259  0.1029 -0.8126
14651SOL    HW245628   2.055   2.419   7.591  0.1409 -0.1634  1.5740
14652SOL     OW45629   6.081   5.825   8.176 -0.1512 -0.3826  1.1333
14652SOL    HW145630   6.103   5.768   8.103 -1.4203  0.3673  0.1126
14652SOL    HW245631   6.147   5.895   8.173 -0.2769 -0.2867  0.6202
14653SOL     OW45632   0.419   1.675   3.225 -0.3824  0.5204 -0.3826
14653SOL    HW145633   0.463   1.621   3.160 -2.2318 -0.3304 -1.0004
14653SOL    HW245634   0.330   1.685   3.192 -0.8296  1.7087  1.0606
14654SOL     OW45635   8.049   7.273   8.431  0.4784  0.5381 -0.1498
14654SOL    HW145636   8.041   7.342   8.365 -1.2813  0.4759 -0.0631
14654SOL    HW245637   8.007   7.197   8.390 -0.0929  0.3281  0.7926
14655SOL     OW45638   7.950   4.513   5.307 -0.4821  0.3668 -0.7219
14655SOL    HW145639   7.965   4.472   5.221  0.9453 -0.3314 -0.1735
14655SOL    HW245640   8.003   4.592   5.305  1.6659 -0.9626  0.4122
14656SOL     OW45641   0.285   5.527   9.254  0.0796  0.1999  0.1002
14656SOL    HW145642   0.280   5.432   9.249  1.0779  0.1196  0.3810
14656SOL    HW245643   0.214   5.551   9.314 -1.2594 -0.1984 -1.2585
14657SOL     OW45644   9.261   2.009   3.607  0.0534 -0.6788 -0.0049
14657SOL    HW145645   9.298   1.995   3.694  0.3345 -1.8648 -0.2948
14657SOL    HW245646   9.205   1.933   3.592 -1.3535  0.3454 -0.1828
14658SOL     OW45647   4.963   8.306   2.389  0.2667  0.1465 -0.0227
14658SOL    HW145648   4.900   8.332   2.457 -1.3183  2.3459 -2.1738
14658SOL    HW245649   5.037   8.365   2.402  0.4744 -0.2202  0.4887
14659SOL     OW45650   7.112   9.094   3.346  0.0410 -0.7141 -0.3008
14659SOL    HW145651   7.193   9.107   3.297 -0.6605 -1.0132 -1.5844
14659SOL    HW245652   7.051   9.057   3.282 -1.5712  0.9118  0.2199
14660SOL     OW45653   5.617   3.165   4.917 -0.4852  0.3888 -0.0337
14660SOL    HW145654   5.633   3.101   4.986 -0.6184  1.8389  1.4049
14660SOL    HW245655   5.551   3.224   4.953 -1.6769  0.3455 -1.9979
14661SOL     OW45656   7.136   7.639   1.174  0.1048 -0.1509  0.2686
14661SOL    HW145657   7.048   7.677   1.169  0.7139  1.3914  0.7566
14661SOL    HW245658   7.124   7.555   1.219 -1.1161 -0.0262  0.2060
14662SOL     OW45659   0.419   8.870   0.823  0.3254 -0.4212 -0.2087
14662SOL    HW145660   0.324   8.879   0.812  0.1916 -0.7618  0.5977
14662SOL    HW245661   0.430   8.785   0.866  1.0471 -0.7071 -0.9454
14663SOL     OW45662   2.110   9.524   7.057 -0.0397 -0.2841  0.3867
14663SOL    HW145663   2.018   9.505   7.075 -1.1463  0.5498 -3.3551
14663SOL    HW245664   2.126   9.608   7.100 -1.1951 -0.2009  0.6993
14664SOL     OW45665   8.332   5.038   9.142  0.0720  0.3780 -0.2040
14664SOL    HW145666   8.376   5.082   9.215  2.2773  0.6899 -1.6269
14664SOL    HW245667   8.286   5.108   9.096  1.8650  0.9278 -1.2674
14665SOL     OW45668   0.380   5.309   0.776 -0.1810 -0.0086 -0.2784
14665SOL    HW145669   0.337   5.391   0.800  1.2065  0.7078 -0.1630
14665SOL    HW245670   0.366   5.251   0.850 -0.7960  0.2640 -0.1777
14666SOL     OW45671   0.693   8.576   3.271 -0.0634 -0.1435 -0.4123
14666SOL    HW145672   0.661   8.499   3.226 -2.2124 -0.7559  1.9558
14666SOL    HW245673   0.672   8.649   3.213  1.9854 -1.2054 -2.6786
14667SOL     OW45674   1.697   5.151   7.122 -0.1020 -0.2065 -0.0635
14667SOL    HW145675   1.786   5.154   7.085 -0.2685  0.6769 -0.4198
14667SOL    HW245676   1.711   5.135   7.215  0.3307 -2.4042 -0.4628
14668SOL     OW45677   9.438   6.038   3.781 -0.5806 -0.6557  0.3597
14668SOL    HW145678   9.379   6.048   3.706 -0.1293  1.2467  0.1951
14668SOL    HW245679   9.409   5.958   3.824 -0.3816 -2.2461 -2.2477
14669SOL     OW45680   4.418   7.634   4.867 -0.7033 -0.6243 -0.5717
14669SOL    HW145681   4.459   7.721   4.862 -1.8616 -0.0892 -0.9964
14669SOL    HW245682   4.326   7.652   4.884 -0.6311 -1.8385  1.4072
14670SOL     OW45683   3.824   8.688   1.137  0.1271 -0.6078 -0.3899
14670SOL    HW145684   3.764   8.756   1.168  0.6101 -1.4332  2.7157
14670SOL    HW245685   3.905   8.735   1.117  0.2912 -0.1521  1.2120
14671SOL     OW45686   6.192   6.777   5.413 -0.0685  0.0724  0.1813
14671SOL    HW145687   6.114   6.825   5.441 -1.5024 -1.4000 -1.0569
14671SOL    HW245688   6.201   6.707   5.478 -0.4903 -0.4417 -0.3033
14672SOL     OW45689   4.219   5.506   3.951 -0.0050 -0.5867 -0.0140
14672SOL    HW145690   4.273   5.455   3.890  3.4729  1.1855  1.2537
14672SOL    HW245691   4.265   5.590   3.958 -2.2573  0.5855  2.3328
14673SOL     OW45692   8.728   9.655   7.852  0.2966 -0.0397 -1.0746
14673SOL    HW145693   8.716   9.749   7.859 -0.6929 -0.1749 -0.7861
14673SOL    HW245694   8.661   9.618   7.909  0.3790 -0.9224 -1.5331
14674SOL     OW45695   6.614   8.231   3.015 -0.1239  0.0256 -0.3775
14674SOL    HW145696   6.709   8.227   3.002 -0.0876 -0.2828 -0.0391
14674SOL    HW245697   6.577   8.198   2.933  0.0323  1.2282 -0.9494
14675SOL     OW45698   0.455   4.979   2.832 -0.1626 -0.1361 -0.0331
14675SOL    HW145699   0.389   5.046   2.810 -0.0951 -0.6734 -2.1774
14675SOL    HW245700   0.495   5.009   2.913  0.0978  2.6294 -1.0904
14676SOL     OW45701   5.432   7.281   8.885 -0.3277  1.1022 -0.0730
14676SOL    HW145702   5.487   7.360   8.880  0.3141  0.6199 -0.8078
14676SOL    HW245703   5.479   7.223   8.945 -0.1713  0.8041 -0.4783
14677SOL     OW45704   4.938   3.506   8.546  1.1976 -0.5721  0.3255
14677SOL    HW145705   4.964   3.577   8.604 -1.1178  0.7832 -0.1930
14677SOL    HW245706   4.878   3.453   8.598  2.2089 -1.6785  0.4140
14678SOL     OW45707   6.950   1.503   0.325 -0.3337 -0.1726 -0.2235
14678SOL    HW145708   6.951   1.415   0.286  0.1192 -0.4008  0.2936
14678SOL    HW245709   7.019   1.550   0.279 -0.5293 -0.1062 -0.4514
14679SOL     OW45710   3.911   6.045   3.035  0.0066 -0.2932  0.8159
14679SOL    HW145711   3.858   6.124   3.049  0.9132  0.2669  1.1976
14679SOL    HW245712   3.963   6.036   3.114  1.1631 -0.2740  0.0908
14680SOL     OW45713   6.329   6.408   0.384  0.0519 -0.2677  0.2000
14680SOL    HW145714   6.377   6.478   0.428 -2.2137  0.1662  2.1719
14680SOL    HW245715   6.368   6.403   0.297  2.7116  0.9244  1.2066
14681SOL     OW45716   1.179   0.560   5.560  0.4327  0.1362  0.8449
14681SOL    HW145717   1.194   0.482   5.614  1.5300  1.3469  2.3960
14681SOL    HW245718   1.227   0.543   5.479 -2.0649 -2.1595 -0.3355
14682SOL     OW45719   1.218   4.811   4.907  0.5350 -0.1662 -0.2627
14682SOL    HW145720   1.256   4.850   4.829 -0.8196 -0.8181 -1.2827
14682SOL    HW245721   1.225   4.717   4.893  1.9009 -0.3433  1.2478
14683SOL     OW45722   4.657   6.282   0.272 -0.3000 -0.2017  0.3472
14683SOL    HW145723   4.628   6.278   0.363  0.0391 -0.2260  0.4550
14683SOL    HW245724   4.631   6.370   0.243 -0.8429 -0.3652  0.3150
14684SOL     OW45725   0.191   5.254   9.230 -0.0246  0.2152  0.0376
14684SOL    HW145726   0.206   5.250   9.135  0.2499 -0.1871  0.0910
14684SOL    HW245727   0.210   5.165   9.260  0.4233  0.4769  0.5471
14685SOL     OW45728   2.062   6.869   0.810  0.0071  0.4924  0.3374
14685SOL    HW145729   2.139   6.860   0.755 -2.1210 -0.0850 -2.8551
14685SOL    HW245730   2.083   6.940   0.871  2.2018  1.9557 -1.9303
14686SOL     OW45731   8.531   0.932   0.592  0.8818  0.2082  0.3201
14686SOL    HW145732   8.470   0.882   0.539 -0.2563  0.3791  1.4161
14686SOL    HW245733   8.512   0.906   0.682  1.4964  1.2731  0.7836
14687SOL     OW45734   5.967   7.688   0.036 -0.0393  0.5402 -0.0547
14687SOL    HW145735   5.929   7.772   0.010 -0.4407 -0.4627 -3.0624
14687SOL    HW245736   5.922   7.665   0.116 -4.1971  0.5569 -2.1434
14688SOL     OW45737   7.991   7.700   9.096 -0.0242 -0.4144 -0.3321
14688SOL    HW145738   7.898   7.683   9.111  0.0978  0.6993  2.2585
14688SOL    HW245739   8.029   7.708   9.184  2.2286  0.6399 -1.3004
14689SOL     OW45740   1.578   8.153   5.801 -0.0019  0.2157 -0.0598
14689SOL    HW145741   1.635   8.076   5.805  0.9677  0.9382  0.2152
14689SOL    HW245742   1.515   8.132   5.732  0.9682 -0.3407 -0.8005
14690SOL     OW45743   2.213   4.316   3.727 -0.4443 -0.4883  0.3820
14690SOL    HW145744   2.307   4.306   3.714 -0.3241  0.6899  0.2767
14690SOL    HW245745   2.200   4.301   3.821 -0.3157 -1.7292  0.2201
14691SOL     OW45746   5.494   8.205   9.078 -0.4955  0.1168 -0.0976
14691SOL    HW145747   5.448   8.253   9.009 -1.6359  0.2422  0.7250
14691SOL    HW245748   5.567   8.262   9.103 -0.4401  0.3443 -0.7609
14692SOL     OW45749   4.869   4.620   8.515  0.0664 -0.1153 -0.0443
14692SOL    HW145750   4.885   4.712   8.493 -2.1317  0.1475 -0.7187
14692SOL    HW245751   4.840   4.621   8.606  0.2798 -0.1845  0.0263
14693SOL     OW45752   7.596   2.272   5.068  0.1431 -0.4621  0.5304
14693SOL    HW145753   7.588   2.255   4.974 -0.2697  0.0063  0.4772
14693SOL    HW245754   7.689   2.255   5.088  0.4115  0.1766 -0.1206
14694SOL     OW45755   0.236   2.218   4.663 -0.2503  0.0454 -0.1781
14694SOL    HW145756   0.263   2.279   4.732  0.5123  1.0046 -1.2798
14694SOL    HW245757   0.306   2.152   4.661  0.0134  0.3236 -0.3745
14695SOL     OW45758   8.082   1.661   7.592 -0.5843  0.3411  0.3211
14695SOL    HW145759   8.027   1.732   7.624  1.3375  1.6354  0.9304
14695SOL    HW245760   8.115   1.618   7.670  0.5409  0.6261  0.0181
14696SOL     OW45761   3.935   0.608   8.835 -0.5982 -0.3805  0.4264
14696SOL    HW145762   3.898   0.617   8.747  0.4742 -0.3213 -0.0406
14696SOL    HW245763   3.924   0.515   8.856 -0.4324 -0.4990  0.0187
14697SOL     OW45764   5.051   0.422   8.471  0.2395  0.2702  0.4226
14697SOL    HW145765   4.998   0.387   8.399  0.8088  0.5839 -0.1562
14697SOL    HW245766   5.103   0.492   8.431  1.6202 -0.5046  0.8189
14698SOL     OW45767   5.979   8.436   8.765  0.0801 -0.0247 -0.4632
14698SOL    HW145768   6.004   8.360   8.712 -0.2121 -0.3135 -0.1959
14698SOL    HW245769   6.062   8.467   8.803 -0.0185 -1.3623  0.9332
14699SOL     OW45770   2.813   8.625   4.182  0.1225  0.6813 -0.2281
14699SOL    HW145771   2.736   8.583   4.145 -0.4375  1.5220 -0.0369
14699SOL    HW245772   2.834   8.696   4.121  1.3546 -0.1419 -0.8073
14700SOL     OW45773   2.949   6.209   8.550 -0.2158 -0.2139 -0.2018
14700SOL    HW145774   2.950   6.256   8.633  0.0047  0.4844 -0.5896
14700SOL    HW245775   2.858   6.185   8.536 -0.1232 -1.1668  0.6915
14701SOL     OW45776   4.721   0.871   7.728 -0.3137 -0.9276  0.4636
14701SOL    HW145777   4.658   0.933   7.691  0.4784 -0.4595 -0.1262
14701SOL    HW245778   4.667   0.802   7.766 -1.1853 -0.4695  0.0837
14702SOL     OW45779   5.515   8.374   7.829 -0.3163 -0.7803 -0.6880
14702SOL    HW145780   5.501   8.362   7.923 -3.3188  2.4693 -0.4962
14702SOL    HW245781   5.431   8.351   7.789 -0.1600  0.8698 -2.1423
14703SOL     OW45782   7.429   1.043   0.799 -0.0707  0.1059 -0.1504
14703SOL    HW145783   7.520   1.033   0.771 -0.0997 -1.4806  0.2340
14703SOL    HW245784   7.430   1.026   0.893 -0.6008  1.2817  0.0900
14704SOL     OW45785   1.640   7.051   2.934  0.1544 -0.8659  0.4808
14704SOL    HW145786   1.565   7.028   2.989 -1.3873 -2.7614 -2.1501
14704SOL    HW245787   1.697   6.975   2.939  1.1998 -0.0501  1.2829
14705SOL     OW45788   3.117   6.002   0.708 -0.0477  0.5013 -0.0006
14705SOL    HW145789   3.180   5.955   0.763  0.2907  0.6003 -0.2959
14705SOL    HW245790   3.079   5.934   0.652  1.3223  0.7299 -1.2716
14706SOL     OW45791   8.676   2.988   5.481  0.5610  0.1823  0.6654
14706SOL    HW145792   8.664   3.083   5.471 -0.8842 -0.1200 -0.9266
14706SOL    HW245793   8.768   2.973   5.460  1.4285  1.4537  3.1495
14707SOL     OW45794   2.702   8.918   4.597 -0.0075  0.0617  0.7316
14707SOL    HW145795   2.694   8.997   4.650 -2.9126  0.4140 -0.0489
14707SOL    HW245796   2.762   8.942   4.527 -1.5194  1.9648 -0.0035
14708SOL     OW45797   3.384   6.117   2.968  0.2803 -0.3229 -0.4093
14708SOL    HW145798   3.471   6.155   2.986  0.2328 -0.4154  0.0441
14708SOL    HW245799   3.347   6.172   2.899  1.4454 -1.3994 -1.9501
14709SOL     OW45800   0.897   2.833   1.394 -0.2441  0.7212 -0.3691
14709SOL    HW145801   0.863   2.838   1.304 -0.2973  0.0686 -0.3868
14709SOL    HW245802   0.956   2.758   1.393 -1.6190 -0.4224  0.5831
14710SOL     OW45803   4.330   4.596   5.737  0.5826  0.0930 -0.3658
14710SOL    HW145804   4.247   4.630   5.768  0.0413 -2.0077  0.6776
14710SOL    HW245805   4.319   4.501   5.738  2.8584 -0.2354 -0.5908
14711SOL     OW45806   7.211   7.489   4.254 -0.2638 -0.0534 -0.0316
14711SOL    HW145807   7.224   7.510   4.347 -1.7508  2.1245 -0.2432
14711SOL    HW245808   7.284   7.531   4.209 -0.9334  1.1519 -0.0435
14712SOL     OW45809   2.753   6.452   0.564 -0.5302  0.2834  0.1023
14712SOL    HW145810   2.752   6.381   0.499 -1.1637  1.1311 -0.8321
14712SOL    HW245811   2.684   6.428   0.626 -0.9150  0.2055 -0.3479
14713SOL     OW45812   0.284   8.187   3.207  0.1977 -0.2020 -0.1602
14713SOL    HW145813   0.237   8.253   3.259 -1.2999 -1.0179 -0.4161
14713SOL    HW245814   0.348   8.150   3.267 -2.6777 -2.4150  1.8212
14714SOL     OW45815   2.625   6.857   9.615  0.1672 -0.2599 -0.3142
14714SOL    HW145816   2.534   6.853   9.584 -0.2304  1.6155  0.4087
14714SOL    HW245817   2.629   6.791   9.684 -0.2083 -1.3838 -1.3447
14715SOL     OW45818   2.472   3.932   2.781  0.5759  0.1537 -0.7231
14715SOL    HW145819   2.520   3.850   2.769 -1.0441 -0.8623 -0.6087
14715SOL    HW245820   2.480   3.976   2.697 -0.9871 -1.5317 -1.8375
14716SOL     OW45821   2.892   9.529   3.283 -0.5298 -0.2556 -0.2891
14716SOL    HW145822   2.891   9.433   3.282 -1.6232 -0.2909  1.3686
14716SOL    HW245823   2.804   9.554   3.255 -0.2929  0.2730 -0.5719
14717SOL     OW45824   1.851   4.778   3.013  0.2661 -0.8772 -0.0370
14717SOL    HW145825   1.767   4.737   2.993 -0.1592 -0.0577  0.0395
14717SOL    HW245826   1.850   4.789   3.108 -0.3887  0.9094 -0.2255
14718SOL     OW45827   6.475   7.441   1.579 -0.0493 -0.3913  0.1249
14718SOL    HW145828   6.391   7.486   1.572 -0.2157 -0.9356 -2.0100
14718SOL    HW245829   6.527   7.495   1.639 -1.1713  1.1496 -0.2416
14719SOL     OW45830   1.499   1.025   1.079  0.7285  0.2002  0.0882
14719SOL    HW145831   1.580   1.077   1.078  0.4840  0.7578  2.4825
14719SOL    HW245832   1.460   1.045   1.164 -0.7478 -1.8737 -0.0478
14720SOL     OW45833   1.138   9.155   3.795 -0.0769  0.4220 -0.8145
14720SOL    HW145834   1.054   9.180   3.833  0.9022  0.6224  1.4172
14720SOL    HW245835   1.140   9.059   3.803  0.2264  0.4821 -0.0650
14721SOL     OW45836   2.333   0.116   5.706  0.4855  0.6096  0.3981
14721SOL    HW145837   2.288   0.145   5.785  0.7833  1.3354  0.3121
14721SOL    HW245838   2.271   0.058   5.662  0.6569 -0.5050  1.5990
14722SOL     OW45839   1.612   5.352   6.382 -0.1898 -0.2811 -0.3846
14722SOL    HW145840   1.698   5.327   6.348 -0.9832  0.2150 -2.9679
14722SOL    HW245841   1.558   5.273   6.371 -0.2196 -0.4316  0.7436
14723SOL     OW45842   1.646   4.995   0.218  0.2437 -0.0102 -0.5005
14723SOL    HW145843   1.647   5.035   0.131  3.6754  1.7797  0.1616
14723SOL    HW245844   1.622   4.904   0.202  1.3618  0.0927 -3.4403
14724SOL     OW45845   5.962   2.199   1.993  0.4761  0.0197 -0.1819
14724SOL    HW145846   6.008   2.230   2.071  0.0037 -0.8818  0.4812
14724SOL    HW245847   6.031   2.183   1.929  1.0311 -0.6190  0.5498
14725SOL     OW45848   3.736   7.210   4.515 -0.7113  0.0970 -0.3940
14725SOL    HW145849   3.704   7.289   4.472 -0.6214 -0.4889 -1.5933
14725SOL    HW245850   3.812   7.240   4.566  0.0215  0.6184 -1.7318
14726SOL     OW45851   6.063   7.968   5.992 -0.1585 -0.2714 -0.0925
14726SOL    HW145852   5.983   7.930   6.028 -0.7796 -0.4584 -1.5900
14726SOL    HW245853   6.133   7.909   6.021 -0.7926 -1.1312 -0.2710
14727SOL     OW45854   3.598   8.959   8.728  0.0585 -0.0039 -0.0749
14727SOL    HW145855   3.665   9.025   8.711 -0.9342  0.9060 -0.5128
14727SOL    HW245856   3.557   8.985   8.810 -0.1550 -0.2197 -0.1096
14728SOL     OW45857   8.569   6.979   0.356 -0.3768 -0.4376 -0.0521
14728SOL    HW145858   8.608   7.060   0.324 -0.0485 -0.7380 -0.4102
14728SOL    HW245859   8.640   6.936   0.405 -0.1754 -1.0949 -0.8985
14729SOL     OW45860   1.528   4.253   5.067 -0.2695  0.1049  1.1154
14729SOL    HW145861   1.601   4.264   5.127  0.8506 -0.0908 -0.1580
14729SOL    HW245862   1.500   4.343   5.047  0.7499  0.2606  0.3063
14730SOL     OW45863   0.279   7.383   2.916  0.2848 -0.8472  0.1268
14730SOL    HW145864   0.315   7.377   3.004  0.8199 -1.9277 -0.1393
14730SOL    HW245865   0.286   7.476   2.893  3.1790 -0.9847  0.0129
14731SOL     OW45866   1.537   4.462   4.698  0.2607 -0.2037 -0.3145
14731SOL    HW145867   1.491   4.390   4.740  0.1184 -1.1485 -2.0100
14731SOL    HW245868   1.533   4.442   4.605  0.7666  1.6861 -0.7826
14732SOL     OW45869   6.132   1.275   3.881  0.4459  0.4666  0.3620
14732SOL    HW145870   6.091   1.190   3.866  1.0288  0.3142 -0.4244
14732SOL    HW245871   6.224   1.254   3.898  0.4054  0.8741  1.1290
14733SOL     OW45872   9.521   8.688   3.561 -0.8101  0.0420  0.0748
14733SOL    HW145873   9.531   8.599   3.529  0.3600  0.9969 -2.5142
14733SOL    HW245874   9.467   8.732   3.495  0.2706  1.7162  0.2353
14734SOL     OW45875   2.814   7.299   2.702  0.2560  0.1134 -0.8772
14734SOL    HW145876   2.742   7.356   2.676  0.9060  0.8387 -1.1266
14734SOL    HW245877   2.854   7.272   2.619  0.1074 -0.5080 -0.7499
14735SOL     OW45878   4.101   6.083   5.669  0.4960  0.4747  0.3136
14735SOL    HW145879   4.055   6.061   5.588  0.0399 -0.4017  0.7958
14735SOL    HW245880   4.162   6.152   5.644  0.3953  0.1840 -0.7856
14736SOL     OW45881   8.078   8.184   5.238 -0.0987 -0.4234  0.4873
14736SOL    HW145882   8.172   8.171   5.253 -0.4036 -2.4471  0.8167
14736SOL    HW245883   8.065   8.161   5.146 -0.4032 -0.9912  0.6683
14737SOL     OW45884   1.530   6.949   0.804 -0.0080  0.1263 -0.1449
14737SOL    HW145885   1.542   7.015   0.872 -1.0524  0.7765 -0.5652
14737SOL    HW245886   1.437   6.954   0.781  0.0089 -1.0956 -0.5921
14738SOL     OW45887   1.816   9.504   1.941  0.4291  0.0104  0.0806
14738SOL    HW145888   1.734   9.460   1.964  0.3706  0.1280  0.0984
14738SOL    HW245889   1.867   9.437   1.896 -0.4223  0.4505 -1.6240
14739SOL     OW45890   5.903   7.942   8.884 -0.0992  0.0979  0.1020
14739SOL    HW145891   5.947   8.009   8.832 -1.9943  0.4720 -1.1113
14739SOL    HW245892   5.813   7.974   8.895 -0.2369 -0.7744  2.2108
14740SOL     OW45893   9.479   1.428   5.869 -1.0294  0.4560 -0.4605
14740SOL    HW145894   9.551   1.365   5.868 -0.8117  0.6919 -0.2306
14740SOL    HW245895   9.417   1.396   5.804 -1.0242 -0.1059 -0.1982
14741SOL     OW45896   0.129   1.605   5.670 -0.0180  0.1300 -0.6432
14741SOL    HW145897   0.216   1.616   5.708 -0.0417  1.3273 -0.8892
14741SOL    HW245898   0.070   1.647   5.734 -0.2367  0.6749 -1.1933
14742SOL     OW45899   5.733   5.079   4.121 -0.2259 -0.0069 -0.7843
14742SOL    HW145900   5.758   5.020   4.192 -2.2773 -0.3655 -0.2925
14742SOL    HW245901   5.673   5.141   4.162  0.8166  1.6056 -1.6066
14743SOL     OW45902   5.539   1.529   4.033 -0.1701 -0.0006  0.2231
14743SOL    HW145903   5.565   1.500   4.121 -0.4580  0.3211  0.4175
14743SOL    HW245904   5.617   1.514   3.979 -0.4402 -1.5689  0.2020
14744SOL     OW45905   5.255   5.626   2.915  0.3041  0.2785  0.6976
14744SOL    HW145906   5.288   5.702   2.963 -1.8014  2.1868 -0.6746
14744SOL    HW245907   5.175   5.601   2.961  1.1298 -1.4066  1.3258
14745SOL     OW45908   6.058   3.472   8.007 -0.4824  0.2483  0.2435
14745SOL    HW145909   6.087   3.447   8.094  1.3466  0.1626 -0.3476
14745SOL    HW245910   6.117   3.426   7.947 -0.8212  1.3509 -1.0089
14746SOL     OW45911   1.348   9.587   7.261 -0.4722 -0.0180  0.0343
14746SOL    HW145912   1.348   9.600   7.355  1.3421  1.2094 -0.0708
14746SOL    HW245913   1.281   9.647   7.228  0.0375  0.7959  0.4406
14747SOL     OW45914   5.776   8.136   2.375 -0.0835 -0.1380 -0.0866
14747SOL    HW145915   5.792   8.175   2.461 -1.5970  0.9821 -0.2665
14747SOL    HW245916   5.862   8.104   2.347  0.7730  0.9559  1.1306
14748SOL     OW45917   8.123   2.024   1.313  0.0104 -0.3507  0.1522
14748SOL    HW145918   8.028   2.030   1.313 -0.0833 -1.5009 -0.1249
14748SOL    HW245919   8.150   2.048   1.225  0.1444  1.7339  0.7120
14749SOL     OW45920   5.704   2.357   7.780 -0.1891 -0.4733 -0.0641
14749SOL    HW145921   5.654   2.279   7.757  0.7940 -1.5979  1.4405
14749SOL    HW245922   5.651   2.402   7.845 -0.3115 -0.4138 -0.2053
14750SOL     OW45923   8.389   6.668   4.129 -0.1838  0.3967  0.5062
14750SOL    HW145924   8.416   6.699   4.043 -0.7762  0.7017  0.4236
14750SOL    HW245925   8.363   6.747   4.176 -1.9825  0.0213  0.1990
14751SOL     OW45926   5.733   5.921   3.755  0.1596 -0.6677 -0.3707
14751SOL    HW145927   5.799   5.990   3.762  0.1777 -0.7668  0.5228
14751SOL    HW245928   5.730   5.899   3.662 -1.7233  2.3549 -1.1528
14752SOL     OW45929   8.151   8.491   7.797  0.3544 -0.5080  0.6808
14752SOL    HW145930   8.194   8.406   7.805  1.6539  0.0761  0.1230
14752SOL    HW245931   8.114   8.491   7.709 -0.2117 -0.7226  0.9068
14753SOL     OW45932   7.589   1.187   9.518  0.0590  0.6186 -0.3609
14753SOL    HW145933   7.544   1.174   9.601  0.4228 -1.5756 -0.4474
14753SOL    HW245934   7.677   1.216   9.543  1.0509 -2.4801  0.2906
14754SOL     OW45935   2.546   7.717   6.713  0.4972  0.0121  0.3883
14754SOL    HW145936   2.450   7.715   6.712  0.4555 -0.2766  2.1037
14754SOL    HW245937   2.571   7.656   6.644 -0.5391  0.4535 -0.4176
14755SOL     OW45938   5.824   5.868   8.058 -0.1598  0.2083  0.1423
14755SOL    HW145939   5.799   5.777   8.048  0.8488  0.1038 -1.7936
14755SOL    HW245940   5.903   5.865   8.113  0.4545 -0.1866 -0.7463
14756SOL     OW45941   8.714   6.896   3.711  0.0089  0.4366  0.0607
14756SOL    HW145942   8.793   6.949   3.721  0.6328 -0.1427 -1.4438
14756SOL    HW245943   8.739   6.827   3.649 -1.2339 -0.6842  0.7410
14757SOL     OW45944   7.801   2.122   3.781 -0.0788 -0.1166 -0.0545
14757SOL    HW145945   7.812   2.190   3.847 -1.8106  0.8839 -0.7262
14757SOL    HW245946   7.854   2.151   3.706  2.1495 -1.4141  0.9269
14758SOL     OW45947   1.345   4.156   4.014  0.3420 -0.0411  0.7281
14758SOL    HW145948   1.278   4.156   4.082  0.7296  0.7273  1.1274
14758SOL    HW245949   1.301   4.119   3.937 -0.6571  0.8266  0.8622
14759SOL     OW45950   4.315   2.447   6.212 -0.2615 -0.1677  0.1107
14759SOL    HW145951   4.256   2.385   6.255  0.6132 -2.0909 -1.2901
14759SOL    HW245952   4.399   2.433   6.254  0.2935 -1.1153 -1.2207
14760SOL     OW45953   4.747   5.698   9.225 -0.1145  0.6867 -0.2181
14760SOL    HW145954   4.818   5.762   9.236  0.0322  0.5691 -0.4644
14760SOL    HW245955   4.755   5.670   9.134  1.4095 -1.5768  0.5464
14761SOL     OW45956   1.698   7.151   2.662 -0.1528  0.1217  0.1209
14761SOL    HW145957   1.666   7.114   2.744 -0.7970 -1.8841 -0.9725
14761SOL    HW245958   1.794   7.153   2.672 -0.2733  1.1366  1.3738
14762SOL     OW45959   4.474   3.837   5.578  0.1192 -0.2756 -0.0838
14762SOL    HW145960   4.496   3.897   5.507  0.7893  0.1086  0.4428
14762SOL    HW245961   4.555   3.791   5.597  0.6672  1.4217  2.1290
14763SOL     OW45962   3.120   2.695   8.458  0.3256  0.0907  0.3563
14763SOL    HW145963   3.135   2.785   8.431  0.1925 -0.0351 -0.1334
14763SOL    HW245964   3.079   2.653   8.383 -0.3955 -0.1612  0.8777
14764SOL     OW45965   4.511   3.285   4.771 -0.3662  0.2656 -0.1039
14764SOL    HW145966   4.540   3.353   4.831  1.0691 -0.5832  0.1970
14764SOL    HW245967   4.480   3.333   4.694  2.2093  1.2698 -0.6239
14765SOL     OW45968   8.326   6.323   4.601  0.3820 -0.3326  0.5337
14765SOL    HW145969   8.317   6.327   4.506  1.1202  0.5619  0.4967
14765SOL    HW245970   8.411   6.282   4.616  0.3314 -0.3441  0.8095
14766SOL     OW45971   4.622   9.470   9.570 -0.3994 -0.4634  0.0891
14766SOL    HW145972   4.549   9.519   9.607  0.9426  0.3806  1.7864
14766SOL    HW245973   4.683   9.538   9.540  0.2416 -1.1239 -0.1352
14767SOL     OW45974   6.336   6.100   2.307 -0.1441  0.2475 -0.2789
14767SOL    HW145975   6.366   6.144   2.387  1.4245  1.2928 -1.3846
14767SOL    HW245976   6.312   6.012   2.336  0.5191  0.5472  1.3206
14768SOL     OW45977   5.778   0.775   2.347 -0.5311  0.0332  0.3240
14768SOL    HW145978   5.712   0.841   2.328  0.2026  0.0077 -2.8919
14768SOL    HW245979   5.740   0.693   2.316  0.4007 -0.2437 -0.1232
14769SOL     OW45980   2.780   2.657   7.516  0.0017 -0.5600 -0.3347
14769SOL    HW145981   2.864   2.639   7.475  0.7479  0.8135  0.5293
14769SOL    HW245982   2.715   2.623   7.454  1.1329 -0.2911 -1.7113
14770SOL     OW45983   8.037   2.035   0.194  0.0443  0.2357  0.3748
14770SOL    HW145984   7.948   2.006   0.209  0.0591  1.0276  2.2727
14770SOL    HW245985   8.033   2.131   0.201  1.4814  0.2193  3.9015
14771SOL     OW45986   2.142   7.328   0.149  0.4098  0.5345 -0.5477
14771SOL    HW145987   2.156   7.233   0.150 -2.7057 -0.0185  0.0074
14771SOL    HW245988   2.084   7.342   0.075  1.5614  2.2062 -1.1889
14772SOL     OW45989   5.795   2.004   2.307  0.6143 -0.1033 -0.4904
14772SOL    HW145990   5.756   1.931   2.259 -2.4231  1.8183 -1.2272
14772SOL    HW245991   5.730   2.026   2.374  2.4099  0.6380  1.1132
14773SOL     OW45992   7.907   3.273   1.744  0.1677 -0.0633  0.3275
14773SOL    HW145993   7.901   3.279   1.649 -2.4097  0.9756  0.4788
14773SOL    HW245994   7.887   3.361   1.776  0.2037 -0.5732  1.8567
14774SOL     OW45995   2.728   7.545   3.016  0.1443  0.5230  0.4147
14774SOL    HW145996   2.652   7.489   3.002 -0.1620  1.1170 -0.4059
14774SOL    HW245997   2.799   7.501   2.969  0.2065  0.1876  0.8208
14775SOL     OW45998   3.254   7.751   4.168  0.3546 -0.6122  0.5016
14775SOL    HW145999   3.295   7.723   4.250  1.3514 -1.8234 -0.3741
14775SOL    HW246000   3.279   7.842   4.158 -2.6959  0.7368  3.2781
14776SOL     OW46001   5.966   8.127   1.161  0.3290  0.0378  0.3760
14776SOL    HW146002   6.056   8.117   1.131  0.1431  1.4735 -0.7566
14776SOL    HW246003   5.962   8.215   1.197 -1.1625  0.9916 -1.8438
14777SOL     OW46004   5.366   3.394   0.863 -0.8978  0.1350 -0.8016
14777SOL    HW146005   5.442   3.371   0.915  0.9250  1.8429 -2.5229
14777SOL    HW246006   5.292   3.387   0.923  0.3290 -3.1659  0.5185
14778SOL     OW46007   3.551   6.730   3.800 -0.2507  0.1064 -0.2027
14778SOL    HW146008   3.479   6.773   3.845  0.3660 -0.0153  0.9475
14778SOL    HW246009   3.537   6.749   3.708 -1.1434  0.9978  0.1026
14779SOL     OW46010   2.218   7.226   3.479  0.1614 -0.2389 -0.3290
14779SOL    HW146011   2.254   7.266   3.559  1.4591 -1.3223 -0.3383
14779SOL    HW246012   2.267   7.267   3.408 -1.7421  1.5327 -0.7142
14780SOL     OW46013   5.776   4.852   5.229  0.8062  0.2177  0.3248
14780SOL    HW146014   5.704   4.789   5.219  1.5643 -1.0811  2.3166
14780SOL    HW246015   5.852   4.809   5.190  0.7380  1.2329 -1.0145
14781SOL     OW46016   4.685   7.066   8.073 -0.3695 -0.3120  0.2956
14781SOL    HW146017   4.664   7.029   7.988  1.0424  0.2041 -0.3140
14781SOL    HW246018   4.681   6.992   8.134  0.4048 -1.0764 -0.5487
14782SOL     OW46019   6.959   1.593   5.549 -0.3662 -0.2100  0.2229
14782SOL    HW146020   6.942   1.522   5.611  1.6558 -1.4401 -0.5431
14782SOL    HW246021   7.047   1.623   5.569 -0.1276  0.1886 -1.2612
14783SOL     OW46022   7.162   4.472   2.297 -0.0490  0.7589  0.3506
14783SOL    HW146023   7.198   4.457   2.210  0.3156  2.4757  0.1694
14783SOL    HW246024   7.239   4.478   2.354 -0.2749 -0.1307  0.7650
14784SOL     OW46025   3.049   6.923   9.610 -0.1813 -0.1827  0.1531
14784SOL    HW146026   2.985   6.944   9.542 -0.8007  1.8278  1.2475
14784SOL    HW246027   3.133   6.940   9.569 -0.4996  0.1020 -0.3970
14785SOL     OW46028   1.944   8.547   3.438  0.5156  0.2470 -0.2741
14785SOL    HW146029   2.017   8.607   3.449  0.8678 -0.5530  2.4346
14785SOL    HW246030   1.982   8.460   3.451 -0.7622 -0.2248  0.5038
14786SOL     OW46031   5.014   9.054   1.424  0.3779  0.4463 -0.1656
14786SOL    HW146032   4.923   9.048   1.453  0.5784 -1.5969  0.2240
14786SOL    HW246033   5.064   9.061   1.506  0.6666 -0.5242 -0.2443
14787SOL     OW46034   5.321   2.758   1.934 -0.4186  0.0561 -0.3460
14787SOL    HW146035   5.229   2.753   1.911 -0.4405  0.3144 -0.3200
14787SOL    HW246036   5.352   2.668   1.932 -0.9265 -0.1555  0.6608
14788SOL     OW46037   3.761   8.920   4.937  0.0747 -0.0921 -0.2914
14788SOL    HW146038   3.798   8.936   4.850 -0.2306 -2.1055 -0.8285
14788SOL    HW246039   3.668   8.906   4.921  0.1351 -1.1629  0.2666
14789SOL     OW46040   1.326   1.403   5.661  0.2880  0.3601 -0.9339
14789SOL    HW146041   1.237   1.424   5.635 -0.3613 -0.7122  0.3092
14789SOL    HW246042   1.381   1.441   5.592 -1.0210  2.2595 -1.0049
14790SOL     OW46043   9.121   8.217   3.761 -0.0789 -0.1033  0.3508
14790SOL    HW146044   9.051   8.200   3.698  0.4377 -0.8736 -0.0341
14790SOL    HW246045   9.107   8.307   3.789 -1.3462 -0.3057  0.4406
14791SOL     OW46046   1.500   9.385   3.512 -0.2482 -0.2963 -0.3354
14791SOL    HW146047   1.413   9.354   3.539 -0.0715 -1.0633 -0.6282
14791SOL    HW246048   1.495   9.480   3.521 -1.2133 -0.3109 -0.6138
14792SOL     OW46049   1.692   6.524   5.122  0.4497 -0.2039  0.0483
14792SOL    HW146050   1.661   6.528   5.032  0.0223  0.9371  0.2393
14792SOL    HW246051   1.764   6.460   5.119 -0.3279 -1.0834 -0.8537
14793SOL     OW46052   8.581   0.413   1.245  0.4869 -0.5040  0.1855
14793SOL    HW146053   8.521   0.470   1.197  0.3921  0.1869  1.1030
14793SOL    HW246054   8.543   0.326   1.238 -0.0369 -0.2512 -0.1625
14794SOL     OW46055   3.081   7.257   8.521 -0.5207 -0.1124  0.2134
14794SOL    HW146056   3.060   7.230   8.431  1.4017  1.1692 -0.6731
14794SOL    HW246057   3.037   7.341   8.532  1.8441  1.3711 -0.7880
14795SOL     OW46058   0.312   9.625   0.685 -0.0111  0.1826 -0.3095
14795SOL    HW146059   0.282   9.716   0.682  0.5042  0.3438 -0.7758
14795SOL    HW246060   0.404   9.630   0.657  0.1490 -0.4248  0.0976
14796SOL     OW46061   4.914   3.958   8.858  0.5782  0.3414  0.0901
14796SOL    HW146062   4.968   4.004   8.793  1.2969  0.4199  0.7214
14796SOL    HW246063   4.977   3.925   8.922 -0.1827  1.2084  1.3342
14797SOL     OW46064   5.809   0.318   7.346 -0.3421  0.2325 -0.0926
14797SOL    HW146065   5.890   0.344   7.302 -0.1948 -0.7435 -0.4119
14797SOL    HW246066   5.740   0.365   7.299 -0.2895 -1.5009 -2.0110
14798SOL     OW46067   2.554   0.091   4.003  0.4676  0.0787  0.1363
14798SOL    HW146068   2.525   0.162   4.060  1.1374 -0.2687  0.9326
14798SOL    HW246069   2.623   0.130   3.949  0.3463  0.2171  0.0815
14799SOL     OW46070   2.495   6.273   2.436 -0.2869  0.0004 -0.5779
14799SOL    HW146071   2.520   6.225   2.357  0.4750 -1.5978  0.5908
14799SOL    HW246072   2.577   6.307   2.471 -0.4890 -0.1785  0.0798
14800SOL     OW46073   4.656   6.548   4.475  0.5536 -0.5401 -0.7481
14800SOL    HW146074   4.667   6.521   4.566  1.4174  0.3354 -0.5739
14800SOL    HW246075   4.688   6.474   4.423  0.9676 -0.6592 -0.3236
14801SOL     OW46076   8.479   7.927   0.279 -0.7960  0.7492 -0.4459
14801SOL    HW146077   8.464   8.008   0.329 -1.4105 -0.0981  0.7937
14801SOL    HW246078   8.493   7.860   0.345  3.7865  0.4475 -1.4087
14802SOL     OW46079   3.909   0.514   0.704  0.4858 -0.1436  0.4846
14802SOL    HW146080   3.883   0.561   0.783 -1.5620  0.0148 -0.2213
14802SOL    HW246081   3.997   0.480   0.724  1.1672  2.1603  1.7892
14803SOL     OW46082   0.968   4.208   9.285 -0.3206 -0.1228  0.5715
14803SOL    HW146083   1.042   4.182   9.231 -1.2527  0.7651 -1.2364
14803SOL    HW246084   1.004   4.272   9.347  0.4218  0.3275 -0.3050
14804SOL     OW46085   1.906   3.394   3.462  0.1278  0.4146  0.2604
14804SOL    HW146086   1.972   3.460   3.440  0.2307  0.1261 -0.3215
14804SOL    HW246087   1.871   3.422   3.547  1.7303  0.0168  1.0980
14805SOL     OW46088   8.011   0.510   7.682 -0.0550  0.0905  1.1443
14805SOL    HW146089   8.084   0.447   7.686  2.0343  2.3687  1.0320
14805SOL    HW246090   7.964   0.486   7.602  0.9447 -1.0524  0.8545
14806SOL     OW46091   0.780   4.273   0.959  0.0492 -0.0737  0.0116
14806SOL    HW146092   0.755   4.181   0.948  1.5081 -0.4436 -0.4716
14806SOL    HW246093   0.819   4.278   1.046  0.4147 -0.0333 -0.1501
14807SOL     OW46094   6.237   4.561   9.338  0.1841 -0.1964  0.0354
14807SOL    HW146095   6.174   4.552   9.409 -0.0450  0.6065 -0.0510
14807SOL    HW246096   6.250   4.656   9.330  0.6206 -0.3059 -0.6306
14808SOL     OW46097   8.969   5.596   0.310 -0.5965 -0.3198  0.2873
14808SOL    HW146098   8.953   5.600   0.216  0.5277  0.5109  0.1131
14808SOL    HW246099   9.044   5.654   0.325 -0.2670 -1.0236  1.5865
14809SOL     OW46100   1.732   2.349   3.515 -0.4705  0.0333  0.4834
14809SOL    HW146101   1.736   2.344   3.610 -0.7356  0.2826  0.5083
14809SOL    HW246102   1.640   2.340   3.493 -0.3996 -0.1221  0.2441
14810SOL     OW46103   8.995   3.322   1.641 -0.3983 -0.0126 -0.1617
14810SOL    HW146104   9.060   3.354   1.703  0.9015 -0.7603 -1.0679
14810SOL    HW246105   8.989   3.390   1.574  1.1318 -0.8405 -1.2171
14811SOL     OW46106   1.312   5.018   5.950  0.7455  0.1856  0.2602
14811SOL    HW146107   1.261   4.976   6.019  2.5079 -2.9030 -0.1417
14811SOL    HW246108   1.250   5.029   5.878 -0.2892  0.2978  1.1361
14812SOL     OW46109   1.292   5.846   1.557 -0.4030 -0.2465 -0.1080
14812SOL    HW146110   1.288   5.834   1.462 -0.5168  0.5223 -0.2088
14812SOL    HW246111   1.297   5.941   1.569  0.3195 -0.3662  0.6375
14813SOL     OW46112   6.132   7.631   4.464  0.3666 -0.0661  1.1131
14813SOL    HW146113   6.167   7.622   4.375 -0.5165  2.3194  0.4516
14813SOL    HW246114   6.204   7.666   4.515  0.3125  0.4916  0.8231
14814SOL     OW46115   4.319   6.861   9.459 -0.1881  0.0852 -0.2725
14814SOL    HW146116   4.269   6.937   9.430 -0.4841 -0.8507 -2.4264
14814SOL    HW246117   4.254   6.793   9.474  0.2465 -0.6076 -1.3555
14815SOL     OW46118   6.980   4.415   6.299 -0.2584  0.7364  0.0838
14815SOL    HW146119   6.952   4.462   6.377 -0.2487  0.5704  0.1885
14815SOL    HW246120   6.899   4.401   6.249 -0.3092  0.5866  0.2054
14816SOL     OW46121   9.097   7.461   0.249  0.4254 -0.2858  0.6456
14816SOL    HW146122   9.190   7.455   0.229  0.5607  1.1518  0.7305
14816SOL    HW246123   9.054   7.470   0.164  0.4030 -0.5062  0.6332
14817SOL     OW46124   9.184   1.637   2.391 -0.5435  0.6182 -0.1233
14817SOL    HW146125   9.226   1.723   2.391  0.7773  0.0217  1.4576
14817SOL    HW246126   9.199   1.602   2.303  1.4508  0.8418  0.0909
14818SOL     OW46127   5.342   5.495   2.226 -0.6103  0.3694  0.4257
14818SOL    HW146128   5.254   5.529   2.214 -0.3849  0.8635  0.1459
14818SOL    HW246129   5.349   5.424   2.161 -1.1500 -0.3657  1.1546
14819SOL     OW46130   8.669   7.765   0.729 -0.6831 -0.2575 -0.2829
14819SOL    HW146131   8.615   7.818   0.787 -0.3174 -0.5845  0.3791
14819SOL    HW246132   8.725   7.714   0.789  0.3644  0.0858 -0.9432
14820SOL     OW46133   1.309   5.773   8.393 -0.6085 -0.1686 -0.2218
14820SOL    HW146134   1.234   5.777   8.334 -0.1658  1.5270 -0.7200
14820SOL    HW246135   1.379   5.735   8.340 -0.8723 -0.9772 -0.0065
14821SOL     OW46136   3.442   6.409   7.100  0.7403 -0.1711 -0.3035
14821SOL    HW146137   3.472   6.384   7.013  1.9042  0.1104  0.0098
14821SOL    HW246138   3.349   6.430   7.088  1.1090  0.8097 -1.6693
14822SOL     OW46139   4.172   6.887   4.096 -0.5339 -0.0861 -0.4666
14822SOL    HW146140   4.085   6.896   4.135  0.0558 -0.6904  1.0703
14822SOL    HW246141   4.212   6.973   4.106  0.4567 -0.7909  2.5087
14823SOL     OW46142   4.295   4.986   7.734  0.8271  0.4934 -0.1070
14823SOL    HW146143   4.345   4.904   7.724  0.4551  0.3482 -0.8599
14823SOL    HW246144   4.351   5.042   7.788 -0.2196 -1.3406  3.1530
14824SOL     OW46145   0.360   2.816   6.394 -0.3986 -0.2741  0.3033
14824SOL    HW146146   0.428   2.867   6.439  0.6936 -0.4693 -1.0669
14824SOL    HW246147   0.317   2.879   6.336 -0.7777 -0.3574  0.4883
14825SOL     OW46148   2.988   4.231   8.676  0.4213  0.1668  0.3154
14825SOL    HW146149   3.037   4.195   8.602 -0.3531  1.6619 -0.9865
14825SOL    HW246150   3.055   4.258   8.739  1.0915 -0.9568  0.1149
14826SOL     OW46151   4.281   1.079   6.498  0.1098  0.2826 -0.2456
14826SOL    HW146152   4.334   1.027   6.438  1.4064  0.8437  0.3736
14826SOL    HW246153   4.195   1.085   6.456  0.4974 -0.7344 -1.2250
14827SOL     OW46154   0.686   4.247   8.505 -0.3400 -0.0102 -0.2693
14827SOL    HW146155   0.607   4.202   8.535 -0.3255  1.5141  2.4023
14827SOL    HW246156   0.744   4.177   8.475 -1.9339 -1.3374 -0.3613
14828SOL     OW46157   2.215   5.896   4.524  0.5011 -0.1907 -0.4035
14828SOL    HW146158   2.250   5.911   4.612  0.0803  0.9426 -0.4108
14828SOL    HW246159   2.288   5.915   4.466  0.0913  1.6554 -0.3933
14829SOL     OW46160   0.960   2.617   2.285 -0.4346 -0.4894  0.2950
14829SOL    HW146161   0.868   2.629   2.261 -0.4617  1.1802  1.0499
14829SOL    HW246162   1.009   2.668   2.220  0.1437 -2.6864 -1.1080
14830SOL     OW46163   0.108   4.772   6.143  0.1137 -0.0685  0.1949
14830SOL    HW146164   0.022   4.812   6.157 -0.3097 -0.2756 -1.5717
14830SOL    HW246165   0.171   4.839   6.171 -0.6133  0.6916  0.0542
14831SOL     OW46166   2.574   8.255   3.744 -0.0469  0.1345 -0.2308
14831SOL    HW146167   2.658   8.288   3.774  0.3261 -0.7656 -0.2324
14831SOL    HW246168   2.588   8.234   3.651 -0.7365  1.4288 -0.6548
14832SOL     OW46169   9.491   5.421   1.854  0.0235 -0.3609  0.1030
14832SOL    HW146170   9.560   5.424   1.921  0.1656  1.7697 -0.0632
14832SOL    HW246171   9.411   5.441   1.902  0.3067  2.6009 -0.4712
14833SOL     OW46172   6.472   0.761   7.445 -0.2494  0.5936 -0.0759
14833SOL    HW146173   6.394   0.709   7.424  0.9291 -1.2712 -0.1049
14833SOL    HW246174   6.507   0.787   7.359 -0.8514  1.4928 -0.0608
14834SOL     OW46175   6.547   0.843   1.009  0.4752 -0.3545  0.2465
14834SOL    HW146176   6.633   0.834   0.968  0.7372 -1.3590  0.9660
14834SOL    HW246177   6.549   0.779   1.081 -0.7616 -0.1685  0.4557
14835SOL     OW46178   0.833   2.699   1.862  0.3344  0.2089  0.1996
14835SOL    HW146179   0.878   2.661   1.787 -0.1606 -1.6388  0.8018
14835SOL    HW246180   0.753   2.737   1.826  0.6064  0.2598 -0.3515
14836SOL     OW46181   9.162   8.000   5.629  0.0891  0.3846  0.0986
14836SOL    HW146182   9.164   8.019   5.723 -0.8573  1.6996 -0.1223
14836SOL    HW246183   9.240   8.044   5.594  0.9169 -0.8117  0.3507
14837SOL     OW46184   3.501   1.035   6.084  0.1352 -0.0600  0.2190
14837SOL    HW146185   3.453   1.022   6.002 -0.0313 -2.0923  0.5941
14837SOL    HW246186   3.592   1.045   6.057  0.2281 -1.7475 -0.2077
14838SOL     OW46187   5.653   5.223   5.888  0.1002  0.4052  0.0367
14838SOL    HW146188   5.648   5.196   5.797 -0.6655  1.2838 -0.1958
14838SOL    HW246189   5.730   5.178   5.922  0.4840  0.1865 -1.0778
14839SOL     OW46190   1.093   3.566   3.633  0.1567 -0.1467  0.0743
14839SOL    HW146191   1.007   3.579   3.592  0.1199  1.6218  0.6179
14839SOL    HW246192   1.073   3.545   3.724  0.3062  0.2178  0.1904
14840SOL     OW46193   7.482   9.139   5.965  0.1569  0.4932  0.5804
14840SOL    HW146194   7.453   9.220   6.005 -0.1793  0.4426  0.4414
14840SOL    HW246195   7.401   9.092   5.943  0.3448 -0.0811  1.0771
14841SOL     OW46196   6.233   8.431   1.680  1.0778 -0.7863  0.2885
14841SOL    HW146197   6.318   8.472   1.693  0.4724  0.9519 -0.9329
14841SOL    HW246198   6.189   8.486   1.616 -0.8609 -1.8167  0.6575
14842SOL     OW46199   3.499   6.495   6.809 -0.5246  0.1185 -0.1391
14842SOL    HW146200   3.405   6.499   6.827 -0.3173 -0.2666  1.1950
14842SOL    HW246201   3.507   6.513   6.716 -2.0444 -1.2252 -0.5741
14843SOL     OW46202   4.568   9.311   6.346 -0.0970 -0.2826  0.4525
14843SOL    HW146203   4.512   9.282   6.418 -0.4096 -0.6265  0.0760
14843SOL    HW246204   4.531   9.269   6.269  0.9620 -0.9036  0.2631
14844SOL     OW46205   8.760   0.418   3.678 -0.6200 -0.2725 -0.4266
14844SOL    HW146206   8.818   0.364   3.731  0.0011  0.7216 -0.0591
14844SOL    HW246207   8.759   0.375   3.592  1.8829  0.4646 -0.9215
14845SOL     OW46208   2.386   1.474   6.658  0.2979 -0.0870  0.0632
14845SOL    HW146209   2.382   1.414   6.583 -0.5754 -0.0436  0.0688
14845SOL    HW246210   2.408   1.418   6.733 -0.2277 -0.3620  0.0163
14846SOL     OW46211   1.710   2.722   0.777 -0.6633 -0.3614 -0.1434
14846SOL    HW146212   1.751   2.803   0.746  1.7249 -1.5524 -0.3109
14846SOL    HW246213   1.705   2.734   0.872  1.5973 -0.7484  0.0897
14847SOL     OW46214   8.624   6.904   5.611  0.3185  0.1668  0.3494
14847SOL    HW146215   8.535   6.870   5.596  0.3066 -0.4145  1.6166
14847SOL    HW246216   8.677   6.825   5.623  1.5082  0.3726 -2.6507
14848SOL     OW46217   1.415   9.633   4.406  0.2382 -0.5567 -0.0843
14848SOL    HW146218   1.407   9.725   4.381  1.3946 -0.5169 -0.3546
14848SOL    HW246219   1.501   9.626   4.447  0.1886 -1.5312 -0.1104
14849SOL     OW46220   6.141   4.912   1.827  0.1847 -0.6273 -0.2175
14849SOL    HW146221   6.234   4.932   1.835  0.2896 -1.6591  1.6782
14849SOL    HW246222   6.126   4.907   1.733  2.2039 -1.1115 -0.5707
14850SOL     OW46223   2.951   4.700   2.293  0.1563 -0.5547  0.1559
14850SOL    HW146224   2.934   4.645   2.370  0.4042 -1.3613 -0.3539
14850SOL    HW246225   3.042   4.729   2.303  0.0204 -0.2137  0.4331
14851SOL     OW46226   4.372   8.762   0.735 -0.3427  0.7259 -0.3464
14851SOL    HW146227   4.415   8.785   0.653  0.1952  1.7838  0.2199
14851SOL    HW246228   4.416   8.814   0.802 -0.8372 -0.0381  0.6157
14852SOL     OW46229   8.373   5.446   3.632  0.0408 -0.0733 -0.1412
14852SOL    HW146230   8.359   5.368   3.686 -0.4826 -0.9137 -1.4453
14852SOL    HW246231   8.465   5.468   3.646  0.0604 -0.6042  0.6592
14853SOL     OW46232   1.026   8.371   6.863 -0.2602  0.0593  0.1352
14853SOL    HW146233   1.096   8.436   6.867 -0.2335 -0.0157  1.1673
14853SOL    HW246234   1.041   8.315   6.940  0.7069 -2.2008 -1.5630
14854SOL     OW46235   3.543   0.022   3.850  0.1472  0.1910 -0.5484
14854SOL    HW146236   3.632   0.056   3.836 -0.2058  1.1282 -0.5231
14854SOL    HW246237   3.505   0.081   3.915  0.1301 -1.3021  0.8556
14855SOL     OW46238   8.492   8.393   6.254  0.0870  0.0849  0.6636
14855SOL    HW146239   8.402   8.360   6.265  0.4907 -1.3539 -0.0420
14855SOL    HW246240   8.544   8.336   6.310  0.7654 -0.1969 -0.2412
14856SOL     OW46241   5.078   6.740   4.520 -0.2277  0.5384  0.2181
14856SOL    HW146242   5.068   6.803   4.592 -2.8693  0.8199 -0.2957
14856SOL    HW246243   5.060   6.655   4.560 -1.6884  0.6940 -0.0465
14857SOL     OW46244   1.636   8.105   2.823  0.7403  0.2448 -0.1636
14857SOL    HW146245   1.660   8.167   2.753  0.3589 -1.5737 -2.0002
14857SOL    HW246246   1.590   8.159   2.887 -0.3550  1.7642 -2.0962
14858SOL     OW46247   5.873   9.565   9.151  0.6019 -0.0634  0.2280
14858SOL    HW146248   5.858   9.535   9.062 -2.4695 -0.9417  0.9415
14858SOL    HW246249   5.868   9.661   9.145  1.4910 -0.0573 -0.6633
14859SOL     OW46250   4.087   2.130   3.462  0.1508  0.4793  0.2857
14859SOL    HW146251   4.115   2.046   3.426  0.1437  0.7021 -0.2600
14859SOL    HW246252   4.088   2.118   3.557  0.7682  0.0597  0.2345
14860SOL     OW46253   6.112   6.063   6.747  0.1406 -0.1312  0.0885
14860SOL    HW146254   6.101   5.992   6.810  0.4886 -0.7964 -0.5764
14860SOL    HW246255   6.033   6.116   6.756  0.0097 -0.4371  0.8021
14861SOL     OW46256   4.508   6.460   1.845  0.0443  0.7203 -0.0493
14861SOL    HW146257   4.465   6.520   1.784 -0.3952  1.1011  0.6201
14861SOL    HW246258   4.440   6.396   1.868  0.4248  0.1341 -0.5278
14862SOL     OW46259   8.810   7.331   1.280  0.1478  0.2600  0.0317
14862SOL    HW146260   8.877   7.270   1.310 -0.3664  0.5569  1.9603
14862SOL    HW246261   8.763   7.283   1.212  0.9326 -0.7717  0.1848
14863SOL     OW46262   3.325   7.080   9.231  0.7868 -0.0436 -0.8081
14863SOL    HW146263   3.310   7.004   9.176  1.2667 -0.4418 -0.4021
14863SOL    HW246264   3.301   7.051   9.319  0.1546  0.5410 -0.7782
14864SOL     OW46265   4.243   6.133   2.888  0.3774 -0.0466  0.1792
14864SOL    HW146266   4.166   6.082   2.913  0.5561  0.0778  1.0165
14864SOL    HW246267   4.307   6.067   2.859  0.0590 -0.1724 -0.2371
14865SOL     OW46268   8.772   3.291   5.760  0.1424 -0.3110 -0.0631
14865SOL    HW146269   8.677   3.276   5.768  0.1064 -0.3038 -0.4305
14865SOL    HW246270   8.792   3.269   5.669  0.4748 -0.2077 -0.0164
14866SOL     OW46271   1.864   5.871   3.039 -0.4982 -0.3771  0.0458
14866SOL    HW146272   1.900   5.934   2.977  0.2392 -1.6759 -0.8900
14866SOL    HW246273   1.875   5.786   2.996 -2.2399 -1.0793  0.8940
14867SOL     OW46274   0.634   3.761   1.646  0.3751 -0.1420  0.0278
14867SOL    HW146275   0.598   3.673   1.653  0.6696 -0.1627  1.7121
14867SOL    HW246276   0.587   3.801   1.572 -3.9568  0.1625  2.6135
14868SOL     OW46277   5.067   6.635   6.768  0.1700 -0.0459  0.3627
14868SOL    HW146278   4.973   6.648   6.751  0.1544 -1.9108 -1.4743
14868SOL    HW246279   5.072   6.614   6.861 -1.4827 -1.3624  0.2149
14869SOL     OW46280   2.020   2.755   7.744 -0.0653  0.0020  0.2533
14869SOL    HW146281   2.076   2.745   7.821 -0.1959 -0.1842  0.3257
14869SOL    HW246282   2.014   2.668   7.706  0.7396  0.2593 -0.4993
14870SOL     OW46283   7.512   5.993   0.449  0.2939  0.1421  0.2232
14870SOL    HW146284   7.548   6.049   0.518 -0.6679  2.9892 -1.4127
14870SOL    HW246285   7.588   5.968   0.396  1.1853 -2.7791  2.5476
14871SOL     OW46286   1.722   9.146   6.500 -0.0051 -0.1631 -0.5535
14871SOL    HW146287   1.734   9.203   6.576  1.5504 -0.7169 -0.3546
14871SOL    HW246288   1.738   9.203   6.424  0.1010  0.0027 -0.4073
14872SOL     OW46289   4.078   4.303   4.264  0.0844  0.0298  0.0667
14872SOL    HW146290   4.011   4.281   4.200 -0.7665  0.2344  0.8601
14872SOL    HW246291   4.160   4.300   4.215 -0.1943 -2.6923 -0.3682
14873SOL     OW46292   9.013   3.959   4.165 -0.1779 -0.3034  0.0022
14873SOL    HW146293   8.983   3.967   4.074  0.9421 -1.4202 -0.5036
14873SOL    HW246294   8.961   4.022   4.213 -1.2970 -0.1790 -1.3025
14874SOL     OW46295   8.975   9.188   0.194 -0.2696  0.1828  0.0730
14874SOL    HW146296   9.032   9.110   0.196  0.2229  0.5339  0.0043
14874SOL    HW246297   8.890   9.156   0.224 -0.3678 -0.6206 -1.0184
14875SOL     OW46298   5.463   7.829   2.938  0.1729  0.0130 -0.4493
14875SOL    HW146299   5.495   7.775   2.866 -1.4613  0.2963 -1.4346
14875SOL    HW246300   5.378   7.792   2.959  0.0203  0.8198  0.3933
14876SOL     OW46301   9.535   4.617   8.885 -0.4165 -0.5256  0.0615
14876SOL    HW146302   9.474   4.646   8.817 -1.7408 -1.7150  0.6893
14876SOL    HW246303   9.531   4.686   8.951 -0.6447 -0.3279 -0.1569
14877SOL     OW46304   5.835   7.313   1.028  0.2974 -0.2514  0.1293
14877SOL    HW146305   5.919   7.320   1.073  0.5792  0.8978 -0.5498
14877SOL    HW246306   5.781   7.382   1.067 -0.7492 -1.7044  1.3758
14878SOL     OW46307   0.735   5.071   1.916 -0.2057 -0.1134 -1.1776
14878SOL    HW146308   0.768   5.161   1.922  1.4771 -0.8041  1.2119
14878SOL    HW246309   0.642   5.078   1.939  0.3869  0.8123  1.2041
14879SOL     OW46310   3.965   8.495   7.649  0.4874 -0.1792  0.5130
14879SOL    HW146311   3.999   8.583   7.662  0.0503  0.0489  0.1649
14879SOL    HW246312   4.013   8.462   7.573 -0.9346  0.6237 -0.7843
14880SOL     OW46313   3.733   4.818   2.138  0.6731  0.0537 -0.0375
14880SOL    HW146314   3.780   4.900   2.151 -1.3533  1.2264  0.3709
14880SOL    HW246315   3.793   4.750   2.169  1.8620  1.5051  0.9552
14881SOL     OW46316   3.012   5.821   1.220 -0.0534 -0.4906 -0.0116
14881SOL    HW146317   2.947   5.810   1.291 -2.1019 -1.1763 -1.8808
14881SOL    HW246318   3.015   5.736   1.177 -1.2831  0.7016 -2.6760
14882SOL     OW46319   6.965   2.377   1.958 -0.6355  0.0404 -0.3011
14882SOL    HW146320   6.939   2.460   1.918  0.5323  0.1840 -0.7877
14882SOL    HW246321   6.886   2.346   2.002 -0.8663  1.8303  0.6116
14883SOL     OW46322   7.545   4.287   3.915  0.0148  0.3736 -0.1169
14883SOL    HW146323   7.498   4.324   3.990  0.6530  1.6353 -0.3034
14883SOL    HW246324   7.609   4.354   3.892  0.3930 -0.3552 -1.2720
14884SOL     OW46325   4.160   0.633   7.871  0.0384 -0.0904 -0.1427
14884SOL    HW146326   4.102   0.709   7.866  0.8184  0.4682 -1.3601
14884SOL    HW246327   4.242   0.667   7.907  0.2378 -0.4518 -0.2504
14885SOL     OW46328   7.655   9.479   6.420 -0.1700 -0.4637 -0.2386
14885SOL    HW146329   7.704   9.561   6.424  1.0839 -1.1102 -1.5669
14885SOL    HW246330   7.570   9.504   6.384  0.2658  0.2409 -0.8161
14886SOL     OW46331   3.247   2.154   7.801 -0.0839 -0.3147  0.0992
14886SOL    HW146332   3.257   2.249   7.812  1.1029 -0.5438  1.2721
14886SOL    HW246333   3.181   2.129   7.865  1.2191 -0.5576  1.4082
14887SOL     OW46334   4.809   3.218   8.851  0.2082 -0.2648 -0.5436
14887SOL    HW146335   4.739   3.283   8.846  1.0776  0.7815  0.3657
14887SOL    HW246336   4.887   3.268   8.876  0.7411 -1.7606  0.9543
14888SOL     OW46337   7.233   5.600   0.762  0.1689  0.0488 -0.0733
14888SOL    HW146338   7.137   5.593   0.766  0.1511 -2.7670 -2.1978
14888SOL    HW246339   7.251   5.692   0.779 -2.8861  0.6290  0.6749
14889SOL     OW46340   6.989   4.402   5.237 -0.2490 -0.0950 -0.4576
14889SOL    HW146341   7.017   4.352   5.159 -0.7250 -1.2382  0.0761
14889SOL    HW246342   7.054   4.379   5.304 -0.9881 -0.7412  0.0544
14890SOL     OW46343   2.691   5.654   4.223 -0.2057  0.4188 -0.0648
14890SOL    HW146344   2.761   5.604   4.264  0.5052  0.2327 -1.4341
14890SOL    HW246345   2.611   5.627   4.269  0.1763 -1.8401 -0.6296
14891SOL     OW46346   7.049   2.911   5.965 -0.5482 -0.0401  0.2875
14891SOL    HW146347   7.032   3.004   5.947  2.1579  0.2230 -1.6988
14891SOL    HW246348   7.105   2.884   5.893  1.1943 -2.4318  2.3809
14892SOL     OW46349   6.786   8.744   2.343 -0.0511  0.1733 -0.5989
14892SOL    HW146350   6.846   8.770   2.412  1.8067  0.7175 -2.3155
14892SOL    HW246351   6.831   8.673   2.297 -1.1990 -0.1414 -1.2938
14893SOL     OW46352   5.085   2.675   6.633 -0.3652  0.6274 -0.1360
14893SOL    HW146353   5.179   2.689   6.642 -0.4652  1.7036 -0.6328
14893SOL    HW246354   5.070   2.588   6.670  0.8340  0.4038 -0.1448
14894SOL     OW46355   7.172   9.554   6.093  0.0841 -0.8484 -0.1363
14894SOL    HW146356   7.097   9.570   6.150 -0.2207  1.5435 -1.0876
14894SOL    HW246357   7.237   9.619   6.120  0.4534 -0.5854 -1.5662
14895SOL     OW46358   6.438   8.463   3.014 -0.2955 -0.0732  0.3169
14895SOL    HW146359   6.483   8.544   3.037  0.6289  0.3794 -2.7298
14895SOL    HW246360   6.505   8.395   3.020 -0.3212 -0.1234  0.0491
14896SOL     OW46361   9.176   7.316   9.660 -0.2175 -0.0561 -0.5326
14896SOL    HW146362   9.252   7.313   9.718 -0.7782 -0.2979  0.2049
14896SOL    HW246363   9.205   7.368   9.584  1.0617 -1.1670 -0.8311
14897SOL     OW46364   4.137   8.679   6.620  0.2308  0.2006  0.0223
14897SOL    HW146365   4.099   8.652   6.704  0.8655 -2.5534 -0.4653
14897SOL    HW246366   4.070   8.734   6.579 -1.0643 -0.3432  1.3294
14898SOL     OW46367   6.697   7.328   2.632 -0.2875 -0.1261 -0.1600
14898SOL    HW146368   6.788   7.357   2.629  0.0808 -0.7591  2.5390
14898SOL    HW246369   6.670   7.324   2.540  2.8455 -1.3393 -1.1604
14899SOL     OW46370   0.594   7.455   6.313  0.1207  0.8966 -0.0433
14899SOL    HW146371   0.566   7.423   6.399  0.0892  0.6909 -0.1286
14899SOL    HW246372   0.625   7.376   6.267 -1.5181  0.6776 -0.8762
14900SOL     OW46373   9.518   7.822   1.767  0.3637 -0.0992  0.2856
14900SOL    HW146374   9.519   7.751   1.832 -0.7098  2.1048  2.8768
14900SOL    HW246375   9.583   7.884   1.799 -1.2218  1.7248  0.0863
14901SOL     OW46376   6.128   3.055   3.531 -0.1122  0.0682  0.2213
14901SOL    HW146377   6.185   2.999   3.582  0.7782  0.0871 -0.7283
14901SOL    HW246378   6.170   3.141   3.533 -0.8992  0.4591  0.7613
14902SOL     OW46379   5.087   5.563   1.806  0.2022 -0.1923 -0.1316
14902SOL    HW146380   5.115   5.586   1.894 -0.0041 -1.2725  0.2244
14902SOL    HW246381   5.076   5.647   1.762  1.5056  0.3358  0.4906
14903SOL     OW46382   5.074   0.691   6.202 -0.1306  0.4147  0.5203
14903SOL    HW146383   4.999   0.741   6.169 -0.0608  0.9163  1.1134
14903SOL    HW246384   5.074   0.610   6.150 -1.3552  0.2002  0.8241
14904SOL     OW46385   3.368   6.692   8.594  0.0293  0.1102 -0.7659
14904SOL    HW146386   3.405   6.623   8.540  0.8195 -1.5028  1.6913
14904SOL    HW246387   3.407   6.773   8.560 -0.1104 -0.7076 -3.0353
14905SOL     OW46388   3.368   3.353   6.802 -0.0981 -0.0127  0.6535
14905SOL    HW146389   3.381   3.414   6.729  0.8122  0.9964  1.6190
14905SOL    HW246390   3.445   3.364   6.857  0.1501 -2.1602  0.8133
14906SOL     OW46391   1.912   6.622   4.908  0.0093  0.1331  0.0133
14906SOL    HW146392   1.875   6.699   4.950  0.5122 -0.1259  0.9759
14906SOL    HW246393   1.837   6.577   4.870 -0.4535  0.4401  0.5486
14907SOL     OW46394   0.115   9.099   3.445  0.5036  0.4013  0.2160
14907SOL    HW146395   0.083   9.030   3.502 -0.4732  0.5916 -0.0934
14907SOL    HW246396   0.199   9.066   3.412  0.4679 -0.2495  0.7575
14908SOL     OW46397   4.743   6.361   7.249 -0.3257 -0.1403 -0.3400
14908SOL    HW146398   4.651   6.363   7.274 -0.6466  0.8258 -1.4832
14908SOL    HW246399   4.783   6.434   7.296  0.2933 -1.6434  1.5824
14909SOL     OW46400   6.961   4.700   5.780  0.1709 -0.2183 -0.1059
14909SOL    HW146401   7.043   4.748   5.764  0.4171 -1.0034 -1.3032
14909SOL    HW246402   6.940   4.659   5.696 -1.7927  0.4593  0.0054
14910SOL     OW46403   2.724   7.085   8.460 -0.2169  0.0112 -0.3535
14910SOL    HW146404   2.735   7.163   8.515  0.0148 -1.6063  2.0274
14910SOL    HW246405   2.801   7.086   8.403  0.6628  0.6559  0.7994
14911SOL     OW46406   3.684   2.254   1.263  0.2106 -0.5081 -0.9185
14911SOL    HW146407   3.646   2.169   1.283 -0.9394  0.0470 -0.6819
14911SOL    HW246408   3.633   2.286   1.189 -0.8534  0.9320  0.3822
14912SOL     OW46409   8.881   6.742   6.759 -0.3930  0.0984  0.3722
14912SOL    HW146410   8.831   6.701   6.829 -0.0015  0.2321  0.7321
14912SOL    HW246411   8.906   6.669   6.701 -0.8111  0.0049  0.3108
14913SOL     OW46412   2.341   5.836   8.224 -0.2272  0.3670  0.1479
14913SOL    HW146413   2.299   5.755   8.193  1.4087 -0.3368 -0.3164
14913SOL    HW246414   2.320   5.900   8.156  0.7700 -0.3983 -0.9263
14914SOL     OW46415   7.792   8.645   5.282 -0.3329 -0.2275  0.2458
14914SOL    HW146416   7.847   8.622   5.357  0.9491 -0.2109 -0.6473
14914SOL    HW246417   7.825   8.591   5.210 -1.4688 -0.1762 -0.3298
14915SOL     OW46418   1.470   1.319   9.542 -0.3851  0.1058  0.4391
14915SOL    HW146419   1.507   1.407   9.537  0.6092 -0.2475  1.1744
14915SOL    HW246420   1.510   1.272   9.468  0.3015 -0.1464  0.9596
14916SOL     OW46421   4.396   3.816   5.858  0.2337 -0.4404 -0.0292
14916SOL    HW146422   4.369   3.726   5.878 -0.4701  0.2339  2.4054
14916SOL    HW246423   4.432   3.811   5.770 -1.6011 -2.7317 -0.7558
14917SOL     OW46424   6.225   0.994   6.343  0.3070 -0.2908 -0.1838
14917SOL    HW146425   6.210   0.962   6.254 -1.1718 -0.6771  0.1832
14917SOL    HW246426   6.152   1.054   6.359 -0.1948 -1.2328  1.2271
14918SOL     OW46427   6.025   1.284   0.346  0.4891  0.2010  0.1950
14918SOL    HW146428   6.104   1.334   0.367  0.2573  1.0446 -0.9076
14918SOL    HW246429   6.051   1.192   0.358  1.1811  0.5295  1.3288
14919SOL     OW46430   3.252   1.304   0.882 -0.0637 -0.3698 -0.4239
14919SOL    HW146431   3.213   1.391   0.880 -0.1711 -0.4228 -0.5941
14919SOL    HW246432   3.202   1.253   0.819  0.1111 -0.5094 -0.4514
14920SOL     OW46433   6.260   3.021   2.274 -0.1841 -0.3906 -0.3909
14920SOL    HW146434   6.201   3.096   2.274 -1.7970 -1.6268 -0.0110
14920SOL    HW246435   6.304   3.026   2.359  0.8943  0.9414 -0.9610
14921SOL     OW46436   7.105   7.580   8.024 -0.2516  0.2401 -0.0566
14921SOL    HW146437   7.015   7.561   8.051 -0.6362  1.4628 -0.4247
14921SOL    HW246438   7.150   7.496   8.031 -1.6400 -0.6048 -0.7476
14922SOL     OW46439   3.042   6.381   8.339 -0.1386 -0.7315  0.1967
14922SOL    HW146440   3.039   6.325   8.417  0.9607 -0.1180  0.6998
14922SOL    HW246441   3.002   6.463   8.368 -1.3547 -1.0795 -0.4167
14923SOL     OW46442   7.963   6.453   3.372  0.4721 -0.1403 -0.0244
14923SOL    HW146443   8.021   6.481   3.301 -1.5703  1.5474 -1.1296
14923SOL    HW246444   7.905   6.528   3.387 -0.5988 -1.2769  1.9046
14924SOL     OW46445   5.245   6.259   8.669 -0.2287 -0.5393 -0.5334
14924SOL    HW146446   5.248   6.346   8.709 -0.2022 -1.6803  2.1435
14924SOL    HW246447   5.236   6.277   8.575 -3.9882  2.3915  0.1044
14925SOL     OW46448   2.952   1.390   2.392 -0.2979 -0.1784  0.5753
14925SOL    HW146449   2.950   1.328   2.319 -1.1635 -1.4364  1.6287
14925SOL    HW246450   2.866   1.432   2.390  0.2348  0.9358 -0.0489
14926SOL     OW46451   2.215   5.599   9.636  0.0168  0.3950 -0.7813
14926SOL    HW146452   2.177   5.531   9.581  0.0716 -0.1825 -0.1209
14926SOL    HW246453   2.297   5.621   9.592  0.5819 -0.8183 -0.4059
14927SOL     OW46454   9.438   6.795   2.494  0.0698 -0.1996  0.4715
14927SOL    HW146455   9.467   6.720   2.441 -1.0741  0.7806 -1.6604
14927SOL    HW246456   9.519   6.837   2.522  0.7149 -1.5985  0.7974
14928SOL     OW46457   6.815   4.127   4.365  0.6547  0.2953 -0.5548
14928SOL    HW146458   6.753   4.200   4.360 -1.7944 -1.7143 -1.7686
14928SOL    HW246459   6.792   4.081   4.445 -0.1136 -0.9552 -1.4503
14929SOL     OW46460   0.207   4.213   4.787  0.4675  0.2313  0.4819
14929SOL    HW146461   0.292   4.207   4.743 -1.1829 -0.1291 -2.9910
14929SOL    HW246462   0.172   4.124   4.783 -1.2065  0.8967 -0.7802
14930SOL     OW46463   6.940   7.715   5.818  0.9292 -0.3407  0.1818
14930SOL    HW146464   6.872   7.651   5.795  0.7710 -0.0803 -0.0732
14930SOL    HW246465   6.954   7.765   5.738  0.9206  0.0659  0.4311
14931SOL     OW46466   1.044   4.715   7.805 -0.1074  0.4383 -0.0053
14931SOL    HW146467   0.990   4.691   7.730  0.3178  0.8453 -0.4532
14931SOL    HW246468   1.021   4.652   7.873  0.9411 -1.2402 -1.1167
14932SOL     OW46469   2.567   1.586   1.270  0.3377 -0.2586 -0.2025
14932SOL    HW146470   2.496   1.538   1.227 -0.8625  2.5994 -1.6818
14932SOL    HW246471   2.638   1.587   1.206  0.8395 -1.0535  0.3214
14933SOL     OW46472   0.457   8.723   2.265 -0.6807 -0.2060  0.0069
14933SOL    HW146473   0.516   8.689   2.333 -0.3988 -1.0278 -0.6310
14933SOL    HW246474   0.486   8.814   2.252  0.3964 -0.5607 -0.2203
14934SOL     OW46475   6.414   8.708   9.546  0.4015  0.2235  0.9040
14934SOL    HW146476   6.474   8.738   9.478  2.3519 -3.1338  0.9540
14934SOL    HW246477   6.359   8.642   9.503 -0.8222  0.6314  1.7662
14935SOL     OW46478   5.383   6.100   5.596 -0.1350  0.1066  0.0971
14935SOL    HW146479   5.363   6.007   5.583 -0.7365  0.2699 -0.2006
14935SOL    HW246480   5.307   6.135   5.643 -1.1721  0.9857 -2.0559
14936SOL     OW46481   5.014   5.966   0.479 -0.6581 -0.2158 -0.0871
14936SOL    HW146482   4.965   6.043   0.451  0.3811  0.4465 -0.1290
14936SOL    HW246483   5.010   5.906   0.405  0.6797  0.8541 -1.0846
14937SOL     OW46484   3.436   3.024   6.113  0.2787 -0.7462 -0.5920
14937SOL    HW146485   3.476   2.940   6.132  2.2479  0.4277  0.8265
14937SOL    HW246486   3.435   3.030   6.018  0.7762 -2.0437 -0.6967
14938SOL     OW46487   2.168   0.181   8.700  0.6915 -0.1581 -0.3743
14938SOL    HW146488   2.129   0.238   8.766 -0.4418 -1.0700 -0.2173
14938SOL    HW246489   2.258   0.166   8.731  0.4834  0.2174  0.4343
14939SOL     OW46490   6.482   5.225   2.808 -0.3509 -0.3173 -0.1980
14939SOL    HW146491   6.439   5.179   2.736  0.9886 -2.7796  0.4683
14939SOL    HW246492   6.434   5.197   2.887 -0.5879  0.8189  0.0789
14940SOL     OW46493   5.443   3.676   0.693  0.0598 -0.5631 -0.6565
14940SOL    HW146494   5.441   3.636   0.606 -0.2443  0.1104 -0.9714
14940SOL    HW246495   5.402   3.611   0.750 -1.0948 -0.4267 -1.2903
14941SOL     OW46496   8.219   4.646   9.433  0.5660  0.1210  0.1506
14941SOL    HW146497   8.310   4.651   9.464  0.4117  2.4128  0.4153
14941SOL    HW246498   8.170   4.615   9.508  1.0781 -0.8497  0.0986
14942SOL     OW46499   1.602   0.349   4.697  0.1657 -0.2924  0.0386
14942SOL    HW146500   1.514   0.325   4.726  0.1437  0.4045  0.5632
14942SOL    HW246501   1.587   0.404   4.620  0.0861  0.7684  0.7917
14943SOL     OW46502   8.413   7.937   0.697  0.0600 -0.4431  0.4154
14943SOL    HW146503   8.435   7.897   0.780  1.1360  1.0275  0.8935
14943SOL    HW246504   8.356   7.874   0.653  0.6672 -1.8819  1.6268
14944SOL     OW46505   7.032   3.890   3.916 -0.3622  0.5453 -0.1313
14944SOL    HW146506   7.035   3.890   4.011 -0.1398  1.3863 -0.1387
14944SOL    HW246507   6.961   3.828   3.895  0.4690 -0.6841  0.5312
14945SOL     OW46508   7.474   3.458   8.231 -0.7773 -0.6935  0.0939
14945SOL    HW146509   7.412   3.385   8.226 -1.4189 -0.0988 -1.2142
14945SOL    HW246510   7.545   3.433   8.171 -1.1948 -0.0874 -0.6705
14946SOL     OW46511   7.975   8.480   0.633 -0.3600 -0.1079  0.1554
14946SOL    HW146512   8.068   8.484   0.659 -0.5630  0.0154  0.8724
14946SOL    HW246513   7.930   8.536   0.696 -1.0472 -0.8647  0.3465
14947SOL     OW46514   7.892   7.206   2.284 -0.3512 -0.4749  0.0416
14947SOL    HW146515   7.838   7.192   2.205 -0.4780 -0.7354  0.1725
14947SOL    HW246516   7.888   7.301   2.299  0.9950 -0.1850 -1.1954
14948SOL     OW46517   3.588   6.884   2.783 -0.1188 -0.4977 -0.4515
14948SOL    HW146518   3.551   6.953   2.729 -1.6541 -0.3737  0.7027
14948SOL    HW246519   3.514   6.849   2.832  1.1245 -0.9841  1.1626
14949SOL     OW46520   8.318   3.419   6.185 -0.5058 -0.1753  0.1266
14949SOL    HW146521   8.410   3.439   6.199 -0.8391  1.8141 -0.2678
14949SOL    HW246522   8.313   3.388   6.095 -0.1338 -1.0026  0.3827
14950SOL     OW46523   2.262   0.058   7.317 -0.1846  0.1310  0.0124
14950SOL    HW146524   2.287   0.130   7.375 -1.7144  0.0408  0.8275
14950SOL    HW246525   2.173   0.078   7.289 -0.5098 -1.2487 -0.0274
14951SOL     OW46526   2.068   0.465   3.957  0.8010 -0.2405  0.4670
14951SOL    HW146527   2.052   0.445   3.865  0.9192 -0.1661  0.4299
14951SOL    HW246528   2.161   0.443   3.970  0.5542 -1.1453  0.7994
14952SOL     OW46529   6.996   9.458   0.352 -0.0132 -0.2753  0.9567
14952SOL    HW146530   7.050   9.536   0.344  0.4689 -0.5355  1.5895
14952SOL    HW246531   7.003   9.415   0.266  0.2827  0.0122  0.8351
14953SOL     OW46532   4.544   9.021   1.467  0.0918  0.0789  0.2889
14953SOL    HW146533   4.539   9.011   1.372  1.8054 -1.3911  0.2796
14953SOL    HW246534   4.568   8.934   1.498 -0.6406  0.4903  2.1013
14954SOL     OW46535   3.012   8.410   9.189  0.2903 -0.3693  0.0550
14954SOL    HW146536   2.951   8.406   9.116 -0.7440  0.6678  0.8210
14954SOL    HW246537   3.088   8.358   9.161  0.8444  1.7071 -2.5811
14955SOL     OW46538   4.567   1.959   6.621 -0.5923  0.1113 -0.7535
14955SOL    HW146539   4.477   1.953   6.589 -0.8552 -1.6083  0.1713
14955SOL    HW246540   4.614   1.890   6.575  0.1939  0.7804 -0.9804
14956SOL     OW46541   8.535   3.650   4.725 -0.0570  0.2969  0.0285
14956SOL    HW146542   8.514   3.558   4.741  0.6348 -0.1072 -1.2478
14956SOL    HW246543   8.631   3.654   4.732  0.0383  0.6307 -1.2152
14957SOL     OW46544   7.415   7.329   2.961  0.1769 -0.1137 -0.2676
14957SOL    HW146545   7.500   7.362   2.991 -0.6429  0.2474  1.8397
14957SOL    HW246546   7.422   7.328   2.866  2.6349 -0.3651 -0.1442
14958SOL     OW46547   4.551   3.438   4.997 -0.0370  0.2813 -0.0166
14958SOL    HW146548   4.546   3.523   5.039 -0.2494  0.1444  0.2344
14958SOL    HW246549   4.644   3.415   5.001 -0.0333  0.3388  0.2346
14959SOL     OW46550   6.706   2.048   8.757 -0.2985  0.0969 -0.9717
14959SOL    HW146551   6.756   2.090   8.688 -0.2677  1.8599  0.0645
14959SOL    HW246552   6.672   2.120   8.810  0.0944 -1.1794  1.1404
14960SOL     OW46553   7.099   7.586   9.304 -0.5536 -0.2729 -0.7180
14960SOL    HW146554   7.128   7.539   9.382  1.3331  1.2718 -0.4120
14960SOL    HW246555   7.064   7.518   9.246 -2.0222 -1.4550  1.4389
14961SOL     OW46556   5.703   7.766   5.373  0.1567 -0.1788  0.2279
14961SOL    HW146557   5.703   7.703   5.301  0.3691  0.1124 -0.0341
14961SOL    HW246558   5.624   7.746   5.423 -0.2889 -0.0314 -0.4005
14962SOL     OW46559   1.641   1.072   5.824 -0.6246 -0.6759 -0.1872
14962SOL    HW146560   1.693   1.150   5.802 -0.2698 -1.1853 -1.1971
14962SOL    HW246561   1.702   0.999   5.813 -0.9663 -1.1151  0.7144
14963SOL     OW46562   0.921   3.464   0.746 -0.0958  0.1552 -0.2922
14963SOL    HW146563   0.987   3.533   0.755  1.3253 -1.0852 -0.8236
14963SOL    HW246564   0.840   3.511   0.724  1.2377  1.5558 -2.6514
14964SOL     OW46565   9.651   3.221   6.265  0.4891 -0.5313 -0.3476
14964SOL    HW146566   9.571   3.236   6.314  0.3301 -1.8922 -0.1640
14964SOL    HW246567   9.690   3.308   6.256 -0.5651  0.0281  0.3024
14965SOL     OW46568   1.259   9.556   5.913  0.3069  0.5668  0.1417
14965SOL    HW146569   1.200   9.524   5.845 -2.7488  0.1554  2.7727
14965SOL    HW246570   1.253   9.651   5.909 -0.6781  0.5240  0.4588
14966SOL     OW46571   2.664   0.826   1.863  0.0378 -0.1792 -0.3833
14966SOL    HW146572   2.734   0.796   1.805 -1.1693  1.1397 -2.7084
14966SOL    HW246573   2.697   0.908   1.900  0.1713 -0.1360 -0.5925
14967SOL     OW46574   8.824   6.096   4.566 -0.5187  0.0467 -0.0650
14967SOL    HW146575   8.914   6.128   4.568 -0.2310 -0.7576  1.8641
14967SOL    HW246576   8.800   6.086   4.658 -0.6975 -4.7092 -0.3726
14968SOL     OW46577   8.190   1.889   4.097  0.0931 -0.6549  0.2765
14968SOL    HW146578   8.165   1.834   4.022 -0.4290  1.5843 -1.3217
14968SOL    HW246579   8.120   1.876   4.160  0.6872 -2.8267  0.5892
14969SOL     OW46580   8.800   7.851   2.535 -0.1999 -0.0183  0.1982
14969SOL    HW146581   8.833   7.778   2.588  2.8885 -0.0039 -1.4515
14969SOL    HW246582   8.741   7.809   2.472 -1.1701 -0.5226  1.3972
14970SOL     OW46583   2.120   5.189   4.649  0.3304 -0.7304  0.1261
14970SOL    HW146584   2.122   5.140   4.567  0.6402 -1.1196  0.3622
14970SOL    HW246585   2.124   5.281   4.622  0.1825 -0.8461 -0.3031
14971SOL     OW46586   0.915   3.241   2.801 -0.6208  0.6880 -0.1450
14971SOL    HW146587   0.933   3.147   2.796 -0.8985  0.6351 -0.1537
14971SOL    HW246588   1.001   3.282   2.794 -0.3839  0.4010  0.8824
14972SOL     OW46589   7.118   7.605   4.766 -0.1163 -0.0562  0.1135
14972SOL    HW146590   7.146   7.515   4.753  0.0640  0.0141  0.0238
14972SOL    HW246591   7.027   7.606   4.737  0.2826  0.1090 -1.1671
14973SOL     OW46592   5.246   6.269   8.093 -0.3765 -0.2805 -0.6245
14973SOL    HW146593   5.329   6.225   8.074 -0.0339 -0.2384  0.6588
14973SOL    HW246594   5.265   6.362   8.083  0.0306 -0.2036  0.5888
14974SOL     OW46595   0.324   2.104   6.916  0.3809 -0.4834 -0.1737
14974SOL    HW146596   0.246   2.116   6.863  0.3463  2.3350  0.3410
14974SOL    HW246597   0.388   2.065   6.857 -0.4728  0.0807 -1.5149
14975SOL     OW46598   3.997   9.385   0.251  0.5946 -0.5234 -0.6384
14975SOL    HW146599   4.073   9.434   0.283  1.3684 -0.2911 -2.6463
14975SOL    HW246600   3.940   9.451   0.212 -1.8083 -0.3818  2.7129
14976SOL     OW46601   8.345   4.694   3.227 -0.4560  0.1547 -0.4100
14976SOL    HW146602   8.422   4.640   3.209  0.8477  1.6562  0.3956
14976SOL    HW246603   8.306   4.655   3.306 -0.9250 -0.9957 -1.1872
14977SOL     OW46604   6.268   7.803   1.766  0.4731 -0.1587  0.0207
14977SOL    HW146605   6.300   7.861   1.836 -0.6448  1.6112 -0.8607
14977SOL    HW246606   6.176   7.825   1.757 -0.1262 -2.4506 -0.0779
14978SOL     OW46607   8.342   2.512   4.067 -0.5954  0.1797  0.1923
14978SOL    HW146608   8.405   2.562   4.118 -0.3042 -1.4552  1.5240
14978SOL    HW246609   8.256   2.540   4.099 -0.4331 -0.1452  0.9307
14979SOL     OW46610   1.488   7.652   6.591  0.1756 -0.5683 -0.0126
14979SOL    HW146611   1.524   7.712   6.525  2.3539 -1.9929 -0.2173
14979SOL    HW246612   1.516   7.689   6.675 -2.5750  1.2311  0.2333
14980SOL     OW46613   2.928   2.904   5.973  0.0300 -0.0314  0.0979
14980SOL    HW146614   2.906   2.910   6.066 -0.6051  1.4532 -0.1339
14980SOL    HW246615   3.024   2.894   5.972 -0.1214 -2.1309  0.9494
14981SOL     OW46616   4.428   6.287   5.995 -0.6270  0.0818  0.1669
14981SOL    HW146617   4.375   6.218   5.954 -0.7474  0.7446 -0.8259
14981SOL    HW246618   4.486   6.240   6.055  0.6800 -1.1485 -1.9213
14982SOL     OW46619   2.835   1.522   8.888 -0.5380  0.7905  0.5204
14982SOL    HW146620   2.743   1.513   8.912 -0.5241  1.3812  0.8127
14982SOL    HW246621   2.834   1.538   8.793 -0.5674 -1.9919 -0.0387
14983SOL     OW46622   3.804   0.373   8.914 -0.1270  0.4872 -0.2267
14983SOL    HW146623   3.795   0.288   8.871 -1.9104  0.3306  0.3516
14983SOL    HW246624   3.732   0.426   8.879  0.2423  1.3724  0.3009
14984SOL     OW46625   3.540   3.646   0.332  0.0203  0.2339  0.0726
14984SOL    HW146626   3.609   3.688   0.281  1.4870 -1.5105  0.5136
14984SOL    HW246627   3.467   3.637   0.270  0.0908  2.2366 -0.3628
14985SOL     OW46628   6.668   7.157   8.268 -0.1685 -0.4219 -0.0050
14985SOL    HW146629   6.655   7.078   8.215 -0.0367 -0.2738 -0.2586
14985SOL    HW246630   6.660   7.229   8.205  0.8185 -0.2776  0.0248
14986SOL     OW46631   2.912   3.730   3.453 -0.3860  0.3660 -0.8142
14986SOL    HW146632   2.898   3.735   3.548  0.4065  1.1865 -0.7190
14986SOL    HW246633   3.004   3.753   3.442 -0.6253  0.8819 -1.8404
14987SOL     OW46634   8.784   6.007   7.242 -0.2892 -0.1197 -0.3922
14987SOL    HW146635   8.877   6.028   7.238 -0.3517 -0.0250 -1.4235
14987SOL    HW246636   8.740   6.092   7.234 -0.4749 -0.2495 -0.7577
14988SOL     OW46637   4.619   3.627   1.786  0.3413 -0.0045  0.4532
14988SOL    HW146638   4.612   3.630   1.881 -0.5915 -1.0990  0.4483
14988SOL    HW246639   4.546   3.570   1.759  0.9194 -0.1521 -0.8651
14989SOL     OW46640   6.845   4.597   8.430  0.2577  0.1302  0.2942
14989SOL    HW146641   6.781   4.526   8.424 -1.7315  1.7786  0.7251
14989SOL    HW246642   6.911   4.565   8.491 -1.1975 -0.9167  1.4033
14990SOL     OW46643   9.008   4.937   0.700 -0.7330  0.2030 -0.0568
14990SOL    HW146644   8.941   4.981   0.752 -0.4569  0.4733  0.0674
14990SOL    HW246645   8.985   4.844   0.705 -1.2336  0.3163 -0.2066
14991SOL     OW46646   9.421   7.769   1.526 -0.2212 -0.1071  0.2090
14991SOL    HW146647   9.474   7.746   1.602 -0.0887 -0.2566  0.0721
14991SOL    HW246648   9.330   7.759   1.557 -0.2678 -3.5123 -0.5707
14992SOL     OW46649   8.331   5.767   4.292  0.4177 -0.2496 -0.5717
14992SOL    HW146650   8.397   5.699   4.300  1.2373  0.6290  0.2848
14992SOL    HW246651   8.321   5.780   4.197  4.1259  2.0796 -0.8398
14993SOL     OW46652   9.503   3.480   3.134  0.0631 -0.5945  0.0728
14993SOL    HW146653   9.565   3.540   3.093  0.7123 -1.5725 -0.4412
14993SOL    HW246654   9.495   3.511   3.224  0.9024 -0.1340 -0.0035
14994SOL     OW46655   8.038   3.580   0.913  0.0795 -0.1262  0.4773
14994SOL    HW146656   8.083   3.585   0.829  0.8330  0.4414  0.9089
14994SOL    HW246657   8.009   3.669   0.931 -0.0157 -0.2319  0.8561
14995SOL     OW46658   1.525   2.031   4.317  0.6303 -0.1691  0.3758
14995SOL    HW146659   1.462   1.960   4.303  1.3898 -0.4135 -2.4813
14995SOL    HW246660   1.485   2.107   4.276  1.0365  0.3490  0.9232
14996SOL     OW46661   9.507   6.088   7.023 -0.3009  0.6156  0.4585
14996SOL    HW146662   9.434   6.029   7.046  1.1080 -0.5365  2.2941
14996SOL    HW246663   9.537   6.122   7.107  0.6890  1.8118 -0.3522
14997SOL     OW46664   9.538   0.634   3.998 -0.4017 -0.1349  0.2639
14997SOL    HW146665   9.587   0.663   3.922  0.4227  3.6764  2.0167
14997SOL    HW246666   9.458   0.596   3.962  0.5750  0.2095 -2.4888
14998SOL     OW46667   7.608   1.104   8.897 -0.3661 -0.1600 -0.4033
14998SOL    HW146668   7.649   1.054   8.968 -0.1602  0.7105  0.0983
14998SOL    HW246669   7.635   1.195   8.913 -2.4440  0.4488 -0.0568
14999SOL     OW46670   1.616   7.449   6.083  0.0277  0.0798  0.0551
14999SOL    HW146671   1.617   7.537   6.046 -0.6099 -0.1972 -0.6641
14999SOL    HW246672   1.579   7.459   6.170 -1.2309  0.3727 -0.4923
15000SOL     OW46673   0.851   2.137   7.899 -0.2261  0.4229 -0.6213
15000SOL    HW146674   0.931   2.106   7.941 -0.0366 -0.0208 -1.2895
15000SOL    HW246675   0.782   2.123   7.964  0.2917  1.2110  0.1220
15001SOL     OW46676   8.521   5.345   0.885 -0.7071  0.2998  0.0525
15001SOL    HW146677   8.516   5.389   0.970  1.4106 -1.3414  1.1354
15001SOL    HW246678   8.611   5.361   0.855 -0.3814 -1.7892 -0.2920
15002SOL     OW46679   4.224   6.435   2.316  0.0968 -0.2204  0.3556
15002SOL    HW146680   4.299   6.417   2.259  0.1130 -0.1537  0.3560
15002SOL    HW246681   4.208   6.529   2.306 -0.9608 -0.5035 -0.8497
15003SOL     OW46682   3.255   5.365   1.041 -1.1505  0.2793 -0.3189
15003SOL    HW146683   3.285   5.452   1.066 -0.2095  0.5965 -2.3498
15003SOL    HW246684   3.335   5.314   1.032 -1.2694  0.4112 -3.2048
15004SOL     OW46685   0.053   2.417   3.333  0.5888  0.0331 -0.0357
15004SOL    HW146686   0.009   2.493   3.295 -0.0842  1.0976  2.6411
15004SOL    HW246687   0.131   2.452   3.376  0.1327 -0.6841  1.4610
15005SOL     OW46688   1.821   5.189   2.179  0.1762 -0.3216  0.0831
15005SOL    HW146689   1.839   5.228   2.094 -0.4545  0.1900  0.1747
15005SOL    HW246690   1.726   5.189   2.186  0.1892 -1.2553  0.3857
15006SOL     OW46691   6.005   1.449   5.246 -0.3370  0.1073  0.2890
15006SOL    HW146692   5.979   1.540   5.261  0.4607  0.1427  1.5436
15006SOL    HW246693   5.965   1.427   5.162  0.1359  1.8744 -0.4546
15007SOL     OW46694   8.114   5.189   8.141  0.6799  0.2302  0.1162
15007SOL    HW146695   8.113   5.280   8.111  1.4055 -0.2863 -1.5881
15007SOL    HW246696   8.042   5.147   8.093  0.4094 -0.1205  0.8232
15008SOL     OW46697   2.091   2.725   4.297 -0.3739 -0.1937  0.4846
15008SOL    HW146698   2.023   2.659   4.298 -0.3899 -0.2135 -0.6823
15008SOL    HW246699   2.050   2.802   4.258  0.4002 -0.3856 -0.7742
15009SOL     OW46700   1.870   4.004   2.193 -0.0649 -0.2681 -0.5384
15009SOL    HW146701   1.838   4.071   2.132  0.4006  0.2755 -0.1908
15009SOL    HW246702   1.943   3.963   2.146 -0.9660 -1.2089 -1.1505
15010SOL     OW46703   2.368   7.271   7.913 -0.5894 -0.3565 -0.2044
15010SOL    HW146704   2.433   7.213   7.953 -0.9983  0.1757  1.2629
15010SOL    HW246705   2.338   7.327   7.984 -2.6502 -0.5658 -0.8620
15011SOL     OW46706   8.764   0.806   1.279 -0.2673  0.3779  0.2756
15011SOL    HW146707   8.806   0.732   1.324 -1.8776 -1.3941 -0.9972
15011SOL    HW246708   8.817   0.819   1.200 -1.3334 -1.0558 -0.7167
15012SOL     OW46709   5.246   6.085   1.511  0.0946  0.2293 -0.1119
15012SOL    HW146710   5.233   6.179   1.507  1.0307  0.3313 -2.5290
15012SOL    HW246711   5.161   6.048   1.487  0.0858  0.5245 -0.5645
15013SOL     OW46712   7.098   2.536   5.615 -0.3052 -0.2150  0.2791
15013SOL    HW146713   7.047   2.562   5.691  0.1222  2.3569 -0.2338
15013SOL    HW246714   7.175   2.493   5.652 -0.8320 -0.3927  1.2162
15014SOL     OW46715   8.123   0.529   6.348 -0.0736 -0.5304  0.0870
15014SOL    HW146716   8.159   0.591   6.285 -1.3619 -1.4147 -1.6032
15014SOL    HW246717   8.075   0.583   6.410  0.9210  0.3316  0.1337
15015SOL     OW46718   7.096   1.167   2.655  0.5340 -0.1267  0.0620
15015SOL    HW146719   7.013   1.205   2.683  0.8890 -0.5803  1.8747
15015SOL    HW246720   7.082   1.073   2.658  0.8792 -0.1992 -0.3987
15016SOL     OW46721   7.065   6.893   0.142  0.4008 -0.2459  0.3554
15016SOL    HW146722   7.116   6.874   0.221 -0.5964 -2.0351  0.6259
15016SOL    HW246723   6.981   6.850   0.158 -0.4374  0.8279 -0.9723
15017SOL     OW46724   5.485   6.729   0.956 -1.0172  0.6832 -0.3097
15017SOL    HW146725   5.562   6.675   0.936 -2.1238 -0.5901 -1.3316
15017SOL    HW246726   5.516   6.790   1.023 -0.0393 -2.1575  2.0661
15018SOL     OW46727   5.702   2.927   6.332  0.1764  0.4564 -0.1886
15018SOL    HW146728   5.656   2.847   6.355  0.9249 -0.3912 -1.5018
15018SOL    HW246729   5.791   2.914   6.362  0.0929  1.1860  0.4042
15019SOL     OW46730   2.083   3.813   4.312 -0.1448  0.1462 -0.3926
15019SOL    HW146731   2.122   3.827   4.399 -1.5812 -0.8570  0.4589
15019SOL    HW246732   2.121   3.730   4.283  1.0025  0.9119 -1.1369
15020SOL     OW46733   6.058   5.149   3.776  0.4701 -0.1131 -0.5854
15020SOL    HW146734   6.002   5.223   3.756  0.5557 -0.0261 -0.5083
15020SOL    HW246735   6.001   5.087   3.822  0.6045  0.2827  0.1298
15021SOL     OW46736   4.453   5.152   1.128 -0.1218 -0.3312 -0.7670
15021SOL    HW146737   4.534   5.134   1.176  0.0937 -0.6904 -1.2518
15021SOL    HW246738   4.389   5.172   1.196  0.2854 -0.3885 -0.3571
15022SOL     OW46739   3.534   7.420   7.408  0.3127  0.1738 -0.1518
15022SOL    HW146740   3.594   7.386   7.475 -0.6469  0.3399  0.8315
15022SOL    HW246741   3.499   7.341   7.366  1.0552  0.0722 -0.5852
15023SOL     OW46742   4.811   9.667   9.403  0.3712 -0.5730  0.3784
15023SOL    HW146743   4.808   9.597   9.338 -0.6709 -0.8099  0.6651
15023SOL    HW246744   4.787   9.746   9.356  0.8145 -0.5356  0.2147
15024SOL     OW46745   7.510   8.817   9.519 -0.1922  0.1102 -0.2823
15024SOL    HW146746   7.436   8.877   9.530 -0.2166 -0.0248  0.3539
15024SOL    HW246747   7.490   8.744   9.578  0.7492  0.3653  0.3729
15025SOL     OW46748   4.397   9.632   5.314 -0.0989  0.4293  0.1633
15025SOL    HW146749   4.402   9.565   5.381  0.7368  0.9006  0.6017
15025SOL    HW246750   4.437   9.709   5.355  1.3882  0.4353 -1.1974
15026SOL     OW46751   2.113   7.406   7.906  0.2531  0.2488 -0.4241
15026SOL    HW146752   2.030   7.429   7.946  0.4540  0.3397 -0.0498
15026SOL    HW246753   2.132   7.317   7.938  0.2809  0.2129 -0.5382
15027SOL     OW46754   9.477   3.244   9.144  0.4833 -0.2661  0.3723
15027SOL    HW146755   9.459   3.206   9.230 -1.2405 -0.5725 -0.0700
15027SOL    HW246756   9.511   3.172   9.092 -0.0509 -0.4966  0.3393
15028SOL     OW46757   8.091   7.843   9.369  0.1534 -0.1702 -0.3981
15028SOL    HW146758   8.123   7.781   9.435 -1.7690 -1.4538 -0.6170
15028SOL    HW246759   8.160   7.843   9.302  0.2408 -2.0831 -0.3811
15029SOL     OW46760   1.188   7.495   5.420  0.5390 -0.2397 -0.2325
15029SOL    HW146761   1.189   7.521   5.328 -0.9879 -0.6176 -0.3779
15029SOL    HW246762   1.248   7.420   5.424  2.4658  1.1948 -0.4186
15030SOL     OW46763   3.633   6.250   2.794 -0.4163 -0.1302 -0.1305
15030SOL    HW146764   3.682   6.280   2.871 -2.1239  0.8420  0.6534
15030SOL    HW246765   3.655   6.313   2.725 -0.6339  0.3682  0.2475
15031SOL     OW46766   8.270   4.661   8.571  0.0555 -0.2393 -0.4498
15031SOL    HW146767   8.294   4.745   8.531 -1.7243  0.7884  0.4853
15031SOL    HW246768   8.192   4.633   8.524  0.5973 -1.3706 -0.7075
15032SOL     OW46769   1.519   9.346   8.414  0.2850 -0.0952  0.2690
15032SOL    HW146770   1.454   9.317   8.478 -0.9240 -0.1400 -0.9296
15032SOL    HW246771   1.562   9.422   8.455  1.6274 -1.8478  2.3318
15033SOL     OW46772   8.611   9.160   3.906 -0.1465  0.0054  1.0453
15033SOL    HW146773   8.624   9.248   3.870  0.0424 -0.1501  0.7388
15033SOL    HW246774   8.533   9.169   3.962 -2.0271 -0.3196 -1.3539
15034SOL     OW46775   5.169   0.780   5.297 -0.4920  0.2074 -0.3018
15034SOL    HW146776   5.252   0.736   5.314 -0.5436  0.5482  0.9669
15034SOL    HW246777   5.175   0.811   5.207  1.2738  1.3080  0.1526
15035SOL     OW46778   0.715   1.772   1.287 -0.0735 -0.2356  0.3519
15035SOL    HW146779   0.744   1.855   1.248  1.3099 -0.9862 -0.2760
15035SOL    HW246780   0.743   1.705   1.225  1.6517 -1.4403  2.2856
15036SOL     OW46781   9.382   1.989   0.421  0.0200  0.3327  0.3992
15036SOL    HW146782   9.429   1.911   0.392 -0.6735  0.0312  0.0680
15036SOL    HW246783   9.342   2.024   0.341  1.1585  1.6141  0.3510
15037SOL     OW46784   4.809   4.360   9.288 -0.0083 -0.0065 -0.0314
15037SOL    HW146785   4.830   4.417   9.214 -1.2214  0.6357  0.0948
15037SOL    HW246786   4.893   4.325   9.317  0.5955  0.6285 -0.9948
15038SOL     OW46787   1.075   6.108   6.086  0.1836 -0.2600  0.5955
15038SOL    HW146788   1.023   6.163   6.145  1.0900  1.5400 -0.2078
15038SOL    HW246789   1.155   6.158   6.071  1.4441 -2.1980  0.4664
15039SOL     OW46790   9.446   3.437   9.358 -0.0370 -0.0968 -0.8638
15039SOL    HW146791   9.415   3.347   9.360  0.0906 -0.1443 -0.9744
15039SOL    HW246792   9.384   3.486   9.412 -0.4380 -0.1471 -1.2768
15040SOL     OW46793   8.911   0.004   2.991  0.3365 -0.5530 -0.2679
15040SOL    HW146794   8.908  -0.092   2.987 -1.0050 -0.4840 -1.6845
15040SOL    HW246795   8.824   0.032   2.963  0.9518  1.1138 -0.6124
15041SOL     OW46796   0.983   4.807   8.157  0.3097 -0.1043  0.1361
15041SOL    HW146797   1.056   4.748   8.140 -0.1741 -0.6534 -0.0854
15041SOL    HW246798   1.023   4.893   8.165  1.0171 -0.4417  0.3548
15042SOL     OW46799   9.201   4.013   0.507  0.1290 -0.4181  0.2199
15042SOL    HW146800   9.129   3.979   0.455  1.5010  0.0664 -2.1399
15042SOL    HW246801   9.180   4.106   0.519  0.3330 -0.2737 -0.4780
15043SOL     OW46802   3.126   2.491   4.131  0.5911  0.2910 -0.3518
15043SOL    HW146803   3.087   2.515   4.215  0.6982 -1.1287  0.1303
15043SOL    HW246804   3.064   2.429   4.092  2.0201 -1.5505  0.1612
15044SOL     OW46805   0.082   1.731   0.078  0.2586 -0.3892  0.0911
15044SOL    HW146806  -0.002   1.730   0.032  0.7812  1.4569 -0.9860
15044SOL    HW246807   0.091   1.642   0.112 -1.7840 -0.8369 -0.3739
15045SOL     OW46808   8.844   9.079   8.806  0.0346  0.5671  0.2760
15045SOL    HW146809   8.775   9.018   8.779 -0.5299  0.8458  1.0490
15045SOL    HW246810   8.801   9.139   8.866  1.1738  0.0600  1.6808
15046SOL     OW46811   5.258   8.101   2.503 -0.0404  0.5562  0.0407
15046SOL    HW146812   5.176   8.062   2.473  0.4353  0.4344 -1.1711
15046SOL    HW246813   5.244   8.119   2.596 -1.0291 -0.5039  0.1114
15047SOL     OW46814   5.013   9.324   3.548 -0.1521  0.1031 -0.1577
15047SOL    HW146815   4.957   9.388   3.591 -0.6340 -1.2287  1.2587
15047SOL    HW246816   5.061   9.282   3.619  0.6345 -0.6759 -1.1141
15048SOL     OW46817   3.036   1.572   1.164  0.6102 -0.1943  0.8918
15048SOL    HW146818   3.058   1.538   1.250 -3.6347 -1.5294  1.6919
15048SOL    HW246819   3.090   1.650   1.154  2.4977 -0.9478  3.9516
15049SOL     OW46820   8.123   9.159   6.955 -0.0107  0.2865  0.3743
15049SOL    HW146821   8.099   9.234   6.900 -1.5047 -0.4448  0.0033
15049SOL    HW246822   8.055   9.156   7.023  0.3438 -0.4065  0.7110
15050SOL     OW46823   2.134   9.180   5.850  0.0757 -0.6538 -0.5422
15050SOL    HW146824   2.056   9.133   5.821 -1.0657  1.1280 -0.5097
15050SOL    HW246825   2.198   9.166   5.780 -0.8834 -0.6959 -1.4380
15051SOL     OW46826   2.503   7.384   2.921  0.5123  0.1968 -0.3397
15051SOL    HW146827   2.438   7.314   2.917  0.6237  0.0407  0.5965
15051SOL    HW246828   2.534   7.392   2.831  1.1005 -1.5013 -0.3173
15052SOL     OW46829   9.544   0.121   1.817  0.1462  0.0986  0.0362
15052SOL    HW146830   9.561   0.066   1.895 -3.5571  0.5606  1.3659
15052SOL    HW246831   9.594   0.201   1.833  0.2863 -0.2391  1.4548
15053SOL     OW46832   7.277   5.217   5.874  0.0105  0.1217  0.4740
15053SOL    HW146833   7.260   5.207   5.967  1.1184 -0.3655  0.6452
15053SOL    HW246834   7.269   5.311   5.858  1.2930  0.4109  1.3897
15054SOL     OW46835   3.036   8.927   0.614 -0.5332  0.5286 -0.2640
15054SOL    HW146836   3.032   8.982   0.693 -0.0841 -1.3617  1.1534
15054SOL    HW246837   2.947   8.893   0.604 -0.2439 -0.4775  0.4062
15055SOL     OW46838   6.865   7.351   4.569  0.2384 -0.1452 -0.5068
15055SOL    HW146839   6.875   7.439   4.533 -2.3569  0.3422 -0.2645
15055SOL    HW246840   6.852   7.365   4.663 -0.4506 -0.7644 -0.5018
15056SOL     OW46841   1.895   8.654   6.507 -0.0146 -0.3549 -0.1811
15056SOL    HW146842   1.893   8.607   6.424  2.5916  0.5419 -0.8383
15056SOL    HW246843   1.930   8.740   6.485  0.6089 -0.0565  1.8155
15057SOL     OW46844   2.570   0.378   0.009  0.4889 -0.0356 -0.1206
15057SOL    HW146845   2.588   0.296  -0.036 -0.1690 -0.5286  0.4851
15057SOL    HW246846   2.574   0.356   0.102 -4.0295 -0.5085  0.1885
15058SOL     OW46847   2.088   8.854   2.399  0.1755  0.0957  0.1539
15058SOL    HW146848   2.085   8.936   2.350  0.0602  0.0893  0.1495
15058SOL    HW246849   2.070   8.786   2.333  2.6479 -0.1648 -0.3654
15059SOL     OW46850   4.951   5.543   7.672 -0.0399 -0.2179  0.6491
15059SOL    HW146851   4.980   5.623   7.715 -1.5890 -1.1006  3.6232
15059SOL    HW246852   4.877   5.571   7.617  2.3779  1.0345 -2.2303
15060SOL     OW46853   5.875   1.763   9.619  0.4109  0.3031 -0.1601
15060SOL    HW146854   5.838   1.679   9.649 -0.8826  0.2768 -1.6608
15060SOL    HW246855   5.935   1.738   9.549  0.0182  0.6258 -0.6136
15061SOL     OW46856   2.368   6.715   0.402 -0.0409  0.3893  0.1981
15061SOL    HW146857   2.441   6.776   0.397 -1.3417  1.8864 -1.5808
15061SOL    HW246858   2.410   6.630   0.418  2.0570  1.2279 -0.4645
15062SOL     OW46859   2.074   8.276   6.776 -0.0190  0.2406  0.1306
15062SOL    HW146860   2.059   8.239   6.863  1.3793 -1.2440 -0.2042
15062SOL    HW246861   2.167   8.261   6.760  1.3690  5.8887  0.7921
15063SOL     OW46862   5.186   0.257   0.364  0.1633 -0.3873 -0.0768
15063SOL    HW146863   5.203   0.204   0.443 -0.3036  1.4403  1.3180
15063SOL    HW246864   5.092   0.250   0.351  0.2991 -1.0554 -0.7869
15064SOL     OW46865   4.103   5.610   7.320  0.1085 -0.6253 -0.3306
15064SOL    HW146866   4.157   5.646   7.390 -1.2347 -2.7579  1.9967
15064SOL    HW246867   4.166   5.579   7.255  1.4052  1.5634 -0.1868
15065SOL     OW46868   2.414   1.989   7.535 -0.8235  0.4387  0.6062
15065SOL    HW146869   2.432   2.040   7.455 -0.6411 -2.5823 -1.4431
15065SOL    HW246870   2.497   1.990   7.583  0.6548 -1.5436 -1.6679
15066SOL     OW46871   2.904   1.245   6.341  0.0815 -0.1850 -0.3926
15066SOL    HW146872   2.904   1.339   6.321 -0.2543 -0.4166 -1.5535
15066SOL    HW246873   2.836   1.236   6.408  1.2079  0.6128  0.9045
15067SOL     OW46874   9.424   1.564   1.518 -0.0229 -0.1082 -0.0667
15067SOL    HW146875   9.400   1.484   1.471 -0.0998 -0.0872 -0.0633
15067SOL    HW246876   9.514   1.550   1.545  0.6283  0.5811 -1.7301
15068SOL     OW46877   8.576   5.476   8.063  0.0868  0.4353  0.0625
15068SOL    HW146878   8.650   5.479   8.001  0.2158  2.0527  0.2400
15068SOL    HW246879   8.544   5.386   8.057  1.7820 -0.1969 -0.3608
15069SOL     OW46880   4.718   7.843   1.770 -0.2299 -0.3862  0.2359
15069SOL    HW146881   4.657   7.781   1.808 -0.5104 -0.7136 -0.7022
15069SOL    HW246882   4.743   7.804   1.686 -1.1806  1.2143 -0.8536
15070SOL     OW46883   8.938   4.281   3.112 -0.6257 -0.2881 -0.1222
15070SOL    HW146884   8.865   4.220   3.119 -1.2026  0.4640  0.5521
15070SOL    HW246885   8.923   4.345   3.181 -0.3833  0.9968 -1.2223
15071SOL     OW46886   3.674   8.916   5.581  0.2099  0.1816  0.2220
15071SOL    HW146887   3.720   8.995   5.607 -1.3777  1.2780 -0.1517
15071SOL    HW246888   3.689   8.908   5.487 -2.2236  1.9005 -0.3885
15072SOL     OW46889   4.826   4.549   6.099  0.4894 -0.9914 -0.1581
15072SOL    HW146890   4.864   4.622   6.147 -0.2711  0.3041 -1.4528
15072SOL    HW246891   4.865   4.471   6.140  3.0891  0.1715 -0.1951
15073SOL     OW46892   5.219   0.471   9.167  0.1515  0.0110  0.0123
15073SOL    HW146893   5.194   0.449   9.077 -2.0567  1.2992  0.2294
15073SOL    HW246894   5.225   0.387   9.212 -3.0039 -0.5263 -0.3578
15074SOL     OW46895   7.536   8.598   5.378 -0.0507  0.0347 -0.0885
15074SOL    HW146896   7.616   8.621   5.332 -0.7683 -0.3531 -1.5802
15074SOL    HW246897   7.506   8.516   5.337 -0.0021 -1.1011  1.9913
15075SOL     OW46898   8.379   0.458   2.836 -0.1255  0.0237 -0.7119
15075SOL    HW146899   8.348   0.383   2.887 -0.3082  1.4871  1.4252
15075SOL    HW246900   8.324   0.458   2.757  0.6481 -2.7195 -1.3613
15076SOL     OW46901   2.881   5.849   0.320  0.1774 -0.1679 -0.7720
15076SOL    HW146902   2.800   5.798   0.320  0.0232  0.0158 -2.2620
15076SOL    HW246903   2.896   5.870   0.228  0.9537  1.3398 -0.3468
15077SOL     OW46904   7.859   5.245   1.034 -0.2554  0.4231 -0.4661
15077SOL    HW146905   7.876   5.283   0.948 -0.8914  0.0708 -0.7549
15077SOL    HW246906   7.782   5.189   1.021 -0.1825  0.1398  0.2653
15078SOL     OW46907   2.266   4.620   5.440 -0.4069  0.1428 -0.3501
15078SOL    HW146908   2.207   4.694   5.432 -1.9066 -1.0404 -0.6265
15078SOL    HW246909   2.338   4.640   5.379 -1.5767  0.6309 -1.6269
15079SOL     OW46910   5.318   6.879   3.882  0.1424 -0.5796 -0.3613
15079SOL    HW146911   5.323   6.828   3.801 -1.0796 -1.4210  0.0502
15079SOL    HW246912   5.304   6.969   3.853 -1.0152 -0.9744 -1.0940
15080SOL     OW46913   7.066   6.555   5.609  0.5720 -0.4117  0.3347
15080SOL    HW146914   7.007   6.531   5.538 -0.0544  1.3008  0.2218
15080SOL    HW246915   7.149   6.511   5.588  0.5527  0.4253 -1.7344
15081SOL     OW46916   0.638   2.284   0.644  0.1426 -0.2921 -0.5107
15081SOL    HW146917   0.573   2.329   0.590 -2.0614  0.5630  2.5502
15081SOL    HW246918   0.701   2.352   0.667  0.3792 -0.3562 -0.9554
15082SOL     OW46919   7.548   2.051   5.507 -0.0972  0.1845  0.3386
15082SOL    HW146920   7.457   2.080   5.512 -0.2754 -0.3755  0.4284
15082SOL    HW246921   7.553   1.999   5.427 -0.2513 -1.0930  1.1395
15083SOL     OW46922   0.748   0.638   3.563 -0.0427 -0.3251 -0.0768
15083SOL    HW146923   0.796   0.706   3.516 -1.1695 -0.4756 -1.5049
15083SOL    HW246924   0.775   0.649   3.654  0.3897  1.5272 -0.3848
15084SOL     OW46925   1.353   1.475   0.160 -0.3345  0.2829 -0.0489
15084SOL    HW146926   1.349   1.509   0.071 -0.8383  1.4987  0.4065
15084SOL    HW246927   1.446   1.475   0.181 -0.3668  3.4124  0.6089
15085SOL     OW46928   1.007   1.267   5.893 -0.4071  0.3500  0.1223
15085SOL    HW146929   1.078   1.265   5.957  0.9122  0.5554 -1.2601
15085SOL    HW246930   0.938   1.318   5.934  0.3526  0.3844  1.4052
15086SOL     OW46931   7.835   2.112   0.832 -0.1270  0.0644  0.2822
15086SOL    HW146932   7.746   2.147   0.822  0.0672  0.5906  0.3369
15086SOL    HW246933   7.865   2.146   0.916 -0.3934 -1.2966  0.9421
15087SOL     OW46934   1.805   1.567   5.033 -0.7459 -0.1419  0.1798
15087SOL    HW146935   1.880   1.593   5.085 -2.0589  2.1998  1.0599
15087SOL    HW246936   1.811   1.619   4.952 -0.4256 -1.3846 -0.6280
15088SOL     OW46937   2.077   4.555   4.759  0.9967  0.0401  0.1940
15088SOL    HW146938   2.021   4.514   4.825 -0.0769  0.4234 -0.4451
15088SOL    HW246939   2.093   4.486   4.695 -0.4659  0.4565 -0.6679
15089SOL     OW46940   1.948   4.618   1.493  0.7823 -0.2192 -0.3483
15089SOL    HW146941   1.956   4.523   1.504  0.8768 -0.1578  0.1513
15089SOL    HW246942   2.037   4.648   1.476  0.6293 -0.3186 -1.3765
15090SOL     OW46943   4.844   9.630   1.632  0.1960 -0.5668 -0.6119
15090SOL    HW146944   4.832   9.724   1.650 -2.8326 -0.6469 -1.5805
15090SOL    HW246945   4.938   9.619   1.622  0.7223  2.2088  0.3512
15091SOL     OW46946   3.185   1.814   7.076  0.5992  0.3694  0.1189
15091SOL    HW146947   3.257   1.784   7.131  1.9882 -0.2721 -1.9409
15091SOL    HW246948   3.133   1.736   7.058 -0.8158  0.8628  1.7636
15092SOL     OW46949   5.728   7.097   6.539  0.2538  0.0853  0.0998
15092SOL    HW146950   5.758   7.172   6.590  1.7563  0.0563 -0.6871
15092SOL    HW246951   5.741   7.021   6.596 -1.8196  0.4162  1.1223
15093SOL     OW46952   2.899   6.594   6.683  0.0397 -0.7058 -0.0356
15093SOL    HW146953   2.874   6.571   6.594 -1.9105  1.3845 -0.1362
15093SOL    HW246954   2.968   6.660   6.673 -1.1553  0.5830 -0.1117
15094SOL     OW46955   9.294   7.236   0.706  0.2130 -0.5815 -0.3230
15094SOL    HW146956   9.347   7.316   0.701 -0.2732 -0.1241  1.2075
15094SOL    HW246957   9.355   7.166   0.684  0.4207  0.2428 -2.7085
15095SOL     OW46958   5.754   0.659   0.953  0.0902 -0.4021 -0.4351
15095SOL    HW146959   5.732   0.581   0.902 -0.2830 -1.0063  0.6153
15095SOL    HW246960   5.699   0.653   1.031  0.8087  0.3702  0.1559
15096SOL     OW46961   4.736   1.054   0.185  0.9219  0.1551  0.3473
15096SOL    HW146962   4.658   1.026   0.232  2.2671 -1.7856  1.5417
15096SOL    HW246963   4.777   1.119   0.242 -0.4668  2.3011 -0.9322
15097SOL     OW46964   0.434   5.425   0.513  0.4701  0.1513  0.1341
15097SOL    HW146965   0.405   5.397   0.600  2.7053  0.8629  1.1669
15097SOL    HW246966   0.363   5.481   0.481 -1.4528 -1.9443  0.4444
15098SOL     OW46967   4.205   7.128   9.431 -0.6879 -0.1006 -0.2184
15098SOL    HW146968   4.199   7.129   9.526  0.3910 -0.8596 -0.1180
15098SOL    HW246969   4.145   7.197   9.402  1.0138  2.0533  1.1178
15099SOL     OW46970   3.940   5.506   0.533  0.1924 -0.2553  0.0177
15099SOL    HW146971   4.033   5.493   0.513  0.3307  1.5193 -0.6698
15099SOL    HW246972   3.903   5.541   0.452 -0.9358 -0.2537  0.5173
15100SOL     OW46973   7.335   6.173   2.697 -0.1653 -0.0123  0.8258
15100SOL    HW146974   7.274   6.133   2.635  1.5433 -0.0390 -0.9615
15100SOL    HW246975   7.415   6.121   2.688  0.0297 -0.2867  3.4428
15101SOL     OW46976   1.512   8.163   1.104  0.0536  0.3112  0.1409
15101SOL    HW146977   1.546   8.099   1.167 -0.7375  1.3579  1.6914
15101SOL    HW246978   1.583   8.225   1.092 -0.4323  1.2139  1.6003
15102SOL     OW46979   6.007   9.473   4.600  0.0667  0.3575  0.1654
15102SOL    HW146980   5.978   9.385   4.623  1.8500 -0.0415  1.0091
15102SOL    HW246981   5.930   9.528   4.615 -1.2437 -1.0997 -0.8924
15103SOL     OW46982   8.520   8.911   9.637  0.4799  0.8061 -0.5739
15103SOL    HW146983   8.573   8.972   9.587  1.2336 -0.0657 -0.8649
15103SOL    HW246984   8.580   8.871   9.699 -0.0106  0.4095 -0.3414
15104SOL     OW46985   2.439   1.237   7.212  0.7325 -0.7697 -0.1089
15104SOL    HW146986   2.458   1.218   7.120  0.5133 -0.6147 -0.1873
15104SOL    HW246987   2.385   1.163   7.241 -0.6849  0.0313 -0.6009
15105SOL     OW46988   2.557   5.924   6.843  0.4182  0.0801 -0.0830
15105SOL    HW146989   2.535   5.902   6.752  1.2924 -2.1346  0.1623
15105SOL    HW246990   2.516   5.854   6.895  0.8460  0.6920  1.1257
15106SOL     OW46991   2.671   4.807   1.347  0.1550 -0.5434 -0.1292
15106SOL    HW146992   2.615   4.885   1.347 -0.5770 -1.0625  0.4685
15106SOL    HW246993   2.652   4.763   1.430  1.7586 -0.5208  0.2792
15107SOL     OW46994   7.261   7.726   6.144 -0.3318 -0.1338  0.3650
15107SOL    HW146995   7.271   7.737   6.239  0.8014  2.5159  0.0091
15107SOL    HW246996   7.349   7.703   6.113 -0.2855  0.8222 -0.2399
15108SOL     OW46997   9.615   3.857   3.387 -0.2414 -0.1831  0.6890
15108SOL    HW146998   9.597   3.950   3.402  0.5276 -0.0988  1.1299
15108SOL    HW246999   9.710   3.849   3.396 -0.0361 -0.6346 -1.4542
15109SOL     OW47000   9.574   5.544   4.171  0.5065  0.6164 -0.1283
15109SOL    HW147001   9.483   5.545   4.141  0.1932 -1.7709  0.4950
15109SOL    HW247002   9.619   5.607   4.116 -1.3367  1.1230 -1.1217
15110SOL     OW47003   5.797   6.096   6.835  0.1474  0.3962  0.1872
15110SOL    HW147004   5.790   6.139   6.921 -0.2599  0.8722 -0.0811
15110SOL    HW247005   5.727   6.135   6.783  1.0672  0.8976 -0.7084
15111SOL     OW47006   0.276   5.495   1.280 -0.0569 -0.1841  0.0018
15111SOL    HW147007   0.330   5.515   1.204  1.1350 -0.0928  0.8386
15111SOL    HW247008   0.218   5.571   1.289  0.0280 -0.0434 -0.6020
15112SOL     OW47009   0.258   4.595   9.215 -0.6754  0.5384  0.1777
15112SOL    HW147010   0.228   4.505   9.203 -0.7642  0.1806  2.7182
15112SOL    HW247011   0.180   4.648   9.195 -1.1973 -0.0567  0.5786
15113SOL     OW47012   8.223   9.249   2.752  0.6442 -0.3807 -0.3770
15113SOL    HW147013   8.311   9.215   2.767  0.3652 -0.3148  1.8559
15113SOL    HW247014   8.209   9.312   2.824 -1.8120 -1.6641  0.4099
15114SOL     OW47015   5.679   8.052   8.935 -0.2784  0.3803  0.3765
15114SOL    HW147016   5.700   8.144   8.923  0.3658  0.3986  1.5018
15114SOL    HW247017   5.610   8.051   9.002 -0.2393  0.0384  0.4152
15115SOL     OW47018   3.565   8.926   9.268 -0.1727 -0.0444 -0.0517
15115SOL    HW147019   3.592   9.012   9.298 -0.4974  0.8685 -2.1876
15115SOL    HW247020   3.645   8.873   9.270  0.7764  1.2395 -1.7139
15116SOL     OW47021   4.402   1.625   3.779 -0.5285  0.6390  0.1337
15116SOL    HW147022   4.451   1.678   3.716  0.6357  0.5924  0.9654
15116SOL    HW247023   4.431   1.535   3.761 -0.6417  0.5627  0.3406
15117SOL     OW47024   1.865   0.423   2.751 -0.7530  0.1100  0.4378
15117SOL    HW147025   1.799   0.364   2.714  0.2855 -0.4503 -0.5617
15117SOL    HW247026   1.938   0.366   2.774 -0.0460  0.9039  0.2031
15118SOL     OW47027   2.077   3.297   3.658  0.1562 -0.0972 -0.3153
15118SOL    HW147028   2.007   3.293   3.592  0.1969 -0.2109 -0.3524
15118SOL    HW247029   2.062   3.220   3.713  0.3841 -0.2446 -0.4576
15119SOL     OW47030   7.043   2.249   7.662  0.5042  0.1627  0.3187
15119SOL    HW147031   7.058   2.333   7.617 -1.4173 -0.5376 -1.8169
15119SOL    HW247032   7.082   2.184   7.605  0.9829 -0.5231  1.4024
15120SOL     OW47033   3.715   9.535   5.314  0.0488 -0.6110 -0.2870
15120SOL    HW147034   3.748   9.512   5.401  0.9151 -0.1391 -0.4786
15120SOL    HW247035   3.656   9.463   5.291 -2.2351  0.4823  1.7400
15121SOL     OW47036   2.242   2.558   8.415  0.6209  0.3270  0.0369
15121SOL    HW147037   2.275   2.493   8.353 -1.3387  1.1114 -1.9746
15121SOL    HW247038   2.290   2.638   8.394  0.6021  0.3758  0.1768
15122SOL     OW47039   2.854   6.143   7.938 -0.0963 -0.1685 -0.3526
15122SOL    HW147040   2.818   6.114   8.021  0.2002  1.5318  0.4227
15122SOL    HW247041   2.787   6.200   7.901 -0.1626 -0.7915 -1.2172
15123SOL     OW47042   3.860   5.297   6.285  0.2083  0.3263 -0.0644
15123SOL    HW147043   3.941   5.269   6.242  0.1384  1.6834 -1.1277
15123SOL    HW247044   3.860   5.392   6.277 -2.3214  0.2658 -1.6674
15124SOL     OW47045   2.254   6.543   1.923 -0.6795  0.2522  0.4537
15124SOL    HW147046   2.324   6.598   1.960 -0.7560  2.5788 -2.4384
15124SOL    HW247047   2.246   6.574   1.833 -0.6295 -4.7279 -1.5765
15125SOL     OW47048   3.233   6.194   8.784  0.2002 -0.2832 -0.5301
15125SOL    HW147049   3.238   6.287   8.763  0.0810 -0.2286 -0.3190
15125SOL    HW247050   3.183   6.191   8.865 -2.3238 -0.7020 -1.9668
15126SOL     OW47051   7.559   7.437   2.051  0.2530 -0.5394 -0.4807
15126SOL    HW147052   7.530   7.522   2.019  0.3110 -0.6961 -0.9629
15126SOL    HW247053   7.629   7.457   2.114 -2.1261 -0.0629  2.1898
15127SOL     OW47054   2.405   3.751   1.378 -0.1266  0.5594  0.4498
15127SOL    HW147055   2.319   3.708   1.379  0.4674 -0.8230 -1.2134
15127SOL    HW247056   2.413   3.784   1.288  1.8896 -1.1983 -0.0950
15128SOL     OW47057   1.064   9.308   7.549 -0.1048 -1.1522 -0.4029
15128SOL    HW147058   1.140   9.299   7.607  0.2767 -0.0831 -0.7200
15128SOL    HW247059   1.084   9.250   7.475  0.0062 -1.5157 -0.0961
15129SOL     OW47060   8.911   8.089   6.690  0.3992  0.4034  0.2544
15129SOL    HW147061   8.938   8.178   6.665  2.8458 -0.9159 -2.4127
15129SOL    HW247062   8.846   8.065   6.624  0.0606  0.0596  0.7087
15130SOL     OW47063   2.713   1.185   6.558 -0.0499  0.1024  0.2193
15130SOL    HW147064   2.654   1.125   6.513  1.3926 -0.8131 -0.5396
15130SOL    HW247065   2.709   1.159   6.650  0.8815 -1.4882 -0.1613
15131SOL     OW47066   2.733   0.754   0.554 -0.3118  0.1860  0.2852
15131SOL    HW147067   2.797   0.825   0.548 -1.5693  1.4125  0.9639
15131SOL    HW247068   2.697   0.762   0.642  0.8337 -2.4932  1.1003
15132SOL     OW47069   8.368   6.878   3.516  0.4093  0.2768 -0.1301
15132SOL    HW147070   8.293   6.877   3.457 -0.0777  1.0783  0.4500
15132SOL    HW247071   8.340   6.827   3.592  0.2510  0.9896  0.3033
15133SOL     OW47072   4.827   6.606   8.643 -0.0991 -0.9864  0.2980
15133SOL    HW147073   4.920   6.603   8.620  0.4552 -1.2174  2.3760
15133SOL    HW247074   4.787   6.661   8.575  1.6690 -0.2693 -0.2174
15134SOL     OW47075   3.455   1.174   0.741 -0.0086 -0.7704 -0.5383
15134SOL    HW147076   3.525   1.200   0.801  1.1506 -1.9546 -1.3236
15134SOL    HW247077   3.374   1.192   0.789  0.8455 -0.2740  0.7726
15135SOL     OW47078   0.061   9.119   4.824 -0.0175  0.3423 -0.0344
15135SOL    HW147079   0.129   9.183   4.845  0.5317 -0.2355 -0.0192
15135SOL    HW247080   0.008   9.113   4.904 -0.4702  1.2489 -0.2510
15136SOL     OW47081   1.402   6.663   7.299 -0.0959 -0.1910 -0.3382
15136SOL    HW147082   1.428   6.753   7.317  0.3772 -0.6371  1.4009
15136SOL    HW247083   1.350   6.668   7.219 -0.0884  1.6245 -0.2605
15137SOL     OW47084   6.579   5.351   9.446 -0.7799  0.0072  0.2115
15137SOL    HW147085   6.504   5.294   9.459 -0.2263 -0.2525  2.8621
15137SOL    HW247086   6.606   5.335   9.356 -1.0128 -3.5283  0.6279
15138SOL     OW47087   7.716   6.525   5.466  0.2575  0.3953  0.0750
15138SOL    HW147088   7.678   6.607   5.434  0.3965 -0.0624 -1.3141
15138SOL    HW247089   7.703   6.463   5.395  2.1386 -0.2098  0.1995
15139SOL     OW47090   1.936   2.170   3.050 -0.3732  0.7439 -0.4684
15139SOL    HW147091   1.908   2.143   2.963  0.1590  1.2198 -0.7990
15139SOL    HW247092   1.859   2.158   3.105 -0.4679 -0.3686 -0.8224
15140SOL     OW47093   4.202   3.545   0.390  0.2964 -0.1144  1.1033
15140SOL    HW147094   4.164   3.595   0.318 -1.8632 -1.1360  1.4489
15140SOL    HW247095   4.294   3.532   0.365 -0.4497 -0.7259 -1.6463
15141SOL     OW47096   0.872   4.357   0.617 -0.2272 -0.6052  0.0316
15141SOL    HW147097   0.815   4.385   0.689  1.2011 -1.6980  1.6793
15141SOL    HW247098   0.900   4.438   0.575 -0.2175  0.1361  1.4294
15142SOL     OW47099   4.061   0.401   7.263 -0.9387 -0.2661  0.0104
15142SOL    HW147100   4.065   0.398   7.167  0.5221 -1.5676  0.0836
15142SOL    HW247101   4.141   0.447   7.289 -0.6094 -1.1914  0.6540
15143SOL     OW47102   7.419   0.667   8.246 -0.1356 -0.8645 -0.6902
15143SOL    HW147103   7.460   0.650   8.331 -1.8813 -0.2142  0.3522
15143SOL    HW247104   7.485   0.714   8.196  0.7393 -0.7342  0.5359
15144SOL     OW47105   8.515   5.801   6.745 -0.7033  0.2233 -0.1248
15144SOL    HW147106   8.478   5.885   6.771  0.2999  0.7577 -0.4038
15144SOL    HW247107   8.557   5.818   6.661 -1.2659 -0.7708 -0.6318
15145SOL     OW47108   4.456   7.845   4.495  0.4046 -0.0145 -0.0293
15145SOL    HW147109   4.546   7.876   4.502 -0.0246  1.7294 -1.6947
15145SOL    HW247110   4.457   7.784   4.422  0.2182  0.0556 -0.0903
15146SOL     OW47111   2.449   9.406   2.286  0.0869 -0.3116  0.0704
15146SOL    HW147112   2.377   9.451   2.330  0.4616  0.0685  0.2950
15146SOL    HW247113   2.499   9.475   2.244  1.5862 -0.3094  1.7446
15147SOL     OW47114   2.387   3.563   5.285 -0.0738  0.1390 -0.0741
15147SOL    HW147115   2.358   3.552   5.194  0.5578  0.8578 -0.3798
15147SOL    HW247116   2.449   3.492   5.300  2.4493  1.8957 -1.3624
15148SOL     OW47117   3.251   3.677   8.843 -0.3529  0.3838 -0.2168
15148SOL    HW147118   3.274   3.597   8.795 -2.3602 -1.1033  1.1192
15148SOL    HW247119   3.328   3.696   8.896 -0.6695 -2.2822  1.4150
15149SOL     OW47120   5.064   5.384   6.632  0.4610 -0.4171 -0.0064
15149SOL    HW147121   5.038   5.303   6.676 -0.4393 -0.0939  0.0638
15149SOL    HW247122   5.096   5.440   6.703 -2.1238  0.5693  0.5037
15150SOL     OW47123   4.353   3.509   0.876  0.0024 -0.1612 -0.4714
15150SOL    HW147124   4.436   3.520   0.921  0.5486  1.1961 -1.7173
15150SOL    HW247125   4.288   3.497   0.946  0.8722  1.3991  0.6486
15151SOL     OW47126   0.279   2.095   7.171  0.1409 -0.4023  0.2110
15151SOL    HW147127   0.291   2.103   7.076 -1.0765  0.2393  0.0991
15151SOL    HW247128   0.336   2.022   7.196 -0.3618 -1.3031 -1.1807
15152SOL     OW47129   2.205   0.014   3.508 -0.2454 -0.3750  0.0645
15152SOL    HW147130   2.158  -0.049   3.563 -0.6827  1.0409  1.3793
15152SOL    HW247131   2.285   0.033   3.556 -0.1514  0.1195 -0.2799
15153SOL     OW47132   8.549   5.050   4.615  0.2590  0.0197  0.0797
15153SOL    HW147133   8.522   4.959   4.620  1.2424 -0.3031 -0.2832
15153SOL    HW247134   8.624   5.056   4.673  1.5977  0.0528 -1.5842
15154SOL     OW47135   0.292   6.124   2.773 -0.0136  0.2529  0.1282
15154SOL    HW147136   0.201   6.097   2.779  0.4811 -1.3385  0.9211
15154SOL    HW247137   0.327   6.075   2.698 -0.0326  1.6295 -0.8272
15155SOL     OW47138   9.273   8.164   9.553 -0.3447  0.2748 -0.3509
15155SOL    HW147139   9.343   8.209   9.506 -0.5674  1.4487  0.4041
15155SOL    HW247140   9.319   8.111   9.619 -0.1464  0.9588  0.0712
15156SOL     OW47141   0.197   6.002   2.537 -0.0678 -0.6320 -0.3696
15156SOL    HW147142   0.121   6.017   2.482  0.5936 -1.0086 -1.4153
15156SOL    HW247143   0.168   5.935   2.600 -1.0860  0.4260  0.3162
15157SOL     OW47144   7.540   9.592   7.496 -0.2136  0.0072  0.1453
15157SOL    HW147145   7.504   9.515   7.451 -0.5850 -0.2643  0.8774
15157SOL    HW247146   7.467   9.654   7.498 -0.7291 -0.6010  1.7649
15158SOL     OW47147   6.544   3.926   7.921 -0.2891 -0.5661  0.1693
15158SOL    HW147148   6.475   3.878   7.875 -2.0975 -0.5229  2.5959
15158SOL    HW247149   6.522   4.018   7.909 -1.3570 -0.5626  1.7773
15159SOL     OW47150   2.471   0.991   4.615 -0.3283 -0.2284  0.3944
15159SOL    HW147151   2.450   1.030   4.699 -2.2029 -1.3038  0.4755
15159SOL    HW247152   2.481   1.065   4.555  1.0108  0.5490  1.5060
15160SOL     OW47153   1.098   9.494   0.144  0.2182  0.3435  0.4438
15160SOL    HW147154   1.136   9.569   0.098 -0.6947 -0.2106 -1.3203
15160SOL    HW247155   1.169   9.430   0.147 -0.0044 -0.0298 -1.2608
15161SOL     OW47156   4.398   9.261   0.680  0.3205 -0.9091  0.0786
15161SOL    HW147157   4.378   9.329   0.744 -1.8092 -0.9365 -0.4840
15161SOL    HW247158   4.426   9.308   0.601 -2.7545 -0.4729 -0.8777
15162SOL     OW47159   7.560   0.972   5.977  0.0290 -0.2247  0.3705
15162SOL    HW147160   7.644   0.926   5.976  0.2156  0.1137 -0.3834
15162SOL    HW247161   7.574   1.050   5.922 -1.0607 -0.6883 -0.6208
15163SOL     OW47162   1.235   6.756   5.986 -0.1389 -0.4197 -0.4104
15163SOL    HW147163   1.158   6.761   6.043 -0.4002 -0.7898 -0.7295
15163SOL    HW247164   1.307   6.734   6.045  0.6055  3.9701  0.6800
15164SOL     OW47165   1.660   5.611   6.786 -0.0069 -0.6672 -0.2482
15164SOL    HW147166   1.583   5.613   6.844 -0.5111  0.1812 -0.9265
15164SOL    HW247167   1.632   5.657   6.707  0.8776 -1.2620 -0.9243
15165SOL     OW47168   0.862   9.107   8.038 -0.2905  1.1425 -0.0552
15165SOL    HW147169   0.890   9.119   7.948  1.6130  2.5105  0.6518
15165SOL    HW247170   0.869   9.013   8.053  1.3709  1.1252 -0.7560
15166SOL     OW47171   2.345   7.369   4.696  0.3660  0.3291  0.0552
15166SOL    HW147172   2.361   7.433   4.626  0.4691 -0.0576 -0.2799
15166SOL    HW247173   2.359   7.284   4.654  2.1074  0.1219  0.9615
15167SOL     OW47174   0.992   7.555   8.584  0.3931  0.2757  0.2261
15167SOL    HW147175   0.993   7.553   8.680 -0.6049 -1.0186  0.2394
15167SOL    HW247176   0.901   7.539   8.561  1.1025 -2.7187 -0.9387
15168SOL     OW47177   3.353   2.470   7.714  0.0264 -0.6309  0.0380
15168SOL    HW147178   3.311   2.438   7.634 -0.7792  1.0864 -0.2767
15168SOL    HW247179   3.399   2.549   7.687 -0.5484  0.1820  1.3074
15169SOL     OW47180   9.669   6.093   4.306  0.3391 -0.1658  0.0719
15169SOL    HW147181   9.592   6.140   4.274  0.6394  0.4851  0.2936
15169SOL    HW247182   9.635   6.036   4.375 -0.3128 -1.5460 -1.3099
15170SOL     OW47183   0.412   6.061   8.012 -0.1484  0.1711 -0.1041
15170SOL    HW147184   0.395   6.006   8.089  1.6989  0.2932  0.4507
15170SOL    HW247185   0.370   6.144   8.031  0.1139  0.1277  0.7040
15171SOL     OW47186   6.319   1.317   5.637 -0.1102  0.3843  0.2914
15171SOL    HW147187   6.275   1.275   5.712 -1.5305  1.4159  0.0798
15171SOL    HW247188   6.282   1.273   5.560 -0.1361  0.6640  0.1415
15172SOL     OW47189   3.111   6.871   3.725  0.3310  0.3508 -0.0653
15172SOL    HW147190   3.052   6.935   3.764 -0.1471 -1.4705  2.4188
15172SOL    HW247191   3.188   6.872   3.783 -0.2784 -2.2464  0.8964
15173SOL     OW47192   2.810   0.277   6.961  0.9009 -0.4844  0.6781
15173SOL    HW147193   2.789   0.209   6.897  0.9944 -0.0649  0.1887
15173SOL    HW247194   2.892   0.248   7.001  1.5533 -0.1130 -0.3440
15174SOL     OW47195   4.259   1.131   5.461 -0.0388  0.4599  0.0775
15174SOL    HW147196   4.271   1.226   5.466  0.9633  0.3532 -0.1843
15174SOL    HW247197   4.225   1.116   5.373 -1.3420  0.6779  0.5226
15175SOL     OW47198   2.050   6.521   1.589 -0.0461 -0.2027 -0.5447
15175SOL    HW147199   2.136   6.486   1.567 -1.1050 -1.9686 -2.2545
15175SOL    HW247200   2.018   6.466   1.659 -0.7505 -1.2115 -1.6187
15176SOL     OW47201   6.342   0.658   3.018 -0.2720  0.0129 -0.7167
15176SOL    HW147202   6.375   0.748   3.013  0.6037 -0.2619 -0.2084
15176SOL    HW247203   6.363   0.620   2.933 -0.2727  0.1691 -0.7867
15177SOL     OW47204   7.164   8.421   3.467  0.4176  0.0658  0.2075
15177SOL    HW147205   7.175   8.369   3.546  0.6292 -0.7868 -0.3696
15177SOL    HW247206   7.155   8.357   3.397  1.9572  0.7713 -0.7031
15178SOL     OW47207   7.654   4.585   4.364 -0.7882  0.2991  0.1996
15178SOL    HW147208   7.743   4.586   4.399 -0.5235  1.2001 -0.4799
15178SOL    HW247209   7.665   4.593   4.270 -1.5405 -1.0980 -0.0449
15179SOL     OW47210   7.930   1.964   9.506 -0.1144 -0.6540  0.1618
15179SOL    HW147211   7.959   2.037   9.452 -0.8820 -0.4855 -0.0279
15179SOL    HW247212   7.843   1.942   9.473 -0.2992 -1.0082  0.8610
15180SOL     OW47213   6.312   3.063   1.738  0.1624  0.4518 -0.5474
15180SOL    HW147214   6.230   3.017   1.717  0.0295  0.1889  0.4741
15180SOL    HW247215   6.353   3.008   1.805  0.6992  1.1033 -0.3344
15181SOL     OW47216   8.790   4.924   6.364  0.6615  0.4642 -0.0470
15181SOL    HW147217   8.771   4.931   6.458  1.6256  0.4661  0.1616
15181SOL    HW247218   8.709   4.953   6.321 -0.8166 -2.1544  0.7353
15182SOL     OW47219   5.209   8.456   2.403  0.4402  0.6874  0.2508
15182SOL    HW147220   5.164   8.516   2.343  0.5529 -0.3409 -0.8807
15182SOL    HW247221   5.285   8.424   2.354  0.7757  0.1451  1.0940
15183SOL     OW47222   0.751   1.872   3.987  0.2334 -0.1757  0.3551
15183SOL    HW147223   0.784   1.791   4.025 -0.0723 -0.8967 -0.8742
15183SOL    HW247224   0.798   1.941   4.034  1.1347 -1.0870  0.8298
15184SOL     OW47225   6.126   7.643   9.364  0.1807  0.4131 -0.2632
15184SOL    HW147226   6.045   7.684   9.394  0.6284  1.9453 -1.0221
15184SOL    HW247227   6.173   7.621   9.445 -1.3697 -1.3972  0.2069
15185SOL     OW47228   9.009   7.990   9.032 -0.4253 -0.5047 -0.2416
15185SOL    HW147229   9.038   8.031   9.113 -0.9765 -0.5922 -0.0002
15185SOL    HW247230   8.940   7.929   9.058 -1.0921 -0.0347 -0.8458
15186SOL     OW47231   2.333   1.216   7.596 -0.2225  0.1373  0.5441
15186SOL    HW147232   2.240   1.217   7.619 -0.5388  1.1778 -0.7261
15186SOL    HW247233   2.369   1.144   7.649 -2.0002 -1.1972  0.0545
15187SOL     OW47234   8.076   8.814   0.010  0.0269 -0.5950 -0.3857
15187SOL    HW147235   8.022   8.860   0.074  1.1601  0.4114 -0.1178
15187SOL    HW247236   8.031   8.827  -0.073 -0.3308 -0.0808 -0.1115
15188SOL     OW47237   5.724   1.612   1.558  0.3328 -0.1621 -0.2129
15188SOL    HW147238   5.778   1.656   1.624 -0.5614  1.1874 -0.3638
15188SOL    HW247239   5.779   1.608   1.480  0.6408  0.1335 -0.0121
15189SOL     OW47240   6.602   7.376   5.092 -0.2930  0.3618 -0.2362
15189SOL    HW147241   6.530   7.438   5.104 -0.6200 -0.0423 -0.0697
15189SOL    HW247242   6.626   7.385   5.000 -1.1143 -0.0875 -0.5048
15190SOL     OW47243   7.900   1.470   5.369  0.1742  0.5083  0.7792
15190SOL    HW147244   7.824   1.419   5.343 -0.0420  1.7421 -1.1962
15190SOL    HW247245   7.972   1.407   5.370 -0.2965 -0.0679 -0.4940
15191SOL     OW47246   9.411   2.780   9.673  0.3660 -0.0315  0.3949
15191SOL    HW147247   9.392   2.849   9.611  0.7114 -0.5297 -0.2782
15191SOL    HW247248   9.495   2.805   9.713  2.1047 -1.5277 -2.0568
15192SOL     OW47249   5.585   2.863   8.074  0.2168 -0.2253  0.9212
15192SOL    HW147250   5.500   2.834   8.107  0.1320 -0.5534  0.4197
15192SOL    HW247251   5.588   2.956   8.093  0.2999 -0.4584  2.1500
15193SOL     OW47252   5.571   2.904   8.715 -0.6179  0.4153  0.0514
15193SOL    HW147253   5.485   2.878   8.682 -0.0066 -0.3264 -1.0337
15193SOL    HW247254   5.607   2.824   8.753 -0.0849  0.5083 -0.2491
15194SOL     OW47255   6.505   7.601   0.803  0.5986 -0.0370  0.2691
15194SOL    HW147256   6.537   7.675   0.855 -0.1649  0.6966 -0.2878
15194SOL    HW247257   6.410   7.603   0.815  0.2484  0.9646 -2.1711
15195SOL     OW47258   4.735   2.184   7.437 -0.2819 -0.1099  0.2429
15195SOL    HW147259   4.681   2.249   7.481 -0.0286  0.6761 -0.5677
15195SOL    HW247260   4.675   2.140   7.377 -0.5799 -1.0358  1.1959
15196SOL     OW47261   4.181   7.835   7.287 -0.1749  0.1359 -0.1778
15196SOL    HW147262   4.108   7.777   7.267 -0.1937  0.2200 -0.3535
15196SOL    HW247263   4.224   7.794   7.362 -0.2151 -0.0828 -0.2716
15197SOL     OW47264   1.510   7.199   0.944 -0.0835  0.3226 -0.3619
15197SOL    HW147265   1.501   7.284   0.988 -2.0252  1.4163 -2.6621
15197SOL    HW247266   1.528   7.221   0.853  0.5898 -1.8024 -0.7876
15198SOL     OW47267   4.554   1.487   5.926  0.1958 -0.0570 -0.3256
15198SOL    HW147268   4.549   1.570   5.880  0.2977 -0.0253 -0.2794
15198SOL    HW247269   4.548   1.421   5.857 -2.4739 -0.0663 -0.1766
15199SOL     OW47270   8.551   6.685   1.295  0.5927 -0.4809  0.1416
15199SOL    HW147271   8.480   6.638   1.338  0.6265 -0.8824 -0.2295
15199SOL    HW247272   8.625   6.624   1.299  1.0915  0.1782  1.0692
15200SOL     OW47273   6.718   8.391   6.536  0.5553  0.4237 -0.3483
15200SOL    HW147274   6.687   8.304   6.563 -0.9540  0.6456 -1.2498
15200SOL    HW247275   6.738   8.435   6.619  1.0454 -0.6699  0.1379
15201SOL     OW47276   8.958   5.417   8.505  0.2052  0.6508  0.0379
15201SOL    HW147277   8.918   5.504   8.494  0.9858  0.7748 -2.6475
15201SOL    HW247278   8.884   5.359   8.525 -0.5272  1.6948  0.4721
15202SOL     OW47279   8.401   9.648   1.724 -0.3625  0.0632 -0.1819
15202SOL    HW147280   8.317   9.682   1.755  0.6653 -0.0826  3.0991
15202SOL    HW247281   8.388   9.553   1.718 -0.6471  0.1197 -0.5113
15203SOL     OW47282   0.496   7.160   5.472 -0.5538 -0.2803  0.4904
15203SOL    HW147283   0.579   7.175   5.428  0.2601 -0.6985  1.8426
15203SOL    HW247284   0.488   7.234   5.533 -0.1858 -1.2703  1.7771
15204SOL     OW47285   7.987   1.560   0.026  0.1586  0.2598  0.0618
15204SOL    HW147286   7.992   1.631   0.090  0.7800 -0.8658  1.3230
15204SOL    HW247287   8.068   1.567  -0.024  0.6153 -0.0447  0.7440
15205SOL     OW47288   2.210   5.288   2.848  0.1531  0.5134  0.4917
15205SOL    HW147289   2.116   5.278   2.860  0.3644 -2.1853  0.5635
15205SOL    HW247290   2.247   5.283   2.936  0.4908 -1.0142  0.2909
15206SOL     OW47291   8.168   0.664   3.468  0.2860 -0.1471  0.1463
15206SOL    HW147292   8.227   0.693   3.399  1.6112 -0.0792  1.2762
15206SOL    HW247293   8.081   0.693   3.439  0.7375 -0.4926 -1.6754
15207SOL     OW47294   5.026   4.022   3.497 -0.0981  0.2513  0.0351
15207SOL    HW147295   4.994   3.931   3.492  0.3734  0.0494  0.6479
15207SOL    HW247296   5.096   4.026   3.431  0.3855 -0.0418  0.5254
15208SOL     OW47297   3.273   0.643   7.210  0.1420 -0.1601 -0.4565
15208SOL    HW147298   3.210   0.682   7.150  0.2324 -1.1457 -1.2154
15208SOL    HW247299   3.222   0.581   7.262  0.1050  0.5335  0.3607
15209SOL     OW47300   6.006   7.798   2.914  0.5398 -0.4820  0.2670
15209SOL    HW147301   6.020   7.789   2.820  1.8019 -1.4951  0.5135
15209SOL    HW247302   5.913   7.819   2.923  0.3135 -0.7617 -1.1781
15210SOL     OW47303   0.769   9.104   7.135 -0.7263  0.5084  0.2911
15210SOL    HW147304   0.801   9.014   7.142 -3.2909 -0.4896  0.5468
15210SOL    HW247305   0.754   9.117   7.041 -1.9014  0.0018  0.3804
15211SOL     OW47306   2.893   2.964   9.270  0.2873  0.1065 -0.3337
15211SOL    HW147307   2.951   2.959   9.346  1.3783 -1.4254 -1.2216
15211SOL    HW247308   2.828   2.895   9.285 -1.2525  1.6349  0.5253
15212SOL     OW47309   1.495   4.284   5.736  0.3743 -0.6478  0.3721
15212SOL    HW147310   1.528   4.211   5.788  0.9271 -0.3419  0.4606
15212SOL    HW247311   1.496   4.358   5.797  0.8698 -0.3224 -0.0303
15213SOL     OW47312   5.559   7.975   0.688 -0.3117  0.2945  0.3284
15213SOL    HW147313   5.648   7.946   0.668 -0.3962 -0.0829  0.4888
15213SOL    HW247314   5.511   7.963   0.606 -0.2428  0.3897  0.2739
15214SOL     OW47315   2.007   3.006   4.247  0.1909 -0.3604 -0.4664
15214SOL    HW147316   1.995   3.057   4.327 -1.3779 -1.3686 -0.0148
15214SOL    HW247317   1.921   3.007   4.205 -0.3195 -3.6020  0.2051
15215SOL     OW47318   5.945   9.089   4.787 -0.3692  0.1642  0.1472
15215SOL    HW147319   5.919   9.178   4.810 -1.3739  0.3374 -1.5164
15215SOL    HW247320   5.957   9.091   4.692 -0.0986 -1.3978  0.1224
15216SOL     OW47321   2.527   6.810   6.971 -0.1432  0.0511  0.5920
15216SOL    HW147322   2.448   6.812   7.026 -0.4560  1.1407  0.1255
15216SOL    HW247323   2.493   6.795   6.882  0.3345 -1.3963  0.6243
15217SOL     OW47324   7.904   5.036   8.552 -0.0563 -0.1124 -0.0061
15217SOL    HW147325   7.911   4.961   8.611  0.6797  0.3729  0.5455
15217SOL    HW247326   7.995   5.058   8.531 -0.2290  0.9805  0.3129
15218SOL     OW47327   3.544   8.864   6.407 -0.3267  0.1174  0.1482
15218SOL    HW147328   3.554   8.804   6.333 -1.0504  0.4417 -0.2298
15218SOL    HW247329   3.606   8.833   6.473  0.7647  0.1952 -0.8281
15219SOL     OW47330   0.911   4.213   5.970  0.0126 -0.1365  0.6467
15219SOL    HW147331   0.889   4.238   6.059  0.3034 -0.5721  0.8473
15219SOL    HW247332   0.956   4.129   5.980  1.1235  0.3922  0.1949
15220SOL     OW47333   8.908   4.670   1.322 -0.1858 -0.3817 -0.8880
15220SOL    HW147334   8.940   4.759   1.332 -1.6730  0.3144 -1.9000
15220SOL    HW247335   8.902   4.657   1.227 -3.8842  0.0206 -0.8542
15221SOL     OW47336   6.433   0.755   9.609 -0.0133 -0.3480 -0.1405
15221SOL    HW147337   6.460   0.816   9.677 -0.9708  0.6052 -0.5864
15221SOL    HW247338   6.515   0.719   9.574  0.5155 -2.8413  3.2114
15222SOL     OW47339   2.726   0.825   3.897 -0.5491  0.2654 -0.3258
15222SOL    HW147340   2.780   0.784   3.829  0.9412  1.0503  0.3135
15222SOL    HW247341   2.770   0.802   3.979 -0.7002  1.6164  0.1607
15223SOL     OW47342   5.379   7.689   4.139 -0.5138  0.2154 -0.7984
15223SOL    HW147343   5.413   7.753   4.202 -1.1224 -0.8922  0.7102
15223SOL    HW247344   5.446   7.684   4.072  0.3171  1.1871 -0.0796
15224SOL     OW47345   4.349   9.163   1.887 -0.2091 -0.0592  0.2645
15224SOL    HW147346   4.379   9.081   1.928  0.3170  0.3208  0.6581
15224SOL    HW247347   4.393   9.165   1.802 -1.6675 -1.0803 -0.5563
15225SOL     OW47348   0.877   3.080   0.115  0.2078  0.0290 -0.5736
15225SOL    HW147349   0.820   3.150   0.083  1.4705  1.0030 -0.7645
15225SOL    HW247350   0.909   3.112   0.200  0.0705 -0.7515 -0.2131
15226SOL     OW47351   3.804   2.308   7.897  0.2855  1.0164 -0.1452
15226SOL    HW147352   3.887   2.264   7.916 -0.2499 -0.1337 -0.3838
15226SOL    HW247353   3.772   2.266   7.817 -1.1793  0.4762  0.6785
15227SOL     OW47354   3.701   5.567   9.307 -0.1850 -0.4172 -0.1287
15227SOL    HW147355   3.780   5.542   9.258  0.8339  1.0465  0.6670
15227SOL    HW247356   3.725   5.553   9.399 -1.2018 -0.8394  0.0762
15228SOL     OW47357   5.314   8.037   7.093 -0.0506  0.4264 -0.5107
15228SOL    HW147358   5.359   8.102   7.148 -2.8267  1.6546  0.4640
15228SOL    HW247359   5.301   8.082   7.009  0.5034  0.0554 -0.8051
15229SOL     OW47360   3.428   3.407   0.006  0.1884 -0.5276  0.1832
15229SOL    HW147361   3.361   3.348  -0.029 -0.9745  0.3961  0.8004
15229SOL    HW247362   3.387   3.449   0.082  1.7882 -0.6252  1.1686
15230SOL     OW47363   8.046   8.441   6.503  0.3391 -0.2746  0.1951
15230SOL    HW147364   8.020   8.356   6.467 -0.7135  0.0976  0.0576
15230SOL    HW247365   7.971   8.470   6.554  0.8718  0.3605  0.6308
15231SOL     OW47366   7.634   5.346   5.168 -0.3549  0.0735 -0.2906
15231SOL    HW147367   7.562   5.301   5.213 -1.4546  0.3194 -1.7304
15231SOL    HW247368   7.652   5.422   5.222 -0.5586 -0.4701  0.5654
15232SOL     OW47369   5.762   7.555   2.670  0.3815 -0.2630  0.0550
15232SOL    HW147370   5.787   7.647   2.668  0.0487 -0.1581  0.5483
15232SOL    HW247371   5.841   7.508   2.697  0.0112  0.0934  1.9121
15233SOL     OW47372   1.242   3.620   2.454 -0.2397  0.4567  0.4224
15233SOL    HW147373   1.232   3.697   2.509 -2.4099 -0.2048  1.0325
15233SOL    HW247374   1.207   3.645   2.369  0.5879  0.6244  0.1166
15234SOL     OW47375   3.360   3.019   8.132  0.1625 -0.1237  0.1144
15234SOL    HW147376   3.291   3.029   8.067  0.3712  0.7640  0.0133
15234SOL    HW247377   3.315   3.033   8.216 -0.0587 -1.0247  0.1546
15235SOL     OW47378   1.073   0.611   3.639 -0.1021 -0.1894 -0.2476
15235SOL    HW147379   1.001   0.602   3.702 -0.6026  0.6280 -0.6802
15235SOL    HW247380   1.038   0.572   3.558  0.4013 -0.9057 -0.1234
15236SOL     OW47381   5.852   5.386   2.755 -0.0838  0.2988  0.3900
15236SOL    HW147382   5.937   5.428   2.747  0.0350  0.3280  1.5882
15236SOL    HW247383   5.836   5.382   2.849 -1.4791  0.4452  0.1828
15237SOL     OW47384   5.071   2.115   0.593 -0.6900 -0.1794 -0.5088
15237SOL    HW147385   5.098   2.177   0.661 -0.7199 -0.0959 -0.5721
15237SOL    HW247386   5.017   2.050   0.639  0.4898 -0.9576 -0.1749
15238SOL     OW47387   8.119   1.813   7.964 -0.7286  0.2853  0.4925
15238SOL    HW147388   8.047   1.811   7.901  0.3171  1.2858 -0.7844
15238SOL    HW247389   8.198   1.814   7.911  0.2536 -0.6703  1.8644
15239SOL     OW47390   7.559   5.765   3.606 -0.3438  0.2874  0.5006
15239SOL    HW147391   7.591   5.678   3.580  2.2532  1.2085  0.3481
15239SOL    HW247392   7.604   5.784   3.688 -1.1771  1.3613  0.7370
15240SOL     OW47393   0.621   8.010   7.167 -0.0094  0.5680  0.0871
15240SOL    HW147394   0.643   8.026   7.258 -0.1278  1.1537  0.0127
15240SOL    HW247395   0.548   7.948   7.170  1.0640 -0.7316  0.3516
15241SOL     OW47396   2.525   9.574   5.117  0.0140 -0.4378 -0.6084
15241SOL    HW147397   2.476   9.493   5.132  2.8184 -2.2588 -0.4344
15241SOL    HW247398   2.592   9.550   5.054  1.1378  1.6951 -0.3235
15242SOL     OW47399   6.918   6.841   3.721 -0.1965 -0.2183  0.0116
15242SOL    HW147400   6.959   6.775   3.777  0.7181 -0.6312 -1.1064
15242SOL    HW247401   6.988   6.902   3.699 -0.3193 -0.5082 -1.3099
15243SOL     OW47402   9.586   4.880   2.209  0.1960  0.3801 -0.2673
15243SOL    HW147403   9.617   4.965   2.239 -3.5135  1.9342 -0.3161
15243SOL    HW247404   9.613   4.819   2.278  0.2372  2.1636  1.3756
15244SOL     OW47405   6.252   7.432   8.134 -0.3427  0.5366  0.2270
15244SOL    HW147406   6.235   7.390   8.049 -1.1383 -0.2718  0.7624
15244SOL    HW247407   6.301   7.510   8.112  2.3875 -1.2986 -0.7205
15245SOL     OW47408   7.349   5.852   3.466  0.3222 -0.1323  0.0969
15245SOL    HW147409   7.282   5.821   3.527 -0.2665 -1.2499 -1.0705
15245SOL    HW247410   7.431   5.815   3.500  0.6031  2.0856  2.1273
15246SOL     OW47411   7.000   3.258   5.220 -0.0533 -0.1749  0.2047
15246SOL    HW147412   6.958   3.234   5.138 -0.1823 -1.7584  0.7015
15246SOL    HW247413   6.962   3.199   5.285  2.5752 -1.3846  0.7638
15247SOL     OW47414   7.160   7.986   3.198  0.1629 -0.1699  0.3687
15247SOL    HW147415   7.107   7.938   3.262  1.1846 -2.0042 -0.0879
15247SOL    HW247416   7.176   7.923   3.128  0.0055  1.4561 -1.1843
15248SOL     OW47417   7.373   7.928   0.818  0.2979  0.1079 -0.3127
15248SOL    HW147418   7.317   7.945   0.894  1.1278  0.3561  0.2571
15248SOL    HW247419   7.367   7.834   0.804 -1.4515  0.3083 -1.2123
15249SOL     OW47420   7.058   6.689   4.799 -0.1760  0.0651 -0.0773
15249SOL    HW147421   7.088   6.772   4.761 -1.5121  0.1402 -1.0449
15249SOL    HW247422   6.968   6.680   4.767 -0.3275 -1.3552  0.6986
15250SOL     OW47423   6.895   5.010   3.412 -0.3660 -0.0091 -0.4543
15250SOL    HW147424   6.896   5.024   3.507 -2.2873  0.3390 -0.4387
15250SOL    HW247425   6.894   4.914   3.403  2.7207 -0.1697 -0.2760
15251SOL     OW47426   0.617   0.318   3.413 -0.1187  0.1313  0.5116
15251SOL    HW147427   0.583   0.312   3.324  1.7598  0.2216 -0.2701
15251SOL    HW247428   0.570   0.392   3.452  0.9905  1.9327 -1.3813
15252SOL     OW47429   3.302   7.690   1.264 -0.0343 -0.2349  0.3203
15252SOL    HW147430   3.209   7.670   1.276  0.0622  0.0677  1.7481
15252SOL    HW247431   3.339   7.689   1.352  1.4755 -1.0177 -0.2851
15253SOL     OW47432   2.746   9.413   7.260  0.2001  0.5331 -0.3676
15253SOL    HW147433   2.693   9.471   7.314  0.8736  0.7973  0.0190
15253SOL    HW247434   2.683   9.372   7.200 -0.7578 -0.6539  1.3711
15254SOL     OW47435   2.268   7.107   0.737  0.1775 -0.5922 -0.1392
15254SOL    HW147436   2.311   7.024   0.719  1.6216 -0.0790  0.7526
15254SOL    HW247437   2.229   7.133   0.654 -1.2319 -2.6422 -0.2063
15255SOL     OW47438   2.798   2.249   2.217 -0.2535  0.1271  0.0185
15255SOL    HW147439   2.757   2.172   2.177  0.5627 -1.4613  2.0482
15255SOL    HW247440   2.733   2.318   2.209 -2.1678 -1.5204  0.5312
15256SOL     OW47441   0.904   6.623   6.482  0.4618 -0.1516 -0.4647
15256SOL    HW147442   0.997   6.633   6.462  0.5252 -1.3748 -0.8432
15256SOL    HW247443   0.887   6.690   6.549  1.4054  0.6491 -0.9975
15257SOL     OW47444   1.147   0.964   4.908  0.3276 -0.4758 -0.0125
15257SOL    HW147445   1.052   0.956   4.911  0.2016  1.0257  1.1322
15257SOL    HW247446   1.176   0.947   4.998  0.8346  2.0131  0.3528
15258SOL     OW47447   8.980   1.680   1.367  0.5960 -0.1147 -0.1481
15258SOL    HW147448   9.007   1.646   1.452 -0.8178 -1.6912 -0.2676
15258SOL    HW247449   8.884   1.678   1.370  0.5195 -0.4019 -1.8376
15259SOL     OW47450   4.023   5.997   8.691 -0.0626 -0.4857 -0.0170
15259SOL    HW147451   4.116   5.978   8.685 -0.1117 -0.5285 -0.6336
15259SOL    HW247452   3.980   5.915   8.667 -0.2745 -0.8777  1.5432
15260SOL     OW47453   1.662   5.579   1.303 -0.2641 -0.4735 -0.2952
15260SOL    HW147454   1.690   5.630   1.379 -1.1312  0.7658 -0.7822
15260SOL    HW247455   1.725   5.603   1.234 -0.1229 -0.7745 -0.2730
15261SOL     OW47456   8.969   7.998   0.764  0.0867 -0.1302  0.6103
15261SOL    HW147457   9.021   8.068   0.725  0.3005 -0.4888  0.2518
15261SOL    HW247458   8.962   7.932   0.696 -2.3668  0.6590 -0.0031
15262SOL     OW47459   5.480   6.361   3.243 -0.2398 -0.6778 -0.5140
15262SOL    HW147460   5.526   6.444   3.255 -1.7717  0.0540  0.6985
15262SOL    HW247461   5.500   6.312   3.323 -0.0352 -1.1326 -0.8415
15263SOL     OW47462   3.647   5.962   2.786 -0.2484  0.2433 -0.2808
15263SOL    HW147463   3.705   5.953   2.710  0.3118 -1.1730  0.2880
15263SOL    HW247464   3.631   6.056   2.793  0.4326  0.4792 -1.5912
15264SOL     OW47465   2.898   0.143   6.553  0.3839  0.2888  0.2976
15264SOL    HW147466   2.805   0.145   6.532  0.8004  0.8557 -1.6639
15264SOL    HW247467   2.901   0.103   6.641 -1.6753  0.2235  0.4013
15265SOL     OW47468   1.221   2.286   7.821 -0.6761 -0.3685  0.2290
15265SOL    HW147469   1.288   2.261   7.757  0.1882 -1.1649  1.3872
15265SOL    HW247470   1.138   2.263   7.780 -0.4294  2.2066 -1.9433
15266SOL     OW47471   0.860   5.171   2.259  0.6701  0.5010  0.3391
15266SOL    HW147472   0.922   5.242   2.244  3.8543 -2.3214 -1.4499
15266SOL    HW247473   0.793   5.183   2.191  1.5455  1.4379 -0.3918
15267SOL     OW47474   0.690   1.590   0.232  1.2561 -0.0391 -1.2410
15267SOL    HW147475   0.769   1.557   0.276  0.3977 -0.6955 -0.1594
15267SOL    HW247476   0.688   1.543   0.148  1.4460 -0.7996 -0.8279
15268SOL     OW47477   4.495   5.120   0.150  0.0984 -0.2664 -0.0832
15268SOL    HW147478   4.533   5.147   0.067  2.0448 -0.1978  0.7716
15268SOL    HW247479   4.511   5.194   0.209  1.2300 -1.3609  1.0478
15269SOL     OW47480   9.623   9.665   5.049 -0.9024  0.5582  0.2836
15269SOL    HW147481   9.581   9.602   4.990  2.1476 -0.5956 -0.8663
15269SOL    HW247482   9.652   9.613   5.123  0.1773  0.9229  0.1269
15270SOL     OW47483   5.108   4.218   5.460 -0.5435  0.2862  0.0995
15270SOL    HW147484   5.197   4.251   5.469 -0.5280  0.5254 -0.8639
15270SOL    HW247485   5.099   4.197   5.367 -0.6550 -2.1443  0.5747
15271SOL     OW47486   6.913   1.003   1.338  0.1126  0.3999  0.0895
15271SOL    HW147487   6.932   0.911   1.355  1.2338  0.2671 -1.5776
15271SOL    HW247488   6.884   1.038   1.422  0.6922 -1.2195  1.0042
15272SOL     OW47489   3.910   0.927   5.646 -0.0512  0.2896  0.5718
15272SOL    HW147490   3.929   0.848   5.696 -2.0768 -1.5729 -1.4016
15272SOL    HW247491   3.971   0.924   5.572  0.2020  0.8571  0.7505
15273SOL     OW47492   5.518   5.003   2.564  0.1952  0.1455 -0.3322
15273SOL    HW147493   5.567   5.049   2.632 -0.7131  1.2303 -0.3813
15273SOL    HW247494   5.515   5.064   2.490  0.5317 -0.7204 -1.0787
15274SOL     OW47495   2.191   6.044   5.776 -0.0531 -0.2030  0.0269
15274SOL    HW147496   2.220   5.974   5.717  0.5475 -0.1094  0.2019
15274SOL    HW247497   2.204   6.008   5.864 -1.1637 -0.4315  0.1181
15275SOL     OW47498   7.118   1.038   8.219  0.3831  0.4699  0.3320
15275SOL    HW147499   7.194   1.014   8.166  0.5178  0.7539  0.3940
15275SOL    HW247500   7.056   1.073   8.156 -0.4509 -1.4741  0.0049
15276SOL     OW47501   2.903   1.966   8.988 -0.0352  0.0096  0.0780
15276SOL    HW147502   2.865   2.045   9.028  2.2144  2.2844 -1.9367
15276SOL    HW247503   2.929   1.912   9.063  0.5877  2.3261  1.6488
15277SOL     OW47504   7.043   9.087   8.498 -0.0809  0.3903 -0.0479
15277SOL    HW147505   7.062   9.097   8.592  0.8591 -3.5274  0.3581
15277SOL    HW247506   6.948   9.083   8.493 -0.1470 -1.9260  1.2585
15278SOL     OW47507   4.854   0.214   5.318  0.2127 -0.4425  1.0759
15278SOL    HW147508   4.837   0.264   5.239  1.3085  0.3041  1.2892
15278SOL    HW247509   4.948   0.197   5.316  0.1298 -1.0595  1.8419
15279SOL     OW47510   1.355   3.983   0.965 -0.0633 -0.4133  0.3506
15279SOL    HW147511   1.423   3.916   0.963  0.2323 -0.2226  2.0350
15279SOL    HW247512   1.279   3.941   0.925  0.7197 -0.9967 -0.5778
15280SOL     OW47513   9.486   4.826   9.063  0.0742  0.0301  0.1628
15280SOL    HW147514   9.567   4.805   9.111  0.4226  0.0925 -0.3816
15280SOL    HW247515   9.451   4.903   9.107  0.1385 -0.1944  0.6101
15281SOL     OW47516   1.625   8.135   6.810 -0.1524 -0.0873  0.0991
15281SOL    HW147517   1.627   8.228   6.789 -0.0493 -0.0583  0.2316
15281SOL    HW247518   1.582   8.094   6.736  1.5985 -0.1877 -0.9177
15282SOL     OW47519   1.872   7.251   6.956 -0.0229 -0.0122 -0.4347
15282SOL    HW147520   1.859   7.342   6.930  0.9064 -0.2714 -1.8766
15282SOL    HW247521   1.911   7.209   6.880 -0.2787 -1.5922  0.2646
15283SOL     OW47522   7.646   3.358   0.537 -0.3095 -0.5787 -0.3992
15283SOL    HW147523   7.735   3.340   0.567 -0.7533 -0.1405  1.3043
15283SOL    HW247524   7.595   3.367   0.617 -1.4057  1.6220 -1.2532
15284SOL     OW47525   3.975   7.384   2.118 -0.5473 -0.0326  0.5786
15284SOL    HW147526   4.035   7.447   2.079 -0.9143 -0.9433 -1.5894
15284SOL    HW247527   4.003   7.378   2.209  0.5261  1.9989  0.4416
15285SOL     OW47528   2.206   6.071   6.532 -0.1291  0.6684  0.0249
15285SOL    HW147529   2.141   6.054   6.600  1.2640  1.4208  1.6153
15285SOL    HW247530   2.253   6.148   6.563 -1.4178  3.0297 -3.2974
15286SOL     OW47531   8.330   3.485   5.107 -0.5009  0.6058 -0.1361
15286SOL    HW147532   8.342   3.580   5.115  1.6776  0.3686  0.0877
15286SOL    HW247533   8.418   3.449   5.118 -1.1363 -1.3943 -1.1184
15287SOL     OW47534   2.102   5.977   1.363 -0.0407 -0.5482  0.6705
15287SOL    HW147535   2.065   5.928   1.437 -0.6961 -0.2042  0.5735
15287SOL    HW247536   2.026   6.004   1.312  0.2288  1.5517  1.3203
15288SOL     OW47537   4.316   8.879   1.197 -0.3357  0.0032 -0.0799
15288SOL    HW147538   4.382   8.903   1.132  0.4986  0.6245  0.9607
15288SOL    HW247539   4.305   8.957   1.251 -3.5333  0.6710 -1.4840
15289SOL     OW47540   4.068   4.500   7.494 -0.3802 -0.0190 -0.2936
15289SOL    HW147541   4.135   4.519   7.428 -0.8363  0.0661 -0.7378
15289SOL    HW247542   4.063   4.404   7.496  0.6766 -0.0729  0.6869
15290SOL     OW47543   9.432   5.453   3.888  0.4961 -0.4121  0.1945
15290SOL    HW147544   9.386   5.474   3.970  1.4667  0.9371  0.4180
15290SOL    HW247545   9.377   5.490   3.819 -0.2300 -1.3911  0.2251
15291SOL     OW47546   1.172   9.375   9.379  0.1421  0.5191 -0.6222
15291SOL    HW147547   1.117   9.340   9.309 -0.2126  1.2449 -0.7113
15291SOL    HW247548   1.154   9.318   9.454  0.3081 -0.0864 -1.0325
15292SOL     OW47549   4.613   5.159   8.214  0.0773 -0.5008 -0.4555
15292SOL    HW147550   4.695   5.202   8.189 -0.4154  0.4152 -0.5432
15292SOL    HW247551   4.548   5.193   8.152 -0.6919  0.0362  0.6167
15293SOL     OW47552   7.688   5.978   0.246  0.4374 -0.3951 -0.0211
15293SOL    HW147553   7.606   5.937   0.217 -0.6989  1.0052  1.0780
15293SOL    HW247554   7.752   5.907   0.244 -1.0452 -1.7990  0.1000
15294SOL     OW47555   4.623   0.875   9.075  0.5367  0.2666  0.1624
15294SOL    HW147556   4.683   0.894   9.003 -0.9466  1.5213 -0.8049
15294SOL    HW247557   4.656   0.927   9.148  0.6963  0.8575 -0.3254
15295SOL     OW47558   2.878   4.747   0.191  0.2356  0.3315 -0.2145
15295SOL    HW147559   2.800   4.779   0.145 -0.6830  1.0150  1.6996
15295SOL    HW247560   2.842   4.702   0.269  1.7528  1.3043  1.1017
15296SOL     OW47561   1.817   4.716   0.094  0.1224  0.1170  0.3002
15296SOL    HW147562   1.795   4.686   0.182 -1.6748  0.6311  0.0631
15296SOL    HW247563   1.855   4.639   0.051 -2.2824 -1.2424  0.4265
15297SOL     OW47564   2.628   2.472   2.249  0.3947  0.2604  0.2119
15297SOL    HW147565   2.554   2.491   2.307 -0.0675 -2.5114  0.6694
15297SOL    HW247566   2.652   2.557   2.213 -2.4169  1.4068  0.7482
15298SOL     OW47567   3.449   6.872   8.216 -0.3560 -0.2341  0.4073
15298SOL    HW147568   3.501   6.951   8.231 -0.9591  0.1141  0.7003
15298SOL    HW247569   3.500   6.802   8.255  0.0878  0.0431  0.3258
15299SOL     OW47570   3.952   9.182   5.971  0.0563  0.2339 -0.4757
15299SOL    HW147571   3.973   9.207   5.881  1.1486  1.0383 -0.0268
15299SOL    HW247572   3.940   9.087   5.968 -0.7132  0.3527 -1.5982
15300SOL     OW47573   8.670   6.936   2.023  0.1476 -0.5058  0.4757
15300SOL    HW147574   8.747   6.903   1.976  0.4987 -1.4517  1.6853
15300SOL    HW247575   8.597   6.886   1.987  0.1540  0.0559 -0.3372
15301SOL     OW47576   6.805   0.236   3.230  0.3294  0.1916 -0.0025
15301SOL    HW147577   6.755   0.156   3.247 -0.1193  0.5056  0.1897
15301SOL    HW247578   6.743   0.294   3.185  0.6787  0.3937 -0.2259
15302SOL     OW47579   8.412   9.155   1.265  0.2032  0.2329 -0.4065
15302SOL    HW147580   8.373   9.106   1.192 -0.1791  0.5463 -0.4145
15302SOL    HW247581   8.403   9.247   1.240  1.7379  0.3063 -0.8138
15303SOL     OW47582   7.054   0.695   0.535  0.3718  0.1507  0.1631
15303SOL    HW147583   7.091   0.617   0.578  0.9239  1.7476  2.8106
15303SOL    HW247584   6.978   0.717   0.589  0.2117  1.4233 -0.5550
15304SOL     OW47585   6.384   7.159   4.960  0.1713  0.3853 -0.2396
15304SOL    HW147586   6.309   7.214   4.936  0.0713  0.5418  0.4162
15304SOL    HW247587   6.345   7.081   4.999  0.3556  0.7579  0.7109
15305SOL     OW47588   9.564   5.345   0.630  0.3551 -0.5434 -0.0676
15305SOL    HW147589   9.641   5.369   0.579 -0.7344  0.9212 -1.0919
15305SOL    HW247590   9.566   5.404   0.705  0.6487 -1.0572  0.3372
15306SOL     OW47591   7.871   2.786   4.646 -0.0682  0.5251 -0.5551
15306SOL    HW147592   7.843   2.777   4.737  1.2327 -2.3599 -0.2934
15306SOL    HW247593   7.797   2.754   4.594 -0.0016  0.0217 -0.3464
15307SOL     OW47594   1.617   8.963   7.277 -0.0826  0.4565  0.7135
15307SOL    HW147595   1.628   8.868   7.274 -1.5851  0.2721 -2.2530
15307SOL    HW247596   1.602   8.982   7.370  1.0335 -2.0529  1.4988
15308SOL     OW47597   6.384   8.745   1.512 -0.4293  0.1416  0.0603
15308SOL    HW147598   6.417   8.778   1.596 -1.5579  0.7492  0.2903
15308SOL    HW247599   6.289   8.737   1.525 -0.7810  1.3136 -1.4883
15309SOL     OW47600   7.560   8.133   1.758 -0.4418 -0.5384 -0.0298
15309SOL    HW147601   7.466   8.143   1.744  0.0663  1.7102 -2.6232
15309SOL    HW247602   7.592   8.094   1.677  0.9292 -0.9984  0.7030
15310SOL     OW47603   5.531   1.954   5.020 -0.1773 -0.2975  0.2229
15310SOL    HW147604   5.518   1.969   4.926 -0.6184  1.8168  0.5641
15310SOL    HW247605   5.626   1.964   5.032  0.4292 -3.9816 -0.4482
15311SOL     OW47606   5.952   7.385   3.195  0.4834 -0.1548  0.3228
15311SOL    HW147607   5.993   7.398   3.110 -1.0396 -0.7066 -0.5403
15311SOL    HW247608   5.971   7.465   3.244 -0.3248  1.0784 -1.2804
15312SOL     OW47609   6.208   0.648   7.454  0.4410 -0.2679  0.1629
15312SOL    HW147610   6.147   0.633   7.382 -0.0315 -0.1288  0.5296
15312SOL    HW247611   6.233   0.561   7.484 -1.2949 -0.3834  1.4474
15313SOL     OW47612   3.101   5.178   2.378  0.3664 -0.0466  0.7001
15313SOL    HW147613   3.090   5.219   2.292 -0.0404 -0.9708  0.2916
15313SOL    HW247614   3.105   5.251   2.440 -1.1948  0.5787  0.1026
15314SOL     OW47615   6.671   3.088   3.521 -0.3922  0.2686 -0.8878
15314SOL    HW147616   6.712   3.173   3.511 -0.5812  0.4166 -0.4439
15314SOL    HW247617   6.665   3.075   3.616 -1.4845  0.3111 -0.9343
15315SOL     OW47618   8.823   9.204   9.616 -0.3823 -0.3619 -0.2153
15315SOL    HW147619   8.916   9.184   9.631 -0.9562 -2.0420  1.4823
15315SOL    HW247620   8.779   9.170   9.694 -2.4882  0.0424 -1.1783
15316SOL     OW47621   1.390   1.089   6.529  0.0392 -0.5386  0.2964
15316SOL    HW147622   1.396   0.998   6.500 -0.3032 -0.6871  0.6829
15316SOL    HW247623   1.437   1.139   6.462 -1.3404 -0.7939 -0.9114
15317SOL     OW47624   4.737   2.604   7.526 -0.2663  0.0231 -0.5798
15317SOL    HW147625   4.732   2.640   7.615  1.0881  0.0338 -0.4929
15317SOL    HW247626   4.655   2.556   7.516 -0.7300  0.5572  0.4363
15318SOL     OW47627   0.547   0.404   4.206  0.2607  0.0878  0.7060
15318SOL    HW147628   0.467   0.375   4.163  0.1734  0.3183  0.7142
15318SOL    HW247629   0.587   0.465   4.144  0.4775 -0.0964  0.6617
15319SOL     OW47630   4.626   1.764   6.063  0.4055 -0.2565  0.0672
15319SOL    HW147631   4.623   1.740   5.971 -1.0640  0.4198 -0.1020
15319SOL    HW247632   4.717   1.786   6.080  1.0596 -2.1946 -0.7191
15320SOL     OW47633   2.197   1.534   6.982  0.1552 -0.2545 -0.0619
15320SOL    HW147634   2.230   1.516   6.894  1.5927  0.0284  0.3971
15320SOL    HW247635   2.197   1.448   7.025 -1.0942 -0.4900 -0.4917
15321SOL     OW47636   6.895   3.598   7.672  0.9076  0.8700  0.8322
15321SOL    HW147637   6.808   3.592   7.711  0.1685 -1.3718 -0.9410
15321SOL    HW247638   6.897   3.684   7.631 -0.2667  1.1560  1.3386
15322SOL     OW47639   0.230   7.440   6.196 -0.5187  0.1365  0.6390
15322SOL    HW147640   0.246   7.523   6.242  1.8667  0.1576 -0.1074
15322SOL    HW247641   0.233   7.374   6.265  2.3739  0.2369  0.7265
15323SOL     OW47642   6.368   2.832   3.290 -0.1204  0.4827 -0.2265
15323SOL    HW147643   6.356   2.842   3.385  1.4930 -0.2702  0.0857
15323SOL    HW247644   6.303   2.891   3.252 -1.4997  0.0556  1.3238
15324SOL     OW47645   3.347   4.288   3.908  0.1232 -0.3975  0.3564
15324SOL    HW147646   3.309   4.276   3.995  0.6687 -0.5948  0.5748
15324SOL    HW247647   3.441   4.274   3.921  0.3549  0.6818 -0.0568
15325SOL     OW47648   7.205   5.151   1.616  0.1728 -0.1259  0.3042
15325SOL    HW147649   7.134   5.178   1.674  0.7144  0.1019  0.8649
15325SOL    HW247650   7.202   5.214   1.544 -0.4096 -0.3245  0.1478
15326SOL     OW47651   0.111   3.403   2.427 -0.7910  0.5419 -0.5561
15326SOL    HW147652   0.155   3.479   2.467 -1.5869 -0.2965  2.1308
15326SOL    HW247653   0.182   3.342   2.408 -0.3719  1.0161 -0.5627
15327SOL     OW47654   7.939   5.060   6.202  0.0622  0.3994 -0.3646
15327SOL    HW147655   7.865   5.014   6.241  0.6534 -0.6137 -0.4081
15327SOL    HW247656   7.920   5.153   6.217 -0.8533  0.1242  0.2595
15328SOL     OW47657   7.008   0.568   4.627  0.2620 -0.2170  0.0133
15328SOL    HW147658   7.028   0.661   4.628 -0.2571 -0.0985  1.4248
15328SOL    HW247659   6.919   0.563   4.592  0.5433 -0.2556 -0.7185
15329SOL     OW47660   8.711   4.287   4.533  0.6082  0.1172  0.0581
15329SOL    HW147661   8.658   4.267   4.610  1.6826  0.1447  0.8344
15329SOL    HW247662   8.793   4.323   4.569  1.7875 -1.3732 -0.9923
15330SOL     OW47663   4.841   7.285   8.177  0.4561  0.2136 -0.2922
15330SOL    HW147664   4.819   7.194   8.157 -1.0131  0.2387  0.9233
15330SOL    HW247665   4.891   7.280   8.259  0.8063  0.4716 -0.4895
15331SOL     OW47666   3.871   0.985   7.122  0.3776 -0.0497  0.4169
15331SOL    HW147667   3.917   0.969   7.204 -0.6031 -1.3046  0.7366
15331SOL    HW247668   3.906   1.069   7.092  1.1875  0.1410  1.8027
15332SOL     OW47669   0.814   8.581   9.367  0.5198  0.0801 -0.2654
15332SOL    HW147670   0.775   8.494   9.369  1.0748 -0.1731 -0.2096
15332SOL    HW247671   0.901   8.569   9.406 -0.3517  1.1460  2.2098
15333SOL     OW47672   5.873   5.590   5.775 -0.1543  0.2270  0.1012
15333SOL    HW147673   5.884   5.567   5.867 -3.3446 -0.4769  0.4265
15333SOL    HW247674   5.930   5.666   5.762  0.2349  0.4792  2.7166
15334SOL     OW47675   4.600   9.326   8.232  0.3165 -0.0666 -0.0288
15334SOL    HW147676   4.510   9.293   8.230 -0.4625  2.0007 -0.9672
15334SOL    HW247677   4.623   9.324   8.325 -0.4655 -1.1286  0.1722
15335SOL     OW47678   9.616   1.336   4.368 -0.1884  0.1079  0.2639
15335SOL    HW147679   9.524   1.320   4.387 -0.2493  1.0130  0.8113
15335SOL    HW247680   9.647   1.386   4.444  0.4399  0.8652 -0.4833
15336SOL     OW47681   8.076   7.257   3.699  0.1711 -0.3310  0.2776
15336SOL    HW147682   8.100   7.187   3.760  1.3566 -0.9199 -0.8027
15336SOL    HW247683   8.159   7.284   3.659 -0.3583  1.2185  0.1531
15337SOL     OW47684   6.199   7.667   6.906  0.2411 -0.0620 -0.3789
15337SOL    HW147685   6.183   7.655   6.813  0.6852 -1.4283 -0.3046
15337SOL    HW247686   6.292   7.692   6.911  0.2466 -0.0958 -0.3056
15338SOL     OW47687   4.288   3.243   2.120 -0.1830  0.2591  0.1427
15338SOL    HW147688   4.207   3.207   2.155  0.3527 -0.7465  0.3823
15338SOL    HW247689   4.269   3.336   2.107 -1.3953  0.0258  0.1127
15339SOL     OW47690   8.003   6.688   5.577 -0.1786 -0.0465  0.8299
15339SOL    HW147691   7.997   6.646   5.663 -1.0495  0.1463  0.8687
15339SOL    HW247692   7.912   6.708   5.554  0.0604 -0.0139 -0.0942
15340SOL     OW47693   6.814   6.372   1.402  0.4732 -0.2127 -0.5159
15340SOL    HW147694   6.889   6.340   1.453  1.1513  1.5014 -0.3731
15340SOL    HW247695   6.852   6.429   1.336 -0.6483  0.0312 -0.9713
15341SOL     OW47696   7.807   4.724   5.112  0.2882 -0.0943  0.5492
15341SOL    HW147697   7.818   4.800   5.054 -2.0339  0.1119  0.2819
15341SOL    HW247698   7.892   4.681   5.111  0.4000 -0.1517 -3.1011
15342SOL     OW47699   1.151   4.654   4.583 -0.3658 -0.1555  0.0763
15342SOL    HW147700   1.067   4.631   4.544 -1.2874  0.3063  1.6880
15342SOL    HW247701   1.189   4.571   4.609 -0.8462 -0.3058  0.3193
15343SOL     OW47702   9.102   6.968   4.994  0.2646  0.0762  0.3147
15343SOL    HW147703   9.069   7.047   5.037  2.4250  0.2332  1.8065
15343SOL    HW247704   9.175   6.998   4.940  2.2749 -1.0114  2.2521
15344SOL     OW47705   7.016   8.654   7.204 -0.1716  0.6062  0.6106
15344SOL    HW147706   6.964   8.631   7.127  0.1855  1.2016  0.1865
15344SOL    HW247707   7.012   8.749   7.209  2.4352  0.8606 -0.5863
15345SOL     OW47708   0.856   3.289   5.519 -0.4268  0.0616 -0.3577
15345SOL    HW147709   0.792   3.219   5.506 -2.0414  1.3669  0.2358
15345SOL    HW247710   0.940   3.243   5.528 -1.5785 -1.8944  1.3595
15346SOL     OW47711   5.884   2.526   6.843 -0.2960  0.1947 -0.4684
15346SOL    HW147712   5.945   2.597   6.862 -1.8799  1.5385 -0.2509
15346SOL    HW247713   5.883   2.519   6.747 -0.5552  0.8605 -0.5167
15347SOL     OW47714   6.315   7.183   0.379  0.4828  0.1009  0.3736
15347SOL    HW147715   6.272   7.104   0.411  1.0518 -0.0951  0.6684
15347SOL    HW247716   6.374   7.153   0.311  1.0215  0.2050  0.7820
15348SOL     OW47717   1.066   2.045   8.054  0.4920  0.1335 -0.1299
15348SOL    HW147718   1.114   1.991   7.991 -0.3827  0.8067 -1.3986
15348SOL    HW247719   1.135   2.091   8.102  1.1787 -0.4914 -0.4848
15349SOL     OW47720   9.255   6.703   1.615  0.2632 -0.6543  0.1447
15349SOL    HW147721   9.270   6.798   1.616  2.2004 -0.9064  0.9385
15349SOL    HW247722   9.290   6.673   1.699  0.5728 -2.1904 -0.4995
15350SOL     OW47723   6.096   5.417   0.267 -0.0535  0.0375  0.3776
15350SOL    HW147724   6.008   5.395   0.298 -1.1843  1.6065 -1.4921
15350SOL    HW247725   6.134   5.333   0.241 -1.5875 -0.5253 -0.1820
15351SOL     OW47726   5.318   2.335   6.271 -0.2835 -0.1269  0.1268
15351SOL    HW147727   5.355   2.294   6.350 -0.1080 -2.0285 -0.8855
15351SOL    HW247728   5.226   2.352   6.294 -0.0489  0.0223  0.9816
15352SOL     OW47729   9.025   5.732   5.493  0.5484  0.3226 -0.4542
15352SOL    HW147730   9.026   5.669   5.421  0.5405  1.0979 -1.1530
15352SOL    HW247731   8.943   5.713   5.540  0.4694 -0.0801 -0.7464
15353SOL     OW47732   3.285   4.550   9.465  0.0454  0.3568  0.2575
15353SOL    HW147733   3.277   4.622   9.528 -0.4347  1.7925 -1.3635
15353SOL    HW247734   3.220   4.486   9.494 -2.0998  2.1684 -0.2520
15354SOL     OW47735   2.041   0.589   0.762 -0.7449 -0.0395  0.2782
15354SOL    HW147736   2.076   0.508   0.800  0.7502  0.6515  0.4426
15354SOL    HW247737   1.996   0.632   0.834 -3.4013 -1.6540 -0.2876
15355SOL     OW47738   2.737   8.063   2.258  0.4027  0.2560  0.0832
15355SOL    HW147739   2.767   8.147   2.295  0.5287 -0.1902  1.0238
15355SOL    HW247740   2.742   8.002   2.331 -1.2060 -0.2231 -0.1599
15356SOL     OW47741   1.018   2.847   3.649  0.1213  0.2907  0.2893
15356SOL    HW147742   1.111   2.870   3.650  0.3501 -0.6182  1.7599
15356SOL    HW247743   0.976   2.919   3.600  1.6788  0.2798 -1.1330
15357SOL     OW47744   5.380   3.538   6.197 -0.2368 -0.0024  0.5444
15357SOL    HW147745   5.446   3.489   6.245  2.3497  2.5389 -0.1177
15357SOL    HW247746   5.391   3.512   6.106 -2.4512 -1.8953  0.7199
15358SOL     OW47747   2.410   6.450   5.275 -0.4231  0.1726  0.0237
15358SOL    HW147748   2.378   6.384   5.213  0.2974  0.4004 -0.6060
15358SOL    HW247749   2.503   6.456   5.257 -0.2912  0.5942  0.8164
15359SOL     OW47750   1.180   2.932   0.818 -0.2385 -0.2353 -0.1938
15359SOL    HW147751   1.163   2.999   0.885 -2.2980 -0.3357 -0.5648
15359SOL    HW247752   1.257   2.965   0.771  0.3250  0.5972  1.2324
15360SOL     OW47753   6.030   5.585   3.407 -0.3215 -0.8532 -0.1648
15360SOL    HW147754   6.069   5.504   3.374 -0.3515 -0.4290 -1.2836
15360SOL    HW247755   6.078   5.655   3.363  0.6704 -0.1845  1.8526
15361SOL     OW47756   3.325   7.564   6.357  0.0212  0.3927  0.1988
15361SOL    HW147757   3.350   7.472   6.347 -0.3540  0.2695  0.3668
15361SOL    HW247758   3.255   7.577   6.294  0.3769  0.6890 -0.1436
15362SOL     OW47759   0.419   6.940   3.328 -0.7535  0.1828 -0.1419
15362SOL    HW147760   0.360   6.916   3.256  1.1978  1.9112 -2.4805
15362SOL    HW247761   0.490   6.876   3.323 -0.2691  0.7200 -0.2005
15363SOL     OW47762   5.272   2.539   4.856 -0.2286  0.3034  0.4166
15363SOL    HW147763   5.240   2.615   4.807 -0.5236 -0.1320 -0.0738
15363SOL    HW247764   5.271   2.567   4.948 -0.4041  0.8645  0.2456
15364SOL     OW47765   5.768   6.088   9.476 -0.3058  0.1096 -0.1965
15364SOL    HW147766   5.752   6.040   9.557  0.8130 -0.6179 -0.3870
15364SOL    HW247767   5.704   6.159   9.477 -2.3815 -1.6605 -0.1534
15365SOL     OW47768   2.630   8.879   6.298 -0.2477  0.3895  0.8655
15365SOL    HW147769   2.711   8.829   6.303 -0.3694  0.0718 -0.1594
15365SOL    HW247770   2.582   8.856   6.378  0.6509  0.5645  1.4671
15366SOL     OW47771   1.933   8.481   2.788 -0.5703 -0.4769  0.2556
15366SOL    HW147772   2.011   8.447   2.831 -0.8987 -1.5937 -0.0111
15366SOL    HW247773   1.860   8.438   2.832 -0.9015 -1.9864 -1.6326
15367SOL     OW47774   2.941   2.563   9.528 -0.4103 -0.5052 -0.4004
15367SOL    HW147775   2.870   2.553   9.592 -0.1208  1.2986  0.2555
15367SOL    HW247776   3.011   2.506   9.561 -0.5865 -0.2655  0.3988
15368SOL     OW47777   6.834   5.007   1.558 -0.3007  0.3797  0.0149
15368SOL    HW147778   6.822   5.068   1.485 -1.2222  0.4962  0.2514
15368SOL    HW247779   6.889   4.937   1.522  0.4500  1.1466 -0.3673
15369SOL     OW47780   3.424   0.371   3.441  0.3639 -0.5123  0.1427
15369SOL    HW147781   3.431   0.427   3.518  0.1485  0.9421 -0.8579
15369SOL    HW247782   3.461   0.287   3.469  0.1373 -0.0679  1.8638
15370SOL     OW47783   9.275   9.270   0.944  0.1358 -0.3790 -0.3600
15370SOL    HW147784   9.317   9.336   0.888  0.4471 -0.2519  0.0171
15370SOL    HW247785   9.312   9.187   0.914 -1.4675 -0.5856 -1.9450
15371SOL     OW47786   7.707   0.716   0.610 -0.4203  0.8378  0.2902
15371SOL    HW147787   7.655   0.691   0.534 -0.8692  2.4349  0.0340
15371SOL    HW247788   7.644   0.757   0.670  0.0675  0.3152  1.1951
15372SOL     OW47789   6.240   5.208   6.021 -0.3200  0.0874 -0.0072
15372SOL    HW147790   6.164   5.244   5.974  0.4070  1.5874 -0.0815
15372SOL    HW247791   6.308   5.201   5.954 -0.6723 -2.3300 -0.2019
15373SOL     OW47792   5.061   0.569   2.258 -0.2293 -0.1087  0.1379
15373SOL    HW147793   5.061   0.618   2.340 -0.9183  0.5101 -0.2203
15373SOL    HW247794   5.052   0.636   2.190  2.9828 -0.3176 -0.6618
15374SOL     OW47795   3.788   1.789   1.276 -0.2491  0.0600  0.2730
15374SOL    HW147796   3.753   1.728   1.212  0.6129  0.2916 -0.4356
15374SOL    HW247797   3.882   1.771   1.278 -0.2390  0.1129  1.4172
15375SOL     OW47798   4.845   2.193   7.726  0.2120  0.0965 -0.7233
15375SOL    HW147799   4.757   2.219   7.697 -0.7954 -0.0302  1.9241
15375SOL    HW247800   4.855   2.103   7.694 -0.5293  0.1969 -1.2591
15376SOL     OW47801   1.500   9.479   0.830  0.1053 -0.4182  0.0316
15376SOL    HW147802   1.532   9.399   0.790  0.0977  0.0686 -0.9868
15376SOL    HW247803   1.436   9.514   0.767  0.3934  0.5770  0.2698
15377SOL     OW47804   6.139   8.270   3.270 -0.1057 -0.1452  0.3624
15377SOL    HW147805   6.181   8.333   3.330 -1.8656  1.3094  0.1378
15377SOL    HW247806   6.063   8.316   3.236  0.5009 -1.1275 -2.6177
15378SOL     OW47807   6.422   1.921   0.811 -0.1433 -0.5960  0.1894
15378SOL    HW147808   6.510   1.916   0.772  0.1142 -0.5744  0.7481
15378SOL    HW247809   6.391   1.830   0.813 -0.2899 -0.5619 -0.3465
15379SOL     OW47810   4.846   2.755   8.515  0.2312  0.2058  0.3671
15379SOL    HW147811   4.765   2.714   8.485 -0.2954  0.6408  1.1678
15379SOL    HW247812   4.887   2.787   8.435 -2.1248  3.1479  0.1810
15380SOL     OW47813   0.176   2.395   5.387  0.9027  0.0459  0.2758
15380SOL    HW147814   0.188   2.490   5.378 -0.0952  0.2418  0.8383
15380SOL    HW247815   0.099   2.376   5.334  0.7344 -0.3439  0.6549
15381SOL     OW47816   0.821   3.965   8.897 -0.5728 -0.1765 -0.1471
15381SOL    HW147817   0.839   4.027   8.827  1.3469  0.1886  0.6140
15381SOL    HW247818   0.783   4.017   8.967  0.5760  0.0789  0.3035
15382SOL     OW47819   6.123   0.394   5.340  0.0030  0.2721 -0.0146
15382SOL    HW147820   6.165   0.465   5.291  1.1153 -0.7614 -0.6304
15382SOL    HW247821   6.048   0.370   5.286  1.3171 -0.9733 -1.3845
15383SOL     OW47822   1.056   1.474   4.083 -0.0430  0.2617 -0.3362
15383SOL    HW147823   1.139   1.520   4.078  0.6869 -0.6231  2.1308
15383SOL    HW247824   1.077   1.383   4.061 -0.7169  0.3422 -1.3736
15384SOL     OW47825   4.941   1.440   9.233 -0.3515 -0.2877 -0.5688
15384SOL    HW147826   4.855   1.479   9.221 -0.1398  0.1934 -0.5599
15384SOL    HW247827   5.002   1.509   9.208  0.0225 -0.8804 -1.3542
15385SOL     OW47828   3.116   5.449   3.305  0.4149 -0.1768  0.0409
15385SOL    HW147829   3.064   5.426   3.382 -0.8765  0.5424 -0.5676
15385SOL    HW247830   3.199   5.482   3.340  0.3791 -1.1194  1.0560
15386SOL     OW47831   7.673   8.899   1.993  0.2625 -0.4779 -0.2131
15386SOL    HW147832   7.640   8.909   2.082  1.0395  0.3977 -0.0079
15386SOL    HW247833   7.621   8.827   1.956 -0.6524 -0.2915  0.6583
15387SOL     OW47834   5.565   6.507   0.559  0.7808  0.1922  0.0006
15387SOL    HW147835   5.535   6.458   0.637 -0.2284  1.6218  0.5509
15387SOL    HW247836   5.638   6.455   0.525 -0.3086 -1.7766  0.4738
15388SOL     OW47837   7.737   6.837   2.357 -0.0341  0.2843 -0.6937
15388SOL    HW147838   7.770   6.769   2.298 -0.9153  0.3983 -1.3359
15388SOL    HW247839   7.695   6.901   2.300 -1.1393  0.2644  0.0667
15389SOL     OW47840   7.254   6.214   5.037  0.1086  0.4016 -0.3205
15389SOL    HW147841   7.193   6.154   4.994 -0.5039  1.9398 -1.6811
15389SOL    HW247842   7.232   6.300   5.003 -0.4905  1.8027  3.1426
15390SOL     OW47843   4.746   9.011   3.050 -0.2381 -0.4945  0.0425
15390SOL    HW147844   4.738   8.952   2.975 -2.1777 -2.2461  1.5315
15390SOL    HW247845   4.825   8.982   3.095  0.4105 -0.0338 -0.7562
15391SOL     OW47846   1.642   6.334   1.907  0.3854  0.1356  0.2154
15391SOL    HW147847   1.711   6.287   1.860 -0.2952 -0.1573 -0.5209
15391SOL    HW247848   1.575   6.351   1.841 -1.3293 -1.6873  1.3554
15392SOL     OW47849   1.875   9.322   1.712  0.1410 -0.3833 -0.0741
15392SOL    HW147850   1.953   9.297   1.662 -0.4192  0.0689 -1.2107
15392SOL    HW247851   1.815   9.358   1.647 -0.4854  0.5684  0.9782
15393SOL     OW47852   1.593   1.357   5.284 -0.3776 -0.8084  0.0147
15393SOL    HW147853   1.518   1.357   5.224 -0.4145 -1.1799  0.0562
15393SOL    HW247854   1.664   1.317   5.234 -0.4674 -1.3171  0.2825
15394SOL     OW47855   4.320   3.070   4.420  0.3290  0.2171 -0.0354
15394SOL    HW147856   4.304   2.990   4.470 -0.1567 -0.5745 -1.3952
15394SOL    HW247857   4.391   3.047   4.360  0.2212  0.8234 -0.4042
15395SOL     OW47858   4.846   4.098   5.237 -0.1424 -0.0634  0.1823
15395SOL    HW147859   4.927   4.148   5.224 -0.6683  1.0105  0.8180
15395SOL    HW247860   4.779   4.166   5.247 -0.8476 -0.9003  1.3285
15396SOL     OW47861   2.799   0.020   0.865  0.6895 -0.1595  0.1131
15396SOL    HW147862   2.712   0.023   0.906  0.4335 -2.5180 -0.1508
15396SOL    HW247863   2.781   0.017   0.771  1.0758 -0.3765  0.0448
15397SOL     OW47864   0.159   5.179   7.940  0.1012 -0.5140  0.1162
15397SOL    HW147865   0.137   5.190   7.848  1.4755 -0.9237 -0.2721
15397SOL    HW247866   0.254   5.179   7.943  0.1615  2.3246  1.8998
15398SOL     OW47867   3.650   7.916   4.430 -0.4491  0.4865 -0.5885
15398SOL    HW147868   3.565   7.959   4.426 -0.3872  0.5011 -3.0920
15398SOL    HW247869   3.669   7.891   4.340  2.0371  0.1374 -0.0418
15399SOL     OW47870   1.592   3.991   7.485  0.0996 -0.1006 -0.7822
15399SOL    HW147871   1.533   4.062   7.509  0.8408 -0.2543  1.8029
15399SOL    HW247872   1.549   3.912   7.518  0.2715 -0.6158 -1.7509
15400SOL     OW47873   6.529   7.430   7.331 -0.1863 -0.1473 -0.1032
15400SOL    HW147874   6.459   7.394   7.277  0.2308 -1.5758  0.2540
15400SOL    HW247875   6.518   7.387   7.416 -0.3635  1.4812  0.7286
15401SOL     OW47876   5.780   8.964   2.463  0.3525 -0.0424 -0.2507
15401SOL    HW147877   5.870   8.987   2.440  0.4922  0.5282  0.8108
15401SOL    HW247878   5.728   9.039   2.437  0.0323 -0.7549 -1.7345
15402SOL     OW47879   7.692   1.458   9.333 -0.6585  0.3573  0.3386
15402SOL    HW147880   7.732   1.500   9.409  0.0084 -0.5492  0.4911
15402SOL    HW247881   7.604   1.498   9.328 -0.4687  0.9132  1.1690
15403SOL     OW47882   1.319   1.695   0.568  0.4852  0.1797  0.2419
15403SOL    HW147883   1.390   1.699   0.632 -1.0753  1.9990  1.9832
15403SOL    HW247884   1.241   1.681   0.621 -0.6613 -0.2101 -1.4888
15404SOL     OW47885   2.653   4.345   9.315  0.6036  0.1624 -0.1262
15404SOL    HW147886   2.692   4.345   9.402  0.1505 -2.2984  0.1490
15404SOL    HW247887   2.563   4.375   9.329  0.3989 -0.6365  0.3615
15405SOL     OW47888   3.824   0.323   7.770 -0.0162 -0.2195  0.1228
15405SOL    HW147889   3.818   0.228   7.781 -1.3196 -0.2682 -0.7616
15405SOL    HW247890   3.828   0.337   7.676  0.1046  0.6042  0.2404
15406SOL     OW47891   3.364   0.947   1.342  0.5533  0.6037  0.1145
15406SOL    HW147892   3.324   0.912   1.263  1.8976  1.4941 -1.0148
15406SOL    HW247893   3.337   0.887   1.411 -2.7284  1.1823 -0.4999
15407SOL     OW47894   1.701   5.248   9.284  0.0706 -0.3019 -0.4579
15407SOL    HW147895   1.751   5.324   9.256  0.9312 -0.8241 -0.3728
15407SOL    HW247896   1.765   5.192   9.328 -0.5785 -1.0022 -0.3827
15408SOL     OW47897   2.480   1.282   5.588  0.3769  0.1848  0.0952
15408SOL    HW147898   2.436   1.257   5.507  1.4098  0.7007 -0.6533
15408SOL    HW247899   2.573   1.275   5.567  0.6897  2.0138  0.6877
15409SOL     OW47900   7.781   3.996   1.590 -0.6968  0.6752  0.0436
15409SOL    HW147901   7.855   4.055   1.575 -1.7585  1.9396 -0.3381
15409SOL    HW247902   7.712   4.052   1.624 -1.9975 -0.2041 -1.0771
15410SOL     OW47903   8.186   4.899   6.781  0.3543 -0.3011 -0.1185
15410SOL    HW147904   8.267   4.950   6.787 -0.0004  0.3399 -0.5778
15410SOL    HW247905   8.126   4.944   6.840  0.6128 -1.3614  0.9989
15411SOL     OW47906   5.353   1.796   8.320 -0.0598  0.0545 -0.0351
15411SOL    HW147907   5.338   1.825   8.410  2.1893 -1.0261  0.7833
15411SOL    HW247908   5.448   1.802   8.309 -0.1737 -0.9106 -1.9593
15412SOL     OW47909   7.810   7.993   4.770  0.0710 -0.7275 -0.2613
15412SOL    HW147910   7.784   8.003   4.678 -1.4027  1.1490  0.3031
15412SOL    HW247911   7.728   7.997   4.819  1.0057  0.5838  1.2843
15413SOL     OW47912   2.300   6.148   0.929 -0.3536  0.6204 -0.4837
15413SOL    HW147913   2.219   6.178   0.971 -0.0073  0.2257  0.5160
15413SOL    HW247914   2.369   6.179   0.987  0.2501  1.3174 -1.5511
15414SOL     OW47915   3.896   4.409   9.489  0.1522  0.4440 -0.1779
15414SOL    HW147916   3.952   4.335   9.469 -0.6083 -1.1092  2.8203
15414SOL    HW247917   3.952   4.486   9.479  1.6241 -0.6988 -1.0983
15415SOL     OW47918   7.713   4.604   5.657 -0.1525 -0.0229 -0.0869
15415SOL    HW147919   7.650   4.663   5.698 -0.8208 -0.8480  0.1155
15415SOL    HW247920   7.755   4.559   5.730 -1.2455 -1.3954 -0.2497
15416SOL     OW47921   5.014   7.099   0.056 -0.4178  0.3176  0.1269
15416SOL    HW147922   4.928   7.121   0.092  0.2065  1.7562  0.8514
15416SOL    HW247923   4.996   7.035  -0.013 -1.9050 -0.5908  1.2930
15417SOL     OW47924   2.440   4.087   8.224  0.5228 -0.3798 -0.1014
15417SOL    HW147925   2.391   4.009   8.199 -1.2110  1.4236 -2.7243
15417SOL    HW247926   2.508   4.095   8.157  1.1372  0.0154  0.5554
15418SOL     OW47927   3.898   7.709   1.750 -0.4041  0.2204 -0.1330
15418SOL    HW147928   3.862   7.680   1.833 -0.2342 -0.8085 -0.4040
15418SOL    HW247929   3.983   7.665   1.744 -1.1369 -1.0993 -1.6104
15419SOL     OW47930   1.088   8.793   1.102  0.1707  0.7037  0.1374
15419SOL    HW147931   1.045   8.853   1.041 -0.5016  1.4059  1.2747
15419SOL    HW247932   1.052   8.707   1.081 -0.9351  1.1108  0.3115
15420SOL     OW47933   5.748   1.553   7.029  0.0176  0.4252  0.1703
15420SOL    HW147934   5.810   1.607   7.078 -0.1128 -0.6480  1.5670
15420SOL    HW247935   5.776   1.562   6.938  1.0258  1.4963  0.5619
15421SOL     OW47936   4.129   3.163   6.580 -0.0393 -0.3125  0.0445
15421SOL    HW147937   4.057   3.150   6.641 -0.9442  3.2894 -0.0160
15421SOL    HW247938   4.096   3.131   6.496 -0.1522 -1.9438  0.6749
15422SOL     OW47939   1.247   3.633   1.679 -0.5492  0.1673  0.5249
15422SOL    HW147940   1.199   3.663   1.756 -3.4070 -2.4995 -0.0248
15422SOL    HW247941   1.193   3.661   1.605 -0.0573 -0.9296 -0.2776
15423SOL     OW47942   1.631   2.177   7.987  0.3957  0.5871  0.0209
15423SOL    HW147943   1.582   2.098   7.962  0.4970  0.9109 -1.2827
15423SOL    HW247944   1.563   2.243   8.002  0.2612  0.0696  1.9423
15424SOL     OW47945   4.555   1.709   4.673 -0.2083  0.1228 -0.5363
15424SOL    HW147946   4.482   1.662   4.632 -0.5730  0.4024 -0.2162
15424SOL    HW247947   4.513   1.779   4.724  0.2776  0.2407 -0.2910
15425SOL     OW47948   2.854   7.444   2.455  0.6036  0.7056 -0.2262
15425SOL    HW147949   2.762   7.427   2.437  0.3963  0.5055  0.9403
15425SOL    HW247950   2.900   7.370   2.414  0.0053 -0.7454  1.5698
15426SOL     OW47951   9.631   3.004   5.544  0.3382  0.0891 -0.3240
15426SOL    HW147952   9.639   3.086   5.593 -0.0744  0.6273 -1.1482
15426SOL    HW247953   9.593   3.029   5.460  3.1260 -0.5090 -1.8585
15427SOL     OW47954   8.618   6.917   3.409 -0.1345 -0.3472 -0.0779
15427SOL    HW147955   8.636   6.825   3.429  0.9089  0.2757  2.1631
15427SOL    HW247956   8.527   6.930   3.434  0.1130 -0.4680  0.9251
15428SOL     OW47957   9.141   5.738   2.508  0.1495 -0.0200 -0.0482
15428SOL    HW147958   9.203   5.808   2.488  0.7972 -0.7238 -0.5693
15428SOL    HW247959   9.147   5.727   2.602 -0.8725  1.4426  0.2308
15429SOL     OW47960   1.885   1.023   0.087  0.1612 -0.0987 -0.6135
15429SOL    HW147961   1.795   1.037   0.060  0.1670 -0.9876 -1.1512
15429SOL    HW247962   1.889   0.930   0.109  0.0623  0.6104  2.9044
15430SOL     OW47963   4.132   1.872   3.345  0.0780 -0.2184  0.1033
15430SOL    HW147964   4.105   1.889   3.255  1.8508 -0.9169 -0.5995
15430SOL    HW247965   4.218   1.830   3.338  0.2320 -0.3812  2.1189
15431SOL     OW47966   7.986   5.635   7.503  0.2740 -0.5137  0.8587
15431SOL    HW147967   7.951   5.546   7.490  0.6452 -0.3330 -2.0079
15431SOL    HW247968   7.941   5.688   7.437  1.2058  1.0935  1.4716
15432SOL     OW47969   0.510   1.270   1.395 -0.1468 -0.1149 -0.3845
15432SOL    HW147970   0.522   1.331   1.323  0.8272 -0.6986 -0.7508
15432SOL    HW247971   0.422   1.287   1.428 -0.3820  0.5613 -1.3316
15433SOL     OW47972   0.507   5.138   4.604 -0.1634 -0.3268 -0.3009
15433SOL    HW147973   0.422   5.154   4.646  0.0014 -1.2979  0.4327
15433SOL    HW247974   0.507   5.196   4.527 -2.1504 -1.4173 -1.2081
15434SOL     OW47975   2.845   3.365   8.161  0.2944  0.1323 -0.3670
15434SOL    HW147976   2.938   3.379   8.143  0.5024  0.1046  0.6346
15434SOL    HW247977   2.815   3.447   8.200  0.1866 -0.2639  0.3983
15435SOL     OW47978   9.404   3.795   8.234  0.0578 -0.5151 -0.3739
15435SOL    HW147979   9.421   3.853   8.159 -2.4321  0.7514 -0.0759
15435SOL    HW247980   9.411   3.852   8.310  1.6218 -1.5876  0.3363
15436SOL     OW47981   9.427   2.100   6.182  0.8326 -0.2948  0.6690
15436SOL    HW147982   9.445   2.016   6.138  0.4391 -0.3757  0.6574
15436SOL    HW247983   9.475   2.095   6.264  0.2894 -0.8042  0.9617
15437SOL     OW47984   8.847   8.760   9.191  0.2468  0.5232  0.0323
15437SOL    HW147985   8.826   8.737   9.282  0.9608  0.8249  0.2838
15437SOL    HW247986   8.942   8.768   9.190  0.2069  0.9831 -0.6379
15438SOL     OW47987   9.138   3.886   0.888 -0.2796  0.5376 -0.1856
15438SOL    HW147988   9.094   3.868   0.805  0.1419  0.1173 -0.3176
15438SOL    HW247989   9.231   3.875   0.869 -0.1623  0.7145  0.2759
15439SOL     OW47990   5.494   8.939   1.504 -0.3337  0.5221  0.5837
15439SOL    HW147991   5.434   8.933   1.430  0.5846  0.0542 -0.1424
15439SOL    HW247992   5.569   8.988   1.471  0.5238 -0.5307  0.8823
15440SOL     OW47993   4.433   9.237   6.972  0.0096  0.5443  0.1934
15440SOL    HW147994   4.500   9.234   7.040  0.9641 -0.9639 -0.7648
15440SOL    HW247995   4.350   9.227   7.020  0.6720 -0.7690  1.1280
15441SOL     OW47996   4.120   1.751   8.942 -0.5961  0.4735 -0.2672
15441SOL    HW147997   4.053   1.819   8.949  0.1627  1.2703 -0.5415
15441SOL    HW247998   4.074   1.669   8.962 -1.1882  1.2280  1.7172
15442SOL     OW47999   4.541   6.357   7.769  0.7255  0.2632  0.2241
15442SOL    HW148000   4.622   6.335   7.723  0.5900 -1.3167  0.6772
15442SOL    HW248001   4.569   6.380   7.857  0.7956  1.1481 -0.0230
15443SOL     OW48002   0.187   7.632   7.507 -0.2220  0.0675 -0.7948
15443SOL    HW148003   0.168   7.718   7.545  1.2691 -0.7461  2.0982
15443SOL    HW248004   0.157   7.569   7.572  0.3337 -1.5802 -2.0407
15444SOL     OW48005   6.221   6.545   4.153 -0.3299  0.1508 -0.6754
15444SOL    HW148006   6.261   6.461   4.178  0.5996 -0.0076 -2.5186
15444SOL    HW248007   6.167   6.524   4.077 -2.1229  0.8122  0.3512
15445SOL     OW48008   9.275   5.681   8.411 -0.6329  0.4731 -0.1430
15445SOL    HW148009   9.220   5.686   8.490 -0.3694  2.4230 -0.0453
15445SOL    HW248010   9.266   5.767   8.369  1.6089  0.5498 -0.6061
15446SOL     OW48011   3.270   7.541   7.325  0.1205  0.5494  0.1165
15446SOL    HW148012   3.217   7.485   7.382 -0.3074  1.0443  0.1995
15446SOL    HW248013   3.352   7.492   7.315  0.2259  0.4671  1.1934
15447SOL     OW48014   4.959   8.731   2.673 -0.1320  0.0620  0.8647
15447SOL    HW148015   5.038   8.714   2.621 -0.5066  3.5240 -1.1661
15447SOL    HW248016   4.897   8.665   2.644  0.8475 -0.3382 -0.4145
15448SOL     OW48017   1.734   6.644   6.925  0.1898 -0.0783 -0.1296
15448SOL    HW148018   1.737   6.654   7.020 -1.3154  0.2479 -0.0905
15448SOL    HW248019   1.698   6.727   6.893  2.1097  0.4247 -1.1341
15449SOL     OW48020   6.297   8.665   3.409 -0.7703  0.5242  0.2925
15449SOL    HW148021   6.329   8.730   3.473 -0.2484 -0.7152  1.3385
15449SOL    HW248022   6.333   8.695   3.325 -0.4041  1.5000  0.7733
15450SOL     OW48023   5.906   0.408   3.921 -0.6703  0.4627  0.1308
15450SOL    HW148024   5.903   0.319   3.957 -0.9622  0.7461  0.8379
15450SOL    HW248025   5.997   0.437   3.934 -1.0473  1.0089  1.8118
15451SOL     OW48026   2.638   2.604   1.145  0.3613  0.5520 -0.0343
15451SOL    HW148027   2.640   2.603   1.049  2.1721  0.6669 -0.0280
15451SOL    HW248028   2.727   2.583   1.171 -0.2136  0.0726  1.6531
15452SOL     OW48029   1.733   3.474   7.344  0.1548 -0.5349 -0.2630
15452SOL    HW148030   1.728   3.380   7.330 -0.1666 -0.4018 -1.1692
15452SOL    HW248031   1.642   3.503   7.347  0.2432 -0.3261  0.6049
15453SOL     OW48032   5.566   9.653   8.993 -0.0881  0.1589 -0.0151
15453SOL    HW148033   5.530   9.673   8.906  1.0930  0.8434 -0.3626
15453SOL    HW248034   5.660   9.663   8.983  0.1495 -0.7782  1.0980
15454SOL     OW48035   9.056   9.202   2.182 -0.1616 -0.4667  0.0753
15454SOL    HW148036   9.091   9.287   2.157 -1.1589 -0.5254 -1.6478
15454SOL    HW248037   9.109   9.176   2.257  0.2528  1.6008  0.5731
15455SOL     OW48038   8.552   5.724   9.073  0.8972  0.3190 -0.2128
15455SOL    HW148039   8.522   5.660   9.009 -0.2543  0.2034  0.4235
15455SOL    HW248040   8.489   5.718   9.144  0.6172  2.3104 -0.2366
15456SOL     OW48041   3.569   3.263   2.735  0.2984 -0.4755  0.3122
15456SOL    HW148042   3.503   3.326   2.762  1.7014  0.5186  1.6113
15456SOL    HW248043   3.587   3.285   2.644  1.2529  1.5281  0.9237
15457SOL     OW48044   2.962   6.013   1.037 -0.1198  0.2374 -0.0017
15457SOL    HW148045   3.007   5.953   1.096  0.3342  0.6854  0.1147
15457SOL    HW248046   2.942   5.961   0.959  0.6712  0.0508 -0.0886
15458SOL     OW48047   0.738   5.187   4.006 -0.3272  0.4062 -0.1179
15458SOL    HW148048   0.768   5.136   3.930  0.9233  1.4485 -0.3806
15458SOL    HW248049   0.818   5.204   4.056 -0.9593  0.7713  0.7921
15459SOL     OW48050   4.740   7.108   2.052 -0.5533 -0.2772 -0.1421
15459SOL    HW148051   4.832   7.097   2.031 -0.1653  2.2826 -0.1075
15459SOL    HW248052   4.694   7.094   1.969 -0.1222 -1.1015 -0.2504
15460SOL     OW48053   2.272   7.195   2.374  0.2935 -0.1213  0.0067
15460SOL    HW148054   2.226   7.265   2.420  1.4251  0.4847  0.2604
15460SOL    HW248055   2.203   7.139   2.340 -0.6338  1.0589 -0.1049
15461SOL     OW48056   5.570   9.669   9.669 -0.5998 -0.1311 -0.1836
15461SOL    HW148057   5.610   9.582   9.668 -1.2301 -0.4209 -1.0695
15461SOL    HW248058   5.477   9.653   9.686 -0.4299  0.5176  1.5437
15462SOL     OW48059   5.459   9.096   1.756 -0.4576  0.9126  0.0544
15462SOL    HW148060   5.502   9.072   1.837 -0.7723  2.3110  0.6580
15462SOL    HW248061   5.461   9.016   1.703  2.3636  0.7669  0.2425
15463SOL     OW48062   6.948   8.433   7.005 -0.1158 -0.1582 -0.1257
15463SOL    HW148063   6.866   8.385   7.018 -0.3135  0.6233  1.8355
15463SOL    HW248064   7.012   8.387   7.059 -0.0324  1.0118  0.8326
15464SOL     OW48065   9.186   0.087   5.451  0.2871  0.0889  0.1605
15464SOL    HW148066   9.177   0.129   5.365  0.4936 -1.8708 -0.8970
15464SOL    HW248067   9.149   0.150   5.513  1.8256  2.3776 -1.0937
15465SOL     OW48068   1.869   4.007   5.029  0.3534 -0.5505 -0.0402
15465SOL    HW148069   1.884   4.014   4.935  1.4378  1.7804  0.2486
15465SOL    HW248070   1.891   3.916   5.050  2.4397 -0.4862 -1.6608
15466SOL     OW48071   0.893   6.013   7.500  0.2195  0.2164  0.0832
15466SOL    HW148072   0.930   5.953   7.435 -0.7086  0.8411 -1.0578
15466SOL    HW248073   0.918   6.100   7.470 -4.0694  0.9348 -2.2225
15467SOL     OW48074   5.839   4.450   0.393  0.2915  0.0005 -0.0746
15467SOL    HW148075   5.807   4.534   0.360 -1.1554 -1.0712 -1.5784
15467SOL    HW248076   5.841   4.393   0.316  1.2106 -1.3749  0.9051
15468SOL     OW48077   8.272   3.284   3.792 -0.1337  0.0226  0.0939
15468SOL    HW148078   8.348   3.276   3.735  0.1555  1.4883  0.2447
15468SOL    HW248079   8.275   3.205   3.846  0.6121 -0.5027 -0.6770
15469SOL     OW48080   1.920   5.196   0.062 -0.1976 -0.3582  0.0335
15469SOL    HW148081   1.918   5.100   0.059 -0.7365 -0.3978  1.1025
15469SOL    HW248082   1.849   5.223   0.004 -1.7148 -0.6934  1.6455
15470SOL     OW48083   0.147   2.668   4.921  0.3720  0.6065  0.0585
15470SOL    HW148084   0.206   2.604   4.961  0.2410 -0.0244 -0.7435
15470SOL    HW248085   0.059   2.641   4.951  0.0703 -0.9375 -1.9701
15471SOL     OW48086   0.678   9.557   1.907  0.3151  0.0220  0.6507
15471SOL    HW148087   0.626   9.512   1.840  0.6082  1.3638 -0.5209
15471SOL    HW248088   0.637   9.532   1.989  0.3679 -2.2357  0.0605
15472SOL     OW48089   1.674   2.650   9.302  0.0585 -0.0064 -0.1180
15472SOL    HW148090   1.649   2.652   9.210  1.0450  0.7850 -0.3926
15472SOL    HW248091   1.732   2.726   9.313  0.5283 -0.4926  0.9788
15473SOL     OW48092   8.657   5.160   2.951 -0.1793  0.1472 -0.5810
15473SOL    HW148093   8.644   5.182   2.859 -1.4422  0.7151 -0.3009
15473SOL    HW248094   8.608   5.078   2.963  0.2575 -0.1006 -0.4890
15474SOL     OW48095   4.252   8.861   6.923 -0.5063  0.1467 -0.3716
15474SOL    HW148096   4.303   8.939   6.901  0.9702 -0.6736  0.0095
15474SOL    HW248097   4.263   8.853   7.018  0.3887 -1.2010 -0.5700
15475SOL     OW48098   0.415   8.750   4.135 -0.2385  0.1492  0.5009
15475SOL    HW148099   0.414   8.783   4.224  0.1990 -0.6408  0.8006
15475SOL    HW248100   0.506   8.756   4.107 -0.2564 -0.2408  0.3490
15476SOL     OW48101   0.680   7.065   5.101  0.3193 -0.0313  0.1348
15476SOL    HW148102   0.671   7.120   5.024 -0.5163  1.5489  1.2952
15476SOL    HW248103   0.719   7.122   5.168  1.2173 -1.4100  0.8388
15477SOL     OW48104   0.195   2.646   2.826  0.7206 -0.0796 -0.5395
15477SOL    HW148105   0.182   2.740   2.815  0.5297 -0.1222 -0.7021
15477SOL    HW248106   0.115   2.607   2.790  0.4154 -0.2638  0.3159
15478SOL     OW48107   2.682   6.513   8.323  0.0424  0.2145  0.4550
15478SOL    HW148108   2.631   6.478   8.249  1.0605  0.1691 -0.2385
15478SOL    HW248109   2.682   6.442   8.388 -1.1803  0.3935  0.6815
15479SOL     OW48110   3.197   6.434   6.356 -0.2269 -0.4306 -0.4053
15479SOL    HW148111   3.241   6.405   6.436 -0.7535 -0.0928  0.0137
15479SOL    HW248112   3.105   6.409   6.368 -0.5203  0.6118 -0.4129
15480SOL     OW48113   2.437   6.855   0.998  0.4052 -0.1217 -0.0099
15480SOL    HW148114   2.430   6.760   0.991 -0.1775 -0.0033 -1.5191
15480SOL    HW248115   2.516   6.877   0.949 -0.1834  0.2506 -0.8373
15481SOL     OW48116   4.915   1.705   2.242  0.1899  0.5761  0.4492
15481SOL    HW148117   4.840   1.663   2.200  1.5633  1.0270 -2.7040
15481SOL    HW248118   4.879   1.786   2.280 -1.3122 -0.4024  1.2039
15482SOL     OW48119   4.951   7.669   6.585 -0.1116 -0.5925 -0.2362
15482SOL    HW148120   4.955   7.611   6.662 -2.0816 -1.4360 -0.6943
15482SOL    HW248121   4.913   7.615   6.516  0.7244  0.4325 -1.5502
15483SOL     OW48122   6.030   3.890   9.045  0.8872 -0.1122 -0.5059
15483SOL    HW148123   5.978   3.882   8.964  0.2832  0.4192 -0.1753
15483SOL    HW248124   6.105   3.944   9.019  0.7995 -0.1081 -0.7628
15484SOL     OW48125   2.322   4.813   8.987 -0.1959  0.1567  0.7256
15484SOL    HW148126   2.267   4.835   8.912 -1.2976  0.5364  1.6121
15484SOL    HW248127   2.271   4.841   9.063  0.7641 -0.4804  1.6345
15485SOL     OW48128   2.488   4.824   3.923  0.9268 -0.4080 -0.1252
15485SOL    HW148129   2.420   4.757   3.923  1.4992 -1.0075  0.5566
15485SOL    HW248130   2.440   4.907   3.937  0.3191 -0.7883  0.0979
15486SOL     OW48131   7.498   1.145   3.157 -0.4941  0.0490  0.4823
15486SOL    HW148132   7.541   1.068   3.194  1.7519  0.3428 -1.2691
15486SOL    HW248133   7.465   1.114   3.072 -1.4280  0.5221  0.6649
15487SOL     OW48134   3.574   4.337   6.003  0.1607 -0.2023  0.5368
15487SOL    HW148135   3.655   4.288   6.000  0.0031 -0.4414 -0.2101
15487SOL    HW248136   3.562   4.359   6.095  1.4836  0.5353  0.5564
15488SOL     OW48137   4.729   6.980   7.809 -0.4668  0.1433  0.4073
15488SOL    HW148138   4.688   6.903   7.768 -0.1054  0.6943 -1.0441
15488SOL    HW248139   4.806   6.945   7.854  0.4934 -0.2100 -1.4049
15489SOL     OW48140   4.863   1.266   5.206 -0.2457  0.0692 -0.1957
15489SOL    HW148141   4.787   1.230   5.160  0.4015  0.4614 -1.5957
15489SOL    HW248142   4.871   1.211   5.284 -2.0590  0.1122  0.0825
15490SOL     OW48143   0.599   0.070   0.082  0.3030 -0.2947 -0.3559
15490SOL    HW148144   0.609   0.161   0.110  1.6374 -0.6597  0.4882
15490SOL    HW248145   0.514   0.043   0.118 -0.3955  0.7793 -1.1485
15491SOL     OW48146   2.947   7.641   7.452  0.2054 -0.1458  0.2794
15491SOL    HW148147   2.998   7.562   7.466 -0.3805 -0.4153  0.9499
15491SOL    HW248148   2.919   7.668   7.540 -0.6693  0.0765 -0.0588
15492SOL     OW48149   2.997   9.287   7.354  0.5006  0.4925 -0.2543
15492SOL    HW148150   3.028   9.200   7.329  0.9489  0.6136 -0.1266
15492SOL    HW248151   2.944   9.316   7.279  2.3410  1.1238 -1.4013
15493SOL     OW48152   8.218   3.893   0.532  0.4442  0.4122 -0.4483
15493SOL    HW148153   8.225   3.955   0.605 -1.6733  1.9362 -1.4416
15493SOL    HW248154   8.221   3.807   0.574  3.7217  1.0603  0.9514
15494SOL     OW48155   7.915   7.876   3.480 -0.4619  0.0368  0.0829
15494SOL    HW148156   7.891   7.898   3.390  1.6665 -0.5017 -0.6842
15494SOL    HW248157   7.914   7.959   3.526 -0.0201  0.5736 -0.8468
15495SOL     OW48158   4.765   6.812   1.878  0.2840 -0.2772 -0.2808
15495SOL    HW148159   4.679   6.801   1.918  0.3050  1.2508  0.2327
15495SOL    HW248160   4.826   6.816   1.952  0.8083 -1.2459 -0.6372
15496SOL     OW48161   0.829   7.586   6.413  0.5632 -0.1705  1.1510
15496SOL    HW148162   0.760   7.529   6.377 -0.0787  1.1419  0.2023
15496SOL    HW248163   0.786   7.632   6.485  0.7426 -0.0469  1.1788
15497SOL     OW48164   9.667   2.400   5.216 -0.0617 -0.4203  0.3974
15497SOL    HW148165   9.584   2.360   5.242 -1.4068  1.0417 -1.4227
15497SOL    HW248166   9.642   2.475   5.162  2.4176  0.9954  1.0520
15498SOL     OW48167   8.158   6.818   6.270  0.1427  0.2395  0.2304
15498SOL    HW148168   8.214   6.823   6.192  0.4117  1.2873  0.4790
15498SOL    HW248169   8.071   6.844   6.240 -0.1599 -1.0694 -0.0842
15499SOL     OW48170   8.194   0.314   9.383  0.0154 -0.6239 -0.0011
15499SOL    HW148171   8.245   0.376   9.330 -1.0309  1.8141  1.6732
15499SOL    HW248172   8.142   0.266   9.318  1.6746 -0.5995 -1.4452
15500SOL     OW48173   0.899   8.832   2.754 -0.1074 -0.4755  0.2817
15500SOL    HW148174   0.859   8.818   2.839 -1.0071  1.8987  0.3485
15500SOL    HW248175   0.830   8.811   2.691 -0.0943 -0.3798  0.2343
15501SOL     OW48176   2.834   0.738   7.224 -0.3432  0.4804  0.0381
15501SOL    HW148177   2.795   0.655   7.251  1.2362 -0.4007 -0.2485
15501SOL    HW248178   2.828   0.794   7.301  0.6197 -0.6936  1.0135
15502SOL     OW48179   8.367   7.122   9.038 -0.7021 -0.4178 -0.1430
15502SOL    HW148180   8.340   7.191   8.977 -0.0600  0.5202  0.5973
15502SOL    HW248181   8.381   7.168   9.121 -0.6042 -1.5104  0.4600
15503SOL     OW48182   8.490   0.398   0.042 -0.1925  0.2644 -0.4874
15503SOL    HW148183   8.507   0.427   0.132  0.6226 -0.3971 -0.4269
15503SOL    HW248184   8.457   0.477  -0.002 -0.0212  0.7456  0.2273
15504SOL     OW48185   5.458   4.946   6.956  0.3427 -0.1326 -0.1125
15504SOL    HW148186   5.400   4.889   6.907  0.3811  0.8080 -1.2947
15504SOL    HW248187   5.495   5.005   6.890  1.3385  0.3718  0.8685
15505SOL     OW48188   6.703   1.111   4.807  0.0640 -0.2062  0.2103
15505SOL    HW148189   6.707   1.202   4.778  1.1128 -0.2981  0.0424
15505SOL    HW248190   6.716   1.115   4.902 -4.1861  0.1717  0.9838
15506SOL     OW48191   7.548   6.983   6.057  0.7720 -0.3508  0.1205
15506SOL    HW148192   7.499   7.062   6.033 -1.0965 -1.2847  0.6001
15506SOL    HW248193   7.552   6.932   5.976 -1.7994 -1.6033  0.6706
15507SOL     OW48194   7.884   4.687   6.162 -0.2385  0.1419 -0.1183
15507SOL    HW148195   7.969   4.649   6.141 -1.3724 -1.4007 -2.2371
15507SOL    HW248196   7.883   4.690   6.258  1.8604 -0.5347 -0.0218
15508SOL     OW48197   3.853   4.151   7.918  0.0108  0.3590 -0.0501
15508SOL    HW148198   3.870   4.245   7.905  0.6170  0.1518 -0.8280
15508SOL    HW248199   3.931   4.119   7.962  0.0251  0.1139 -0.2572
15509SOL     OW48200   1.423   3.429   7.356 -0.0002  0.5065 -0.5765
15509SOL    HW148201   1.349   3.468   7.402  0.6930 -0.7123  1.7340
15509SOL    HW248202   1.425   3.338   7.386  1.2426 -0.0360 -2.1415
15510SOL     OW48203   2.232   5.575   5.863  0.4334 -0.1361 -0.1893
15510SOL    HW148204   2.232   5.521   5.784  1.1496 -0.7181  0.1871
15510SOL    HW248205   2.158   5.543   5.914  1.5808 -1.6974  0.6085
15511SOL     OW48206   4.229   3.396   4.335 -0.4801  0.5990 -0.6196
15511SOL    HW148207   4.257   3.316   4.378 -0.1419  0.1483 -1.6363
15511SOL    HW248208   4.135   3.401   4.351 -0.3386  0.5091  0.2585
15512SOL     OW48209   0.977   2.725   7.555 -0.6388 -0.0292 -0.0995
15512SOL    HW148210   0.900   2.684   7.515  0.0684 -0.4028 -1.1065
15512SOL    HW248211   0.950   2.743   7.645 -1.9138 -0.1327 -0.4355
15513SOL     OW48212   0.624   0.574   2.033  0.6268  0.3835 -0.1105
15513SOL    HW148213   0.539   0.536   2.012  1.6588 -1.1078 -1.9427
15513SOL    HW248214   0.604   0.647   2.092 -1.9183  0.2847 -0.7258
15514SOL     OW48215   3.434   7.394   2.507  0.0922  0.0477 -0.2061
15514SOL    HW148216   3.512   7.375   2.455  0.5152 -0.3785  0.5805
15514SOL    HW248217   3.452   7.480   2.546  0.3374 -0.2365  0.3013
15515SOL     OW48218   5.646   7.187   1.324 -0.1179 -0.6923 -0.2012
15515SOL    HW148219   5.677   7.158   1.409 -2.6383 -0.5490  0.8431
15515SOL    HW248220   5.704   7.259   1.300  0.2002 -0.2676  1.7358
15516SOL     OW48221   1.435   0.580   6.598  0.7722 -0.0536 -0.3687
15516SOL    HW148222   1.348   0.616   6.612  0.9921  0.1537  0.5692
15516SOL    HW248223   1.495   0.647   6.632  1.2021 -1.1220  1.0798
15517SOL     OW48224   3.730   0.334   3.388  0.0854 -0.2767  0.0150
15517SOL    HW148225   3.665   0.323   3.458 -0.3082  0.0633 -0.2840
15517SOL    HW248226   3.766   0.422   3.402  0.3401 -0.3890  0.0652
15518SOL     OW48227   8.076   6.650   9.007  0.0074 -0.6339 -0.1070
15518SOL    HW148228   8.047   6.615   9.092 -0.7015  1.4802  0.5947
15518SOL    HW248229   8.132   6.725   9.030  0.2040 -0.3167 -1.5160
15519SOL     OW48230   9.460   4.647   7.165 -0.2779  0.5393  0.0832
15519SOL    HW148231   9.465   4.591   7.088  0.9910  1.1700 -0.3216
15519SOL    HW248232   9.419   4.592   7.232 -0.0086 -0.5210 -0.5999
15520SOL     OW48233   8.667   6.285   1.913 -0.1598 -0.3130 -0.2761
15520SOL    HW148234   8.748   6.269   1.863 -0.6746  1.3732 -1.7328
15520SOL    HW248235   8.597   6.280   1.848 -1.1450 -0.6508  0.7776
15521SOL     OW48236   0.348   6.776   2.372 -0.6289  0.1768 -0.1318
15521SOL    HW148237   0.362   6.871   2.378  0.2302  0.0471  0.0884
15521SOL    HW248238   0.436   6.739   2.374 -0.8141 -0.5227 -2.6876
15522SOL     OW48239   6.231   5.990   1.530  0.0115  0.0011  0.6959
15522SOL    HW148240   6.252   5.914   1.584 -2.6415 -1.6856 -0.4772
15522SOL    HW248241   6.286   5.980   1.452  1.5256  0.7583  1.5962
15523SOL     OW48242   7.493   5.242   6.277 -0.0403 -0.2187  0.1156
15523SOL    HW148243   7.497   5.240   6.373  1.2322  2.7721  0.2176
15523SOL    HW248244   7.545   5.166   6.249  2.4385  0.7259  1.8426
15524SOL     OW48245   6.222   3.599   7.002 -0.3665 -0.0056 -0.9552
15524SOL    HW148246   6.134   3.613   6.968 -0.8711  0.3635  0.4344
15524SOL    HW248247   6.271   3.675   6.973 -0.5366 -0.1497 -1.6268
15525SOL     OW48248   7.499   7.612   6.042  0.2953  0.4747  0.1484
15525SOL    HW148249   7.540   7.631   5.958 -1.1466  0.2772 -0.6374
15525SOL    HW248250   7.496   7.516   6.046  1.2750  0.4562  0.9165
15526SOL     OW48251   1.672   1.579   4.647  0.2335  0.2067 -0.0933
15526SOL    HW148252   1.749   1.532   4.615  0.2554 -0.0769  0.3622
15526SOL    HW248253   1.706   1.634   4.718  0.0790  0.3741 -0.1481
15527SOL     OW48254   0.019   9.613   7.613 -0.1708  0.1832  0.5954
15527SOL    HW148255  -0.045   9.667   7.566  0.9184  0.4705 -0.6257
15527SOL    HW248256   0.090   9.600   7.550  1.4277  0.6883  2.2066
15528SOL     OW48257   6.145   4.981   5.440  0.3888  0.4148 -0.6332
15528SOL    HW148258   6.178   4.898   5.405 -0.6612 -0.7673  1.0225
15528SOL    HW248259   6.193   4.994   5.522 -2.6467 -1.1221  1.6093
15529SOL     OW48260   5.399   1.066   0.055 -1.1086 -0.7016 -0.1686
15529SOL    HW148261   5.373   0.976   0.039 -2.2311 -0.3686 -0.3029
15529SOL    HW248262   5.319   1.110   0.082 -0.8821  0.5616 -1.3969
15530SOL     OW48263   9.399   3.886   1.009 -0.2849 -0.1501 -0.1019
15530SOL    HW148264   9.481   3.853   1.044 -1.8813 -1.5524  2.6643
15530SOL    HW248265   9.392   3.975   1.044 -0.3472 -0.3628  0.4343
15531SOL     OW48266   5.887   3.784   6.417 -0.1488  0.3040 -0.7237
15531SOL    HW148267   5.891   3.749   6.506 -1.8035 -0.5143 -0.9349
15531SOL    HW248268   5.798   3.766   6.388  0.2892  0.7648 -2.4738
15532SOL     OW48269   4.770   4.618   8.783 -0.0727  0.8350  0.1281
15532SOL    HW148270   4.680   4.589   8.790  0.3947 -0.7687 -0.2422
15532SOL    HW248271   4.782   4.677   8.858 -1.0292 -0.0178  0.9742
15533SOL     OW48272   2.164   0.052   5.047  0.5906  0.1781  0.1247
15533SOL    HW148273   2.242   0.094   5.010  0.5677 -0.9529 -1.3032
15533SOL    HW248274   2.183   0.043   5.140  2.0003  0.2750 -0.1311
15534SOL     OW48275   5.852   1.412   9.338 -0.7184 -0.8039 -0.8185
15534SOL    HW148276   5.855   1.318   9.319  0.2361 -0.6628 -1.4388
15534SOL    HW248277   5.932   1.447   9.298 -1.1585  0.3062 -0.7523
15535SOL     OW48278   3.654   1.550   2.651  0.1941  0.2853  0.1818
15535SOL    HW148279   3.636   1.521   2.562 -0.2806 -0.5487  0.5320
15535SOL    HW248280   3.734   1.504   2.676 -0.3013 -0.3882  0.5734
15536SOL     OW48281   0.445   4.798   0.233 -0.3346  0.1842  0.2184
15536SOL    HW148282   0.479   4.838   0.153  0.0700 -0.1851  0.2048
15536SOL    HW248283   0.350   4.801   0.222 -0.2705 -0.5068 -0.6004
15537SOL     OW48284   8.403   3.959   4.698 -0.2978 -0.2217 -0.7443
15537SOL    HW148285   8.395   3.965   4.603  4.8426  2.0963 -1.3355
15537SOL    HW248286   8.434   3.870   4.714  1.2039  0.1110 -1.6218
15538SOL     OW48287   3.198   8.786   4.485 -0.1511 -0.7096  0.0898
15538SOL    HW148288   3.108   8.774   4.454  0.5782 -1.0329 -2.1086
15538SOL    HW248289   3.237   8.847   4.422  1.0290 -0.1973  1.2804
15539SOL     OW48290   5.852   8.820   4.884  0.0470 -0.0098  0.0665
15539SOL    HW148291   5.864   8.811   4.789  0.2510  0.9177 -0.0008
15539SOL    HW248292   5.941   8.820   4.919 -0.0242 -0.2115  0.2495
15540SOL     OW48293   1.207   5.663   4.590 -0.0169  0.2549  0.2134
15540SOL    HW148294   1.210   5.573   4.556 -1.2565  0.6507 -1.0584
15540SOL    HW248295   1.120   5.695   4.564  0.0733  1.5379  1.4044
15541SOL     OW48296   0.021   6.105   5.390  0.1119 -0.0396  0.1237
15541SOL    HW148297   0.044   6.151   5.470  0.1339  1.5122 -0.7286
15541SOL    HW248298   0.067   6.021   5.396 -0.4338 -0.2515  2.0221
15542SOL     OW48299   8.454   4.209   9.617 -0.2533  0.0565  0.3235
15542SOL    HW148300   8.416   4.130   9.655 -1.1523  0.6545  0.6886
15542SOL    HW248301   8.548   4.191   9.613 -0.4152 -0.9027  0.6986
15543SOL     OW48302   2.514   7.813   5.512 -0.1660 -0.6248  0.4701
15543SOL    HW148303   2.471   7.894   5.484  1.8423  0.2287 -0.3367
15543SOL    HW248304   2.595   7.811   5.462  0.5645 -2.3508  1.6494
15544SOL     OW48305   1.830   6.328   9.368 -0.2367  0.1126  0.0020
15544SOL    HW148306   1.812   6.407   9.317  2.5399  0.7300 -0.1848
15544SOL    HW248307   1.791   6.346   9.453  1.2607  2.2890  0.3440
15545SOL     OW48308   3.005   3.166   7.432  0.0560 -0.4868 -0.4412
15545SOL    HW148309   2.950   3.172   7.510 -0.2222  0.2562 -0.6827
15545SOL    HW248310   3.017   3.072   7.418  0.6449 -0.6303  0.8651
15546SOL     OW48311   4.238   2.727   8.102 -0.1571 -0.3138 -0.0231
15546SOL    HW148312   4.171   2.704   8.166  0.0862 -1.3821 -0.1381
15546SOL    HW248313   4.268   2.814   8.129  0.5338 -1.0774  1.8250
15547SOL     OW48314   3.129   3.854   6.427 -0.2721  0.1635 -0.0787
15547SOL    HW148315   3.076   3.853   6.507 -0.6750 -4.0581 -0.1987
15547SOL    HW248316   3.219   3.847   6.458 -0.3322 -0.1665  0.0210
15548SOL     OW48317   1.310   1.589   5.904 -0.4595 -0.1704 -0.0120
15548SOL    HW148318   1.299   1.558   5.814 -0.4691  1.3856 -0.5896
15548SOL    HW248319   1.342   1.679   5.893 -2.3034  0.7266  1.5212
15549SOL     OW48320   9.555   3.581   0.497  1.2434 -0.0804  0.0351
15549SOL    HW148321   9.495   3.517   0.535  2.9136 -1.8347 -0.1238
15549SOL    HW248322   9.589   3.538   0.418 -1.0381  2.8672 -2.8737
15550SOL     OW48323   9.013   4.334   0.128 -0.8022 -0.3271 -0.3950
15550SOL    HW148324   9.060   4.417   0.124  2.1871 -1.6144  2.8140
15550SOL    HW248325   9.016   4.300   0.038  3.7275  0.2369 -0.6959
15551SOL     OW48326   3.690   0.346   2.010 -0.3376  0.2420  0.1376
15551SOL    HW148327   3.672   0.253   2.025  1.3223  0.2141  2.6789
15551SOL    HW248328   3.604   0.388   2.016 -0.7893 -0.8045  2.7091
15552SOL     OW48329   3.543   1.703   3.809 -0.2795  0.9014 -0.0591
15552SOL    HW148330   3.576   1.649   3.738  0.6341 -0.0644  1.0545
15552SOL    HW248331   3.455   1.669   3.827  1.0830 -1.9176  2.1426
15553SOL     OW48332   5.521   2.966   0.779  0.2310 -0.0520 -0.2361
15553SOL    HW148333   5.431   2.953   0.807  0.5709 -0.6023  0.6331
15553SOL    HW248334   5.558   3.029   0.841  0.4367  0.2028 -0.6101
15554SOL     OW48335   2.546   1.322   9.632  0.3539  0.4282  0.0697
15554SOL    HW148336   2.564   1.346   9.723  0.7580 -1.3729  0.5089
15554SOL    HW248337   2.624   1.352   9.584  1.2334 -0.7178  0.7346
15555SOL     OW48338   4.050   5.441   4.162 -0.4266 -0.1207 -0.1615
15555SOL    HW148339   4.109   5.457   4.088  2.3113 -0.3050  1.8086
15555SOL    HW248340   4.032   5.529   4.196  0.3351 -0.1565  0.3632
15556SOL     OW48341   1.751   6.093   8.645 -0.1275  0.6801 -0.3939
15556SOL    HW148342   1.820   6.042   8.687 -0.1654  0.8003 -0.1886
15556SOL    HW248343   1.794   6.173   8.615 -0.0928  0.5797 -0.6148
15557SOL     OW48344   2.264   2.345   9.650  0.1349  0.6901 -0.5871
15557SOL    HW148345   2.228   2.396   9.578 -2.9362 -0.5141 -0.0289
15557SOL    HW248346   2.192   2.291   9.681  1.4918  0.6106  2.9538
15558SOL     OW48347   8.854   0.753   5.083  0.2620  0.1995  0.2479
15558SOL    HW148348   8.854   0.737   4.989  0.9997 -3.6081  0.7340
15558SOL    HW248349   8.933   0.805   5.098  1.5152 -1.2301 -1.0424
15559SOL     OW48350   3.793   7.278   5.039 -0.7855  0.0854 -0.1701
15559SOL    HW148351   3.736   7.339   4.992  0.4635  0.4948 -1.2427
15559SOL    HW248352   3.765   7.192   5.010 -0.2173  0.3207 -1.5342
15560SOL     OW48353   3.664   4.908   6.983  0.2376 -0.7876  0.4993
15560SOL    HW148354   3.700   4.937   7.067  1.6156 -1.4205  0.1478
15560SOL    HW248355   3.723   4.839   6.953 -0.1875 -0.5414 -1.0236
15561SOL     OW48356   2.604   3.176   1.350 -0.6576  0.0813 -1.3169
15561SOL    HW148357   2.631   3.110   1.286  0.6041 -0.4985 -0.2454
15561SOL    HW248358   2.547   3.129   1.410  2.6560 -1.0467  1.2831
15562SOL     OW48359   3.988   1.646   6.529 -0.0690  0.0642 -0.1404
15562SOL    HW148360   3.930   1.722   6.528  0.0426  0.1741 -2.0920
15562SOL    HW248361   3.939   1.577   6.485 -0.2599 -1.1253  1.8196
15563SOL     OW48362   6.386   1.497   8.552 -0.3340 -0.3860  0.1373
15563SOL    HW148363   6.361   1.533   8.467 -0.4872 -1.6883 -0.3946
15563SOL    HW248364   6.318   1.434   8.572 -0.9078  0.7137  1.7958
15564SOL     OW48365   2.925   1.659   4.688  0.5214 -0.1716 -0.3766
15564SOL    HW148366   2.847   1.684   4.737  1.0776 -0.1894  0.5434
15564SOL    HW248367   2.923   1.563   4.687  2.1205 -0.3357  2.3999
15565SOL     OW48368   5.965   9.141   0.068  0.5339  0.4718 -0.8493
15565SOL    HW148369   6.017   9.221   0.061 -0.4986  1.2357 -0.1275
15565SOL    HW248370   5.921   9.134  -0.017  1.4103  0.0958 -1.2807
15566SOL     OW48371   2.432   0.147   8.790 -0.1301  0.9745  0.0508
15566SOL    HW148372   2.513   0.163   8.742  1.0935 -3.6336  0.1183
15566SOL    HW248373   2.459   0.095   8.865 -2.9075  1.7615  1.7579
15567SOL     OW48374   5.111   7.047   8.349 -0.1943 -0.2621  0.0788
15567SOL    HW148375   5.179   7.033   8.283 -0.9844  2.7658 -1.5850
15567SOL    HW248376   5.132   7.132   8.388 -2.4569  0.3349  0.1538
15568SOL     OW48377   8.381   6.687   3.053  0.1276 -0.2082 -0.1106
15568SOL    HW148378   8.437   6.661   3.126 -1.0245 -0.4670  0.7057
15568SOL    HW248379   8.376   6.782   3.059 -0.0610 -0.2389  0.2228
15569SOL     OW48380   8.386   9.169   5.952  0.2686 -0.4315  0.2794
15569SOL    HW148381   8.291   9.167   5.950  0.2694 -1.7971 -2.2729
15569SOL    HW248382   8.408   9.154   6.044 -1.9402  0.9029  1.0983
15570SOL     OW48383   9.575   5.596   4.499  0.1309  0.1837  0.0449
15570SOL    HW148384   9.579   5.529   4.431  2.1266  1.0848 -0.8040
15570SOL    HW248385   9.661   5.593   4.541 -0.4102  0.9501  1.2518
15571SOL     OW48386   4.350   9.669   6.834 -0.3709  0.4312  0.6529
15571SOL    HW148387   4.344   9.652   6.740 -0.6476  0.6773  0.6242
15571SOL    HW248388   4.266   9.641   6.870  0.3513 -1.2873  1.1012
15572SOL     OW48389   2.524   1.893   0.091 -0.7974  0.1193  0.1182
15572SOL    HW148390   2.487   1.981   0.098  0.0403  0.5137 -0.3212
15572SOL    HW248391   2.604   1.896   0.142 -1.1225 -0.6090  0.6976
15573SOL     OW48392   3.271   0.603   1.029 -0.1508  0.4734  0.7643
15573SOL    HW148393   3.265   0.561   0.943  1.7931 -0.1058  0.8797
15573SOL    HW248394   3.281   0.696   1.010  0.7514  0.2980  0.3240
15574SOL     OW48395   2.153   5.067   1.719 -0.3201  0.1904 -0.4333
15574SOL    HW148396   2.068   5.051   1.679  0.5876 -0.9101 -2.0789
15574SOL    HW248397   2.170   4.989   1.772 -0.6403  0.7463  0.5078
15575SOL     OW48398   4.117   8.677   0.284  0.0690 -0.0993  0.1439
15575SOL    HW148399   4.208   8.703   0.272  0.0644  0.5686  1.4250
15575SOL    HW248400   4.120   8.581   0.286  0.5776 -0.1244 -0.8676
15576SOL     OW48401   6.812   8.573   6.781  0.4415 -0.1645  0.7284
15576SOL    HW148402   6.873   8.534   6.844  0.2132  1.3470  1.9284
15576SOL    HW248403   6.867   8.625   6.723  0.4719 -0.2197  0.7075
15577SOL     OW48404   6.550   8.574   9.105 -0.0296  0.1888  0.0050
15577SOL    HW148405   6.498   8.526   9.040  1.6790 -0.3860 -0.9972
15577SOL    HW248406   6.570   8.509   9.172 -0.0901  0.2404  0.0732
15578SOL     OW48407   8.343   3.969   0.025 -0.3236  0.0734 -0.5605
15578SOL    HW148408   8.326   3.944   0.116  1.4280  1.2068  0.1205
15578SOL    HW248409   8.374   3.888  -0.016  1.7916  0.1645  0.6798
15579SOL     OW48410   6.539   3.367   9.541 -0.4375 -0.6000  0.2231
15579SOL    HW148411   6.460   3.318   9.518 -0.7297 -0.8712  1.7392
15579SOL    HW248412   6.588   3.373   9.458 -2.2556  0.0192 -0.8594
15580SOL     OW48413   7.232   7.560   8.857  0.2355  0.0247  0.3617
15580SOL    HW148414   7.157   7.615   8.837 -0.9168 -1.5922  0.0752
15580SOL    HW248415   7.200   7.470   8.849  1.5485 -0.7378  2.6225
15581SOL     OW48416   0.687   2.326   7.172 -0.9489 -0.2422  0.1212
15581SOL    HW148417   0.618   2.379   7.212 -1.6352 -1.0409  0.0235
15581SOL    HW248418   0.690   2.246   7.225 -0.7812 -0.6334 -0.4624
15582SOL     OW48419   2.743   5.034   7.087  0.0017 -0.4175 -0.2618
15582SOL    HW148420   2.727   4.940   7.098 -0.9734 -0.3078 -0.6129
15582SOL    HW248421   2.837   5.043   7.097  0.2019 -1.5336 -0.9101
15583SOL     OW48422   6.979   4.972   9.671 -0.2269  0.5099  0.7065
15583SOL    HW148423   6.953   4.880   9.668  0.4497  0.3034  1.0251
15583SOL    HW248424   6.990   4.997   9.579 -1.0022  0.4520  0.5904
15584SOL     OW48425   4.090   4.862   9.257  0.2327 -1.0838 -0.0252
15584SOL    HW148426   4.025   4.925   9.288 -1.1137 -2.8196  0.8453
15584SOL    HW248427   4.171   4.886   9.303  0.4236  1.3788 -1.4503
15585SOL     OW48428   3.827   2.581   0.528  0.1869 -1.0201 -0.4667
15585SOL    HW148429   3.896   2.647   0.528  1.2289 -2.0162 -2.3413
15585SOL    HW248430   3.791   2.583   0.439 -1.8602 -0.9208  0.3050
15586SOL     OW48431   3.496   4.904   3.228  0.0285  0.1873 -1.2848
15586SOL    HW148432   3.582   4.931   3.261 -0.4365  0.0720  0.1245
15586SOL    HW248433   3.438   4.976   3.252 -1.0616 -1.5051  1.7513
15587SOL     OW48434   6.081   0.463   6.061 -0.2248  0.2000 -0.3525
15587SOL    HW148435   6.038   0.502   6.138  0.1589  0.5792 -0.3299
15587SOL    HW248436   6.052   0.371   6.062 -0.0876  0.1539  0.3459
15588SOL     OW48437   0.788   8.996   6.676  0.0895  0.1096 -0.1869
15588SOL    HW148438   0.797   8.912   6.721 -0.0986  1.5940  2.8664
15588SOL    HW248439   0.822   9.061   6.738 -0.3450  2.3821 -2.1564
15589SOL     OW48440   6.979   7.001   0.824  0.5160 -0.4417 -0.2639
15589SOL    HW148441   7.067   7.033   0.846  0.8565 -0.1921 -1.8845
15589SOL    HW248442   6.936   7.075   0.781  0.4285 -1.3481 -1.7874
15590SOL     OW48443   0.921   7.700   2.886  0.5766  0.1293 -0.4820
15590SOL    HW148444   0.948   7.673   2.973  1.8313  0.5619 -0.7252
15590SOL    HW248445   0.902   7.794   2.895 -0.4744 -0.0753 -0.4127
15591SOL     OW48446   0.267   7.663   3.014  0.1077  0.0280  0.5070
15591SOL    HW148447   0.326   7.737   3.023 -1.7956  1.6662  0.2529
15591SOL    HW248448   0.185   7.693   3.054 -0.2970 -2.5251  1.8155
15592SOL     OW48449   9.388   0.367   9.432  0.2014  0.1888 -0.2267
15592SOL    HW148450   9.414   0.296   9.489 -2.4362 -1.4842 -0.9227
15592SOL    HW248451   9.455   0.369   9.363  0.6421 -1.2077  0.1385
15593SOL     OW48452   8.839   8.800   1.009  0.3502 -0.0039 -0.2929
15593SOL    HW148453   8.927   8.837   1.000  1.6940 -2.6662  0.7162
15593SOL    HW248454   8.799   8.849   1.081  2.2645 -0.7975  1.4103
15594SOL     OW48455   4.267   4.665   5.464 -0.0949  0.5842  0.0348
15594SOL    HW148456   4.310   4.662   5.550  1.2925  1.3715 -0.5952
15594SOL    HW248457   4.324   4.720   5.411  0.5288 -2.0169 -2.1879
15595SOL     OW48458   6.086   4.991   7.313  0.6524  0.1321 -0.3096
15595SOL    HW148459   6.037   4.949   7.383  0.6528 -1.4302 -1.1989
15595SOL    HW248460   6.030   5.064   7.285 -0.1115 -0.2371  0.2098
15596SOL     OW48461   9.121   5.191   7.832  0.0927  0.2521  0.1056
15596SOL    HW148462   9.146   5.107   7.870 -1.4094 -0.6366 -0.7690
15596SOL    HW248463   9.143   5.183   7.739  0.6155  1.1111  0.1501
15597SOL     OW48464   7.248   9.350   8.106  0.1366  0.3577  0.0667
15597SOL    HW148465   7.341   9.345   8.129  0.6341 -2.7573 -2.0526
15597SOL    HW248466   7.204   9.295   8.170  0.1420 -0.2278 -0.4222
15598SOL     OW48467   6.084   8.366   3.656 -0.1068  0.8389 -0.1573
15598SOL    HW148468   6.068   8.274   3.634  2.6951  0.1679  0.2206
15598SOL    HW248469   6.022   8.385   3.726 -1.5086 -0.3924 -1.0069
15599SOL     OW48470   8.824   9.632   3.848  0.1620  0.1842  0.7752
15599SOL    HW148471   8.909   9.635   3.894  0.9354  1.0870 -0.6391
15599SOL    HW248472   8.798   9.723   3.840 -1.6980 -0.1188  2.4089
15600SOL     OW48473   2.212   6.282   1.642 -0.7697 -0.3124 -0.6592
15600SOL    HW148474   2.169   6.266   1.726  0.0196 -1.0548 -0.3830
15600SOL    HW248475   2.301   6.249   1.654  0.7340  3.3579 -0.3952
15601SOL     OW48476   3.866   4.687   7.633  0.0558 -0.4380 -0.3358
15601SOL    HW148477   3.943   4.666   7.579  3.3274  0.7431  3.3418
15601SOL    HW248478   3.845   4.778   7.611 -0.1241 -0.6772 -1.1750
15602SOL     OW48479   5.091   0.330   8.981 -0.3387 -0.1748 -0.3927
15602SOL    HW148480   5.005   0.355   8.947  0.3612  0.3967 -1.8288
15602SOL    HW248481   5.136   0.290   8.907  1.7442  2.3331 -0.6170
15603SOL     OW48482   6.934   4.355   9.676 -0.0499  0.8824  0.0479
15603SOL    HW148483   7.029   4.344   9.686  0.1081  0.6245 -1.4132
15603SOL    HW248484   6.913   4.305   9.597 -1.6097 -0.0224  1.0080
15604SOL     OW48485   8.936   7.864   0.485  0.0169 -0.4648 -0.1371
15604SOL    HW148486   9.013   7.864   0.429  0.5331 -0.9481  0.5584
15604SOL    HW248487   8.883   7.937   0.454  1.6695  1.1326  0.6330
15605SOL     OW48488   2.196   9.082   1.132  0.1877  0.2469  0.2423
15605SOL    HW148489   2.180   8.989   1.114  0.6261  0.4400 -1.3405
15605SOL    HW248490   2.134   9.104   1.202 -1.0182 -0.8690 -0.4189
15606SOL     OW48491   1.141   3.142   9.057  0.0860  0.0501  0.2675
15606SOL    HW148492   1.132   3.130   9.152  1.7535 -0.2628  0.4185
15606SOL    HW248493   1.197   3.218   9.048 -2.8273  2.2790 -0.5805
15607SOL     OW48494   1.500   8.842   6.922  0.0307 -0.7533 -0.2065
15607SOL    HW148495   1.464   8.784   6.990  1.7017 -0.8574  0.6412
15607SOL    HW248496   1.576   8.795   6.888 -0.2355 -0.2767 -1.5187
15608SOL     OW48497   7.425   5.739   7.648  0.0532 -0.4973 -0.0079
15608SOL    HW148498   7.456   5.732   7.558  5.1656  1.5386  1.2669
15608SOL    HW248499   7.373   5.820   7.649  0.3951 -0.2467 -1.0259
15609SOL     OW48500   8.568   6.858   0.692 -0.8821 -0.6583  0.7808
15609SOL    HW148501   8.621   6.870   0.614 -1.0663  0.3312  0.8006
15609SOL    HW248502   8.495   6.803   0.664 -0.8258 -0.4951  0.3142
15610SOL     OW48503   1.054   5.206   7.316  0.3773  0.0280  0.2329
15610SOL    HW148504   1.069   5.205   7.410 -0.1469 -0.2393  0.3188
15610SOL    HW248505   1.032   5.115   7.295 -0.1632  0.2165 -0.0359
15611SOL     OW48506   5.142   8.993   2.872 -0.3282 -0.2856 -0.3182
15611SOL    HW148507   5.147   8.929   2.943 -0.5286  0.2667  0.2048
15611SOL    HW248508   5.227   9.036   2.872  0.4378 -1.6846 -1.7866
15612SOL     OW48509   7.649   8.447   3.798  0.3487 -0.5533 -0.1099
15612SOL    HW148510   7.736   8.478   3.773  0.0167 -0.0379 -0.6464
15612SOL    HW248511   7.620   8.393   3.725  0.4743 -1.2663  0.3506
15613SOL     OW48512   2.209   9.411   6.289  0.3036  0.4903  0.3129
15613SOL    HW148513   2.219   9.340   6.225  0.0871  1.0341 -0.3381
15613SOL    HW248514   2.206   9.490   6.236 -0.7190  0.8865  0.9453
15614SOL     OW48515   6.734   5.281   4.017 -0.1684 -0.2181 -0.5910
15614SOL    HW148516   6.720   5.187   4.023  2.0464 -0.5744  0.0823
15614SOL    HW248517   6.815   5.289   3.966 -0.6812  1.3711 -1.2255
15615SOL     OW48518   6.038   5.861   0.517 -0.4248 -0.0220  0.6664
15615SOL    HW148519   6.078   5.926   0.575 -1.1319 -0.6489  1.9214
15615SOL    HW248520   5.972   5.818   0.572  1.7522 -3.6457  0.7945
15616SOL     OW48521   6.526   5.865   0.548 -0.1778 -0.1101  0.0678
15616SOL    HW148522   6.572   5.946   0.523  0.5801 -0.5269  0.0829
15616SOL    HW248523   6.483   5.837   0.467  1.0252 -0.6358 -0.4251
15617SOL     OW48524   3.496   7.268   3.863 -0.0076 -0.1662 -0.1841
15617SOL    HW148525   3.410   7.265   3.904 -0.4197 -1.6706 -1.0779
15617SOL    HW248526   3.540   7.190   3.896  1.2658  0.8877  0.7211
15618SOL     OW48527   6.059   2.870   1.689 -0.2236  0.3047 -0.1300
15618SOL    HW148528   6.074   2.785   1.647 -1.0498 -1.1797  2.3321
15618SOL    HW248529   6.004   2.918   1.627 -0.3341 -1.2243 -1.2928
15619SOL     OW48530   0.898   6.478   8.661  0.2307 -0.2966  0.4755
15619SOL    HW148531   0.957   6.478   8.736  0.9044  0.1507 -0.0366
15619SOL    HW248532   0.910   6.391   8.621 -2.7019 -1.9398  2.7950
15620SOL     OW48533   4.539   5.986   1.904  0.5083 -0.1588  0.2258
15620SOL    HW148534   4.607   5.923   1.880 -0.0551 -1.2922  1.4950
15620SOL    HW248535   4.566   6.019   1.990  0.3958  0.7691 -0.0853
15621SOL     OW48536   1.644   5.107   9.644 -0.1017  0.2937 -1.1220
15621SOL    HW148537   1.687   5.188   9.616  0.8768 -0.6321 -2.4196
15621SOL    HW248538   1.555   5.113   9.607 -0.8465  1.7761  0.7536
15622SOL     OW48539   4.101   6.099   1.096  0.3047 -0.5383  0.0986
15622SOL    HW148540   4.182   6.068   1.054  0.3613 -1.8710  1.1156
15622SOL    HW248541   4.123   6.187   1.127  1.1278 -0.5812 -0.3251
15623SOL     OW48542   4.313   0.695   7.549 -0.5593  0.2837 -0.5077
15623SOL    HW148543   4.314   0.697   7.644 -2.3390 -1.0604 -0.4059
15623SOL    HW248544   4.401   0.665   7.525 -0.6096 -1.0765  0.8315
15624SOL     OW48545   7.022   9.530   0.663  0.0474  0.3471  0.4238
15624SOL    HW148546   6.987   9.548   0.576 -0.9168  0.5381  0.8413
15624SOL    HW248547   7.098   9.474   0.647 -0.2704  0.1712 -0.5171
15625SOL     OW48548   4.490   0.826   7.118 -0.1289  0.4986 -0.0590
15625SOL    HW148549   4.410   0.775   7.103 -0.6743  0.9558  1.1359
15625SOL    HW248550   4.467   0.915   7.091  0.2861  0.4483 -0.5896
15626SOL     OW48551   8.542   6.929   7.691  0.0861  0.1197 -0.2838
15626SOL    HW148552   8.508   6.839   7.694  1.7675 -0.5864 -1.2472
15626SOL    HW248553   8.505   6.966   7.611  0.1178 -0.0279 -0.3677
15627SOL     OW48554   6.932   3.933   3.109 -0.2520  0.1201 -0.0508
15627SOL    HW148555   6.980   4.008   3.076  0.2461  0.1315  0.6776
15627SOL    HW248556   6.980   3.905   3.187 -0.1514 -1.2548 -0.5756
15628SOL     OW48557   5.742   6.253   6.461  0.3366 -0.5875  0.2838
15628SOL    HW148558   5.821   6.280   6.507  1.3881  0.4643 -1.9572
15628SOL    HW248559   5.670   6.277   6.519  1.5603  0.6644  1.3576
15629SOL     OW48560   1.431   3.897   9.284  0.1427  0.0350  0.6502
15629SOL    HW148561   1.511   3.844   9.283 -0.0072 -0.1953  0.7530
15629SOL    HW248562   1.366   3.844   9.238  0.9161  1.6489 -2.5030
15630SOL     OW48563   8.349   8.658   7.705 -0.1494 -0.3987 -0.1548
15630SOL    HW148564   8.266   8.622   7.735  0.6304 -1.0976  1.2546
15630SOL    HW248565   8.410   8.643   7.777  0.4868  2.9027  0.1695
15631SOL     OW48566   6.503   3.225   3.079  0.2562 -0.5942 -0.5219
15631SOL    HW148567   6.410   3.223   3.103  0.6722 -1.7898  1.1946
15631SOL    HW248568   6.535   3.137   3.099  2.4599  0.6407  2.0511
15632SOL     OW48569   1.962   7.416   2.427 -0.7049  0.4522  0.5885
15632SOL    HW148570   1.886   7.370   2.393 -1.2530  2.2489 -0.7903
15632SOL    HW248571   1.932   7.455   2.509  0.1137 -2.4752  2.4137
15633SOL     OW48572   3.008   5.912   7.595 -0.9808  0.6100  0.2397
15633SOL    HW148573   3.052   5.863   7.664 -0.6540  1.3493  0.5654
15633SOL    HW248574   3.020   6.004   7.619  1.9402  1.0989 -2.3966
15634SOL     OW48575   8.655   3.434   0.623  0.3836  0.0797 -0.5263
15634SOL    HW148576   8.590   3.477   0.678  1.8248  1.0319  0.5053
15634SOL    HW248577   8.621   3.444   0.534 -1.7191 -1.0212  0.0842
15635SOL     OW48578   6.652   7.626   6.414 -0.2660 -0.6784 -0.5356
15635SOL    HW148579   6.617   7.634   6.502  0.5526 -0.4075 -0.2228
15635SOL    HW248580   6.633   7.536   6.388  0.3916 -1.0757  0.3194
15636SOL     OW48581   1.735   7.827   9.614 -0.0090 -0.4469  0.1675
15636SOL    HW148582   1.653   7.841   9.566  0.6063 -1.3436 -1.1876
15636SOL    HW248583   1.720   7.745   9.662 -0.1691 -0.2090  0.5308
15637SOL     OW48584   9.627   1.756   3.439  0.1151  0.0021  0.6332
15637SOL    HW148585   9.579   1.837   3.422 -1.2627 -0.7616  0.7613
15637SOL    HW248586   9.700   1.758   3.377 -3.2233 -1.4388 -3.8789
15638SOL     OW48587   1.863   5.213   1.906 -0.0526 -0.0608 -0.0238
15638SOL    HW148588   1.821   5.224   1.821 -0.7530  0.0217  0.3319
15638SOL    HW248589   1.881   5.119   1.912 -0.3244 -0.1185 -0.1118
15639SOL     OW48590   0.231   6.281   7.200 -0.1709  0.0525  0.3860
15639SOL    HW148591   0.277   6.209   7.158 -0.4072 -0.6233  1.2570
15639SOL    HW248592   0.188   6.242   7.276 -1.1839  0.9063  0.2809
15640SOL     OW48593   7.940   9.059   8.347 -0.4190 -0.1670  0.1121
15640SOL    HW148594   7.947   8.972   8.307  2.2295  0.2093 -0.4512
15640SOL    HW248595   7.998   9.055   8.423 -0.2226  1.1138  0.0543
15641SOL     OW48596   3.258   8.037   0.611  0.0391  0.2739 -0.0494
15641SOL    HW148597   3.288   7.989   0.688 -1.9462  0.9444  1.2227
15641SOL    HW248598   3.255   8.129   0.640  2.4190  1.0527 -1.9880
15642SOL     OW48599   1.778   2.474   1.390 -0.4333  0.7684 -0.3580
15642SOL    HW148600   1.692   2.443   1.365 -0.1162 -1.1166  0.7268
15642SOL    HW248601   1.839   2.415   1.346  0.2566  1.0346  0.2254
15643SOL     OW48602   1.824   3.753   6.648 -0.1406  0.2291 -0.0773
15643SOL    HW148603   1.752   3.804   6.685  0.9447  0.8536  1.2566
15643SOL    HW248604   1.786   3.667   6.631 -0.7556 -0.0841  2.5056
15644SOL     OW48605   5.683   6.850   7.016  0.5743  0.7759  0.2836
15644SOL    HW148606   5.653   6.768   7.057  0.0908  0.3774 -0.8148
15644SOL    HW248607   5.610   6.910   7.027 -0.5060 -0.0232 -1.8986
15645SOL     OW48608   1.262   3.322   2.257 -0.6091 -0.0946 -0.1102
15645SOL    HW148609   1.216   3.403   2.235  1.2448  1.1045  0.2061
15645SOL    HW248610   1.341   3.323   2.203  0.4240 -0.6873  1.3041
15646SOL     OW48611   7.522   0.594   8.844 -0.0870 -0.1237 -0.3308
15646SOL    HW148612   7.570   0.612   8.764 -1.8106 -0.6884 -1.5593
15646SOL    HW248613   7.490   0.679   8.873  3.2413  0.5968  1.6823
15647SOL     OW48614   8.661   0.598   7.856  0.3943  0.1130 -0.0152
15647SOL    HW148615   8.718   0.608   7.932  0.6169 -1.8796  0.1421
15647SOL    HW248616   8.718   0.617   7.781  0.4563  1.0330  0.2527
15648SOL     OW48617   6.586   7.162   5.282 -0.1433  0.4581  0.1715
15648SOL    HW148618   6.530   7.206   5.219 -0.5443  1.2852  1.0924
15648SOL    HW248619   6.595   7.223   5.354 -1.1026 -1.1251  1.7028
15649SOL     OW48620   5.316   2.218   8.784  0.5874  0.5213  0.3168
15649SOL    HW148621   5.267   2.145   8.744  0.6667  0.8026 -0.3089
15649SOL    HW248622   5.394   2.227   8.730  0.8818  0.6707  0.7656
15650SOL     OW48623   7.540   3.504   4.343  0.2053 -0.2156 -0.2168
15650SOL    HW148624   7.586   3.579   4.305  1.2739 -0.0699  1.2637
15650SOL    HW248625   7.606   3.435   4.346 -0.1203 -0.4998  0.5076
15651SOL     OW48626   5.396   8.605   8.560 -0.2126 -0.2489  0.4643
15651SOL    HW148627   5.421   8.695   8.538 -3.6530  0.6850 -0.1434
15651SOL    HW248628   5.416   8.596   8.653  2.4565  0.2004  0.0262
15652SOL     OW48629   4.885   9.307   1.395 -0.6371 -0.4821  0.9214
15652SOL    HW148630   4.952   9.260   1.444 -0.3827 -1.7571 -0.5519
15652SOL    HW248631   4.850   9.370   1.457  0.7523 -0.9291  2.2397
15653SOL     OW48632   9.482   7.209   5.095 -0.1635 -0.1558  0.6489
15653SOL    HW148633   9.441   7.251   5.170  0.2285  0.1532  0.6929
15653SOL    HW248634   9.508   7.282   5.039 -1.6493 -0.4058 -0.4384
15654SOL     OW48635   5.888   3.902   9.452 -0.4761 -0.6630  0.1141
15654SOL    HW148636   5.920   3.835   9.513 -2.1141 -1.1611  0.4512
15654SOL    HW248637   5.858   3.973   9.508 -0.0457 -0.2169 -0.2046
15655SOL     OW48638   6.036   4.355   9.163 -0.0331  0.1508  0.0306
15655SOL    HW148639   6.126   4.359   9.196  0.1752  2.2100 -0.6258
15655SOL    HW248640   6.043   4.320   9.075  0.0785 -0.0106  0.1040
15656SOL     OW48641   2.958   2.843   1.066  0.2579 -0.2733 -0.3668
15656SOL    HW148642   2.966   2.929   1.109 -0.5804  0.7517 -2.1281
15656SOL    HW248643   3.037   2.796   1.093 -0.0355  0.3918  1.9601
15657SOL     OW48644   0.431   7.322   1.949 -0.2208  0.1000 -0.5195
15657SOL    HW148645   0.375   7.261   1.902 -0.9220  1.0944 -1.0261
15657SOL    HW248646   0.485   7.362   1.880 -1.5673  1.8987 -0.6231
15658SOL     OW48647   3.912   5.213   1.373 -0.2515 -0.1990  0.4122
15658SOL    HW148648   3.818   5.200   1.362 -0.0084 -0.5949 -1.5101
15658SOL    HW248649   3.933   5.289   1.319  0.3116  0.8688  2.0661
15659SOL     OW48650   5.612   6.330   4.693  0.0799 -0.0158 -0.8248
15659SOL    HW148651   5.610   6.235   4.704  2.2581 -0.1174 -0.8992
15659SOL    HW248652   5.571   6.344   4.608 -0.7285 -0.8248 -0.5896
15660SOL     OW48653   2.918   0.429   7.185  0.3769 -0.0785  0.1029
15660SOL    HW148654   2.924   0.334   7.179 -0.1283 -0.0440 -1.3918
15660SOL    HW248655   2.845   0.445   7.244 -0.1081 -0.6363 -0.3330
15661SOL     OW48656   7.773   8.517   3.302  0.6711 -0.8198  0.0260
15661SOL    HW148657   7.691   8.523   3.350  0.1445  1.4152 -1.0425
15661SOL    HW248658   7.840   8.509   3.369 -0.2375 -0.3273  1.0175
15662SOL     OW48659   1.183   4.100   3.150  0.3382 -0.0633 -0.2176
15662SOL    HW148660   1.240   4.040   3.200  1.9416 -0.4524 -2.3675
15662SOL    HW248661   1.213   4.091   3.060  0.9763  4.2812 -0.6513
15663SOL     OW48662   4.648   4.246   4.019  0.0192 -0.1414  0.2297
15663SOL    HW148663   4.635   4.294   3.937  1.2327  0.4276  0.3570
15663SOL    HW248664   4.678   4.159   3.991  0.5661  0.0959  0.0722
15664SOL     OW48665   7.581   1.972   2.965 -0.0623 -0.3089 -0.0238
15664SOL    HW148666   7.518   1.903   2.984  0.3593 -1.0202 -1.1532
15664SOL    HW248667   7.549   2.012   2.884  0.0834  0.3614  0.2403
15665SOL     OW48668   0.376   5.207   2.956  0.1547 -0.1718  0.4365
15665SOL    HW148669   0.377   5.299   2.930 -1.9305  0.1283  1.2025
15665SOL    HW248670   0.337   5.207   3.043  0.3191 -1.7723  0.5499
15666SOL     OW48671   6.911   3.286   0.751 -0.2241  0.5121 -0.2397
15666SOL    HW148672   6.898   3.196   0.781 -0.9923  0.1784 -1.5069
15666SOL    HW248673   7.005   3.294   0.738  0.0258  0.3722  1.2901
15667SOL     OW48674   8.351   0.623   1.983 -0.9822 -0.4151 -0.1867
15667SOL    HW148675   8.316   0.541   1.948  0.3540 -1.5181  0.9568
15667SOL    HW248676   8.291   0.645   2.055 -0.4874 -1.2138  0.4774
15668SOL     OW48677   7.366   9.577   7.800 -0.2261 -0.4481 -0.1533
15668SOL    HW148678   7.371   9.666   7.766  0.6386 -0.1442  0.6963
15668SOL    HW248679   7.385   9.586   7.894 -1.8788 -1.3236  0.3073
15669SOL     OW48680   3.862   3.029   5.040  0.6797  0.4256  0.4414
15669SOL    HW148681   3.924   3.025   5.113  0.6917  0.6770  0.4457
15669SOL    HW248682   3.918   3.026   4.962  0.6452 -0.1821  0.4412
15670SOL     OW48683   2.624   5.734   0.694 -0.0277  0.1665  0.0624
15670SOL    HW148684   2.554   5.785   0.735  0.1896  1.7349 -1.4311
15670SOL    HW248685   2.583   5.693   0.619  0.5163  0.6686 -0.5173
15671SOL     OW48686   1.711   0.319   0.845 -0.1030 -0.8251 -0.8763
15671SOL    HW148687   1.786   0.286   0.795  1.3060 -1.8922  1.7460
15671SOL    HW248688   1.660   0.241   0.868  0.3176 -0.6289  0.8615
15672SOL     OW48689   4.723   5.693   7.924  0.0875 -0.0713  0.3807
15672SOL    HW148690   4.805   5.719   7.882 -0.5112  4.7948  1.5450
15672SOL    HW248691   4.655   5.710   7.858 -0.2781  0.4333  0.8709
15673SOL     OW48692   5.186   2.088   8.016  0.5249  0.4153  0.4900
15673SOL    HW148693   5.249   2.030   7.974  0.1393 -0.2464  0.7995
15673SOL    HW248694   5.225   2.108   8.101  0.5624  0.4381  0.4670
15674SOL     OW48695   1.956   9.615   9.531  0.0257 -0.1761 -0.3667
15674SOL    HW148696   1.930   9.553   9.598  0.1039  0.0319 -0.1431
15674SOL    HW248697   1.875   9.658   9.505  0.1463  0.5095  0.3664
15675SOL     OW48698   6.149   0.866   0.610  0.3399 -0.0785  0.4671
15675SOL    HW148699   6.125   0.782   0.648  0.2488 -0.2835 -0.0341
15675SOL    HW248700   6.080   0.926   0.639  0.4210 -0.1661  0.8500
15676SOL     OW48701   1.530   3.345   6.946  0.3436 -0.1610  0.0124
15676SOL    HW148702   1.491   3.376   6.865  1.8907 -0.1931 -0.7730
15676SOL    HW248703   1.487   3.396   7.015 -0.4618  0.3752 -0.8720
15677SOL     OW48704   6.676   8.155   0.305  0.3606  0.1227  0.0613
15677SOL    HW148705   6.650   8.237   0.347  0.8560 -0.5261  1.7058
15677SOL    HW248706   6.692   8.179   0.214 -1.6372  1.4025 -0.0108
15678SOL     OW48707   8.454   8.301   8.253 -0.1203  0.2494  0.4007
15678SOL    HW148708   8.479   8.310   8.345  1.6302  1.4382 -0.1323
15678SOL    HW248709   8.396   8.225   8.251  1.1135 -0.8322  2.2346
15679SOL     OW48710   0.572   5.022   9.629  0.5086  0.0172 -0.6909
15679SOL    HW148711   0.566   5.062   9.543 -0.3230 -0.9222 -1.0984
15679SOL    HW248712   0.520   4.942   9.622 -1.4131  0.9783  1.3023
15680SOL     OW48713   2.586   4.913   4.992  0.3005  0.4508 -0.1040
15680SOL    HW148714   2.526   4.954   4.930  0.2100  1.0373  0.3659
15680SOL    HW248715   2.585   4.820   4.969 -1.4223  0.3174  0.4308
15681SOL     OW48716   2.016   2.383   8.655  0.4864 -0.4335  0.2049
15681SOL    HW148717   2.003   2.307   8.598 -0.4312  0.3290 -0.6334
15681SOL    HW248718   2.032   2.346   8.742 -0.4260 -1.5793 -0.0981
15682SOL     OW48719   3.740   0.798   6.975  0.3899  0.8563 -0.7755
15682SOL    HW148720   3.669   0.860   6.960 -0.8453  0.2934  2.0411
15682SOL    HW248721   3.797   0.841   7.039 -0.3026 -0.6352  0.9566
15683SOL     OW48722   2.194   4.976   2.730  0.0505  0.0487 -0.5519
15683SOL    HW148723   2.142   4.974   2.810  0.6265 -0.8204 -0.1788
15683SOL    HW248724   2.202   5.069   2.709 -1.7524  0.2070 -0.7147
15684SOL     OW48725   0.886   2.519   5.052 -0.2210 -0.0793 -0.2600
15684SOL    HW148726   0.887   2.442   5.109  1.3929 -0.8326 -1.2544
15684SOL    HW248727   0.950   2.579   5.091 -2.3828  1.4159  1.2586
15685SOL     OW48728   4.882   0.270   5.929  0.2725  0.1293  0.1792
15685SOL    HW148729   4.827   0.243   6.002  1.7322  0.4611  1.4527
15685SOL    HW248730   4.893   0.191   5.876  1.6458 -0.9396  1.9591
15686SOL     OW48731   3.152   2.382   3.091  0.7572 -0.0190 -0.3719
15686SOL    HW148732   3.076   2.436   3.112  0.3708  0.4242 -2.5884
15686SOL    HW248733   3.121   2.292   3.097  0.6043  0.0949  0.5847
15687SOL     OW48734   7.214   3.876   1.216  0.2396  0.4846 -0.8905
15687SOL    HW148735   7.298   3.842   1.186 -0.5235 -1.4566 -1.0235
15687SOL    HW248736   7.221   3.878   1.311  0.6258  0.8537 -0.9285
15688SOL     OW48737   4.297   7.217   4.103  0.1337 -0.6102 -0.0239
15688SOL    HW148738   4.386   7.182   4.095  0.7012  0.9377 -0.9834
15688SOL    HW248739   4.275   7.247   4.015  0.0371  2.1468  0.8402
15689SOL     OW48740   7.228   2.966   2.113 -0.1293  0.3566  0.2434
15689SOL    HW148741   7.287   2.895   2.141 -1.1241 -0.6087 -0.0749
15689SOL    HW248742   7.283   3.044   2.117  0.9577 -0.3981  0.7404
15690SOL     OW48743   7.035   0.781   9.515  0.5070  0.1093  0.3000
15690SOL    HW148744   7.102   0.719   9.544  2.0340  0.9917 -1.2104
15690SOL    HW248745   7.025   0.842   9.588  2.0853  0.5428  0.1702
15691SOL     OW48746   5.435   3.041   4.105 -0.5088  0.1362  0.5001
15691SOL    HW148747   5.453   3.118   4.051 -3.6463  1.7983  1.5589
15691SOL    HW248748   5.393   2.979   4.044 -0.6713  0.4820  0.2575
15692SOL     OW48749   0.471   3.396   8.698 -0.5665  0.1718  0.1191
15692SOL    HW148750   0.486   3.331   8.766 -0.5748  0.4517  0.3878
15692SOL    HW248751   0.477   3.480   8.743 -0.5159  0.3593 -0.2345
15693SOL     OW48752   9.257   6.967   6.156  0.1615  0.2330  0.2379
15693SOL    HW148753   9.164   6.975   6.135  0.3578  1.3788 -0.2849
15693SOL    HW248754   9.275   7.040   6.214  0.3589 -1.0244  1.8179
15694SOL     OW48755   4.680   2.171   6.129  0.1796 -0.1682  0.5738
15694SOL    HW148756   4.690   2.116   6.051  1.1046  2.1672 -1.0779
15694SOL    HW248757   4.770   2.187   6.158 -0.1641 -1.1287  2.2707
15695SOL     OW48758   4.852   9.625   7.497 -0.2890 -0.0811  0.2219
15695SOL    HW148759   4.787   9.684   7.459 -0.1318 -0.0569 -0.0109
15695SOL    HW248760   4.901   9.592   7.422 -0.3616 -0.4942  0.3556
15696SOL     OW48761   0.822   2.342   8.851  0.5853  0.3925  0.1620
15696SOL    HW148762   0.773   2.305   8.778  2.4104  1.5658 -1.7707
15696SOL    HW248763   0.836   2.268   8.910 -1.9922 -0.3121  0.0074
15697SOL     OW48764   0.625   1.356   2.024 -0.3877 -1.0020 -0.2010
15697SOL    HW148765   0.586   1.333   2.109 -1.6927  0.2300 -0.4203
15697SOL    HW248766   0.668   1.440   2.040  0.8050 -1.5698 -0.3740
15698SOL     OW48767   5.383   8.058   2.113 -0.2817 -0.2895  0.1509
15698SOL    HW148768   5.479   8.051   2.116  0.0349  3.0131  1.2212
15698SOL    HW248769   5.362   8.058   2.020  0.8851  0.0362 -0.1277
15699SOL     OW48770   7.467   2.369   4.029  0.1250  0.0986 -0.0144
15699SOL    HW148771   7.455   2.287   3.980  0.2560  0.4887 -0.7096
15699SOL    HW248772   7.400   2.365   4.098  0.8746 -1.1201  0.6930
15700SOL     OW48773   8.582   5.487   1.150 -0.1518  0.0088 -1.2354
15700SOL    HW148774   8.645   5.430   1.193  2.2785  1.0357 -3.1646
15700SOL    HW248775   8.514   5.502   1.215  2.3491  0.0740  1.5868
15701SOL     OW48776   9.435   0.385   0.508  0.3955 -0.2530  1.0678
15701SOL    HW148777   9.385   0.450   0.558  1.3667 -0.3322  2.1723
15701SOL    HW248778   9.488   0.436   0.448 -0.7195 -0.1524  0.1392
15702SOL     OW48779   2.874   2.218   4.190  0.3299  0.4363  0.0312
15702SOL    HW148780   2.803   2.259   4.239 -0.9413  1.2627 -2.3394
15702SOL    HW248781   2.922   2.167   4.255 -1.5550  1.0166  1.9910
15703SOL     OW48782   5.799   0.438   3.670 -0.0927 -0.1200  0.2966
15703SOL    HW148783   5.842   0.406   3.749  0.9016  2.1819  0.7900
15703SOL    HW248784   5.868   0.436   3.603 -0.4903 -0.5767 -0.1076
15704SOL     OW48785   3.223   6.017   9.619  0.2234  0.1880  0.3552
15704SOL    HW148786   3.250   5.926   9.619  3.0077  0.8259 -2.7701
15704SOL    HW248787   3.293   6.063   9.666 -0.1472  0.9281  0.1972
15705SOL     OW48788   9.181   3.131   7.428  0.5118  0.2739 -0.5555
15705SOL    HW148789   9.223   3.048   7.452  1.6614  0.9376 -0.1860
15705SOL    HW248790   9.135   3.158   7.507 -1.0413 -0.6787 -1.0971
15706SOL     OW48791   4.569   4.078   0.437  0.3831 -0.0224  0.2410
15706SOL    HW148792   4.566   3.997   0.488 -0.6985  0.5990  1.2256
15706SOL    HW248793   4.579   4.049   0.346  0.9486 -1.2091  0.6584
15707SOL     OW48794   3.886   0.155   1.976 -0.1730  0.1336 -0.0127
15707SOL    HW148795   3.834   0.080   1.948 -0.6020  0.3151  0.2804
15707SOL    HW248796   3.822   0.225   1.987  0.1577  0.4029  0.2041
15708SOL     OW48797   1.226   4.862   9.141  0.0504  0.0123 -0.5979
15708SOL    HW148798   1.237   4.903   9.227  0.5584  0.3947 -0.8408
15708SOL    HW248799   1.270   4.777   9.148  0.1926  0.0926 -0.5134
15709SOL     OW48800   7.231   5.125   2.833  0.3119  0.0326  0.0818
15709SOL    HW148801   7.155   5.116   2.775  0.6595  0.2329 -0.4111
15709SOL    HW248802   7.276   5.203   2.802 -0.0448  0.7349  1.2751
15710SOL     OW48803   7.756   1.367   2.749 -0.6251 -0.1255 -0.3679
15710SOL    HW148804   7.751   1.382   2.654 -1.2284  3.0816  0.0536
15710SOL    HW248805   7.842   1.402   2.774 -0.2139 -1.4972  0.2323
15711SOL     OW48806   4.284   3.400   2.562 -0.2173  0.2347 -0.3200
15711SOL    HW148807   4.328   3.473   2.604 -1.6605  0.4003  0.9929
15711SOL    HW248808   4.345   3.371   2.494  2.4810 -0.3399  2.1310
15712SOL     OW48809   0.347   8.360   4.367 -0.3852 -0.3271 -0.0404
15712SOL    HW148810   0.258   8.387   4.343 -0.5558 -0.9308 -0.1041
15712SOL    HW248811   0.378   8.312   4.290  0.0246 -0.0611 -0.0433
15713SOL     OW48812   3.999   7.253   4.632 -0.7581  0.4434  0.8454
15713SOL    HW148813   4.023   7.287   4.718  3.3342  2.3210 -0.7531
15713SOL    HW248814   4.042   7.168   4.627 -1.6813 -0.0330  0.9352
15714SOL     OW48815   7.956   5.090   5.055  0.4695  0.1345 -0.4044
15714SOL    HW148816   7.876   5.127   5.017  1.5227  0.0019 -2.9070
15714SOL    HW248817   8.023   5.156   5.040  0.8732  0.2647  1.7295
15715SOL     OW48818   9.336   3.782   4.811  0.2311 -0.2015  0.3277
15715SOL    HW148819   9.383   3.738   4.740 -1.4719  0.9334 -1.6254
15715SOL    HW248820   9.277   3.715   4.846 -1.5460  0.1175 -1.8681
15716SOL     OW48821   7.653   7.498   3.434 -0.4486  0.1700 -0.3309
15716SOL    HW148822   7.734   7.451   3.453  0.4179  1.7707  0.1711
15716SOL    HW248823   7.670   7.588   3.462 -2.3083  0.6248 -0.4963
15717SOL     OW48824   0.261   4.464   2.855  0.0452  0.0137  0.2409
15717SOL    HW148825   0.332   4.403   2.873  0.8105  0.2558 -1.6957
15717SOL    HW248826   0.281   4.541   2.909  0.3138 -0.5540  0.9705
15718SOL     OW48827   2.814   6.157   7.087 -0.1797 -0.4880  0.1427
15718SOL    HW148828   2.723   6.127   7.082 -0.1193 -0.5565 -0.6809
15718SOL    HW248829   2.829   6.203   7.004  1.5079 -3.2619 -1.2155
15719SOL     OW48830   2.089   9.184   6.787  0.0904 -0.4387  0.6065
15719SOL    HW148831   2.121   9.208   6.700 -0.0882  0.6744  0.8262
15719SOL    HW248832   2.162   9.202   6.845  0.2097 -1.1845  0.6908
15720SOL     OW48833   1.485   0.153   5.764 -0.4832 -0.8932  0.8725
15720SOL    HW148834   1.417   0.196   5.712  0.4408  0.2488  0.5812
15720SOL    HW248835   1.470   0.059   5.749 -1.9633 -0.6709  0.7947
15721SOL     OW48836   3.713   9.385   4.600 -0.5814  0.0571 -0.4857
15721SOL    HW148837   3.807   9.381   4.582 -0.1146  0.5012  1.5469
15721SOL    HW248838   3.680   9.453   4.541  0.6005  0.6802 -0.4637
15722SOL     OW48839   0.559   5.303   1.222  0.5524 -0.0512  0.0911
15722SOL    HW148840   0.581   5.353   1.143  1.5702  2.0419  1.5885
15722SOL    HW248841   0.466   5.283   1.213  0.2510  1.5908 -0.9070
15723SOL     OW48842   1.164   5.478   4.113  0.1208 -0.2085 -0.6277
15723SOL    HW148843   1.207   5.392   4.112 -2.9884 -1.9299 -2.0878
15723SOL    HW248844   1.220   5.534   4.060  2.4166 -1.1862  0.6464
15724SOL     OW48845   7.835   4.995   8.256 -0.2577  0.6851 -0.3447
15724SOL    HW148846   7.806   5.085   8.245 -2.1825  0.1156 -0.2107
15724SOL    HW248847   7.856   4.987   8.349 -3.2767  0.1783  0.4003
15725SOL     OW48848   8.792   7.530   5.598 -0.3383  0.1123 -0.0437
15725SOL    HW148849   8.724   7.580   5.642  0.2235  1.7441 -0.9248
15725SOL    HW248850   8.846   7.495   5.669 -0.5035  1.1451  0.6059
15726SOL     OW48851   2.901   0.295   9.146 -0.0126 -0.1462 -0.1637
15726SOL    HW148852   2.850   0.278   9.067  0.1456  0.1403 -0.3290
15726SOL    HW248853   2.952   0.373   9.125  1.5689 -1.2301 -0.5103
15727SOL     OW48854   8.909   2.444   3.770 -0.1275  0.7539 -0.8265
15727SOL    HW148855   8.988   2.391   3.785  0.0649  1.5708  1.3769
15727SOL    HW248856   8.942   2.526   3.734  0.1148  1.2803  0.5478
15728SOL     OW48857   5.759   8.406   3.517 -0.6322  0.7769  0.0085
15728SOL    HW148858   5.794   8.364   3.438  0.6280 -0.3352  1.1175
15728SOL    HW248859   5.831   8.461   3.548 -1.0581  1.0718  0.4870
15729SOL     OW48860   2.039   4.524   5.969  0.5622  0.0136 -0.2413
15729SOL    HW148861   2.079   4.580   6.035 -0.1349  0.5016 -0.2118
15729SOL    HW248862   1.945   4.539   5.979  0.3686 -1.0796 -0.3217
15730SOL     OW48863   2.523   8.624   6.232  0.2887 -0.2125 -0.4165
15730SOL    HW148864   2.546   8.537   6.263  0.4308  0.0394  0.1971
15730SOL    HW248865   2.575   8.684   6.286 -0.4315  0.2889 -0.2578
15731SOL     OW48866   0.903   6.652   6.964 -0.4537 -0.4923  0.5723
15731SOL    HW148867   0.972   6.716   6.982 -0.4705 -0.6040  1.0370
15731SOL    HW248868   0.949   6.568   6.961 -0.3205 -0.3968 -0.7257
15732SOL     OW48869   7.218   3.510   4.265 -0.5054  0.0277 -0.5441
15732SOL    HW148870   7.176   3.533   4.182 -3.6836 -2.0178  0.2885
15732SOL    HW248871   7.223   3.414   4.263  1.8257  0.0620  0.5829
15733SOL     OW48872   7.355   8.408   5.779 -0.1107 -0.2111  0.2814
15733SOL    HW148873   7.406   8.487   5.760 -1.4198  1.0734  1.7208
15733SOL    HW248874   7.278   8.415   5.723 -0.1018 -0.6112  0.2173
15734SOL     OW48875   0.703   6.829   4.702  0.4779 -0.3327  0.6137
15734SOL    HW148876   0.748   6.886   4.764  0.6882  0.1660  0.0221
15734SOL    HW248877   0.756   6.835   4.622 -0.1459 -0.4457  0.1850
15735SOL     OW48878   6.071   4.573   6.576  0.5299  0.6037 -0.3484
15735SOL    HW148879   6.072   4.478   6.564 -0.6707  0.0920  2.7906
15735SOL    HW248880   5.997   4.603   6.523 -0.3692 -0.5183  0.2396
15736SOL     OW48881   5.293   6.940   1.203 -0.3571  0.0335  0.1205
15736SOL    HW148882   5.387   6.949   1.184  0.1792 -1.8318  1.5711
15736SOL    HW248883   5.258   6.898   1.124  0.2439 -0.2252 -0.0196
15737SOL     OW48884   2.123   3.072   2.648 -0.1010  0.1669 -0.1107
15737SOL    HW148885   2.160   3.153   2.612  0.0776 -0.0597 -0.4427
15737SOL    HW248886   2.034   3.095   2.674  0.0600  0.5552  0.1071
15738SOL     OW48887   1.686   9.190   5.148  0.6269 -0.4658 -0.1592
15738SOL    HW148888   1.735   9.231   5.077  0.4239 -0.9880 -0.6005
15738SOL    HW248889   1.606   9.243   5.155  0.9478 -0.0074  0.1339
15739SOL     OW48890   2.297   0.724   0.726 -0.0458 -0.2776  0.1920
15739SOL    HW148891   2.303   0.714   0.821 -1.7058 -2.7157  0.1485
15739SOL    HW248892   2.204   0.714   0.708  0.1471  0.8816 -1.6776
15740SOL     OW48893   1.203   4.997   8.068 -0.1072 -0.1553  0.0671
15740SOL    HW148894   1.287   5.039   8.086 -0.5180  1.6773 -1.8955
15740SOL    HW248895   1.221   4.934   7.999 -0.1880 -0.5141  0.3681
15741SOL     OW48896   6.983   7.672   6.167 -0.2383 -0.1395 -0.2884
15741SOL    HW148897   7.078   7.664   6.173 -0.0629  1.3858 -0.5398
15741SOL    HW248898   6.968   7.758   6.128 -1.7342 -0.2660 -0.0871
15742SOL     OW48899   6.698   3.776   1.798  0.2107  0.3949 -0.1726
15742SOL    HW148900   6.725   3.700   1.850 -1.4626 -0.5877 -0.6584
15742SOL    HW248901   6.762   3.780   1.726 -0.5380 -1.5229 -1.0017
15743SOL     OW48902   4.935   2.525   5.271  0.0475  0.3896  0.6740
15743SOL    HW148903   4.955   2.441   5.230  1.7530  1.2393 -0.3415
15743SOL    HW248904   4.920   2.584   5.197 -1.0128  1.0191  1.3766
15744SOL     OW48905   3.526   3.246   7.478  0.6424  0.0343  0.4663
15744SOL    HW148906   3.485   3.323   7.517  0.7436 -0.6887  2.1056
15744SOL    HW248907   3.493   3.244   7.388  0.0927  1.5812  0.5974
15745SOL     OW48908   1.320   4.953   0.148 -0.1507 -0.3549 -0.1128
15745SOL    HW148909   1.398   4.901   0.167 -0.0188 -0.0027  0.3109
15745SOL    HW248910   1.305   5.005   0.227 -0.2901  0.2385 -0.5190
15746SOL     OW48911   3.934   0.050   5.957 -0.5912 -0.1628 -0.2773
15746SOL    HW148912   4.013   0.103   5.945 -0.1502 -0.4933  0.9485
15746SOL    HW248913   3.912   0.061   6.050 -0.1602 -2.5152  0.1739
15747SOL     OW48914   8.092   7.178   4.046  0.2684  0.0259 -0.4035
15747SOL    HW148915   8.093   7.103   3.987  0.1102 -0.5936  0.3589
15747SOL    HW248916   8.014   7.165   4.100 -0.2634  1.2178 -0.8506
15748SOL     OW48917   4.542   7.241   2.202 -0.1836 -0.6687 -0.2956
15748SOL    HW148918   4.602   7.214   2.133  0.8877  0.7079  0.0665
15748SOL    HW248919   4.474   7.291   2.157  0.5513  0.2894 -0.3745
15749SOL     OW48920   6.252   0.110   3.602 -0.0470 -0.3423  0.1365
15749SOL    HW148921   6.159   0.095   3.616  0.1775 -0.5374  1.6774
15749SOL    HW248922   6.292   0.095   3.688  1.2467  0.9710 -0.1804
15750SOL     OW48923   0.185   4.070   1.779  0.5105  0.2124  0.2668
15750SOL    HW148924   0.102   4.066   1.826  0.9798  0.6963  1.1598
15750SOL    HW248925   0.169   4.132   1.707  0.2030  0.5917  0.6544
15751SOL     OW48926   0.455   4.213   0.255  0.2810 -0.4308  0.0787
15751SOL    HW148927   0.454   4.295   0.205 -1.5593 -1.0763 -1.0419
15751SOL    HW248928   0.497   4.236   0.337  2.3798  0.9551 -1.2723
15752SOL     OW48929   5.323   6.123   0.370 -0.4923 -0.4257  0.1451
15752SOL    HW148930   5.251   6.114   0.307 -0.7679  1.7689  0.0448
15752SOL    HW248931   5.394   6.163   0.319 -0.6064  1.0690  1.1092
15753SOL     OW48932   0.112   0.194   1.574  0.3971 -0.2418  0.4333
15753SOL    HW148933   0.192   0.226   1.532  0.0500  1.3185  0.9092
15753SOL    HW248934   0.042   0.244   1.532 -0.2094 -0.7243  0.8640
15754SOL     OW48935   4.399   5.305   7.165  0.7661 -0.4577  0.4405
15754SOL    HW148936   4.342   5.337   7.096  0.8010 -0.6965  0.3014
15754SOL    HW248937   4.488   5.323   7.133  0.7799 -0.4871  0.4626
15755SOL     OW48938   7.439   1.607   7.111  0.1598  0.0622 -0.9974
15755SOL    HW148939   7.510   1.569   7.163  0.0780 -0.2628 -1.1222
15755SOL    HW248940   7.478   1.685   7.071 -0.1878  1.1936  0.7403
15756SOL     OW48941   6.893   5.346   9.522  0.6361 -0.0457 -0.1056
15756SOL    HW148942   6.933   5.271   9.479  0.2796 -0.3466  0.0852
15756SOL    HW248943   6.800   5.339   9.503  0.5978  0.3425 -0.0783
15757SOL     OW48944   8.157   7.010   5.360 -0.0987  0.4200 -0.2179
15757SOL    HW148945   8.140   6.917   5.375 -0.2225  0.6376  1.0724
15757SOL    HW248946   8.191   7.014   5.271  0.4626 -0.9250 -0.0811
15758SOL     OW48947   1.464   0.239   1.629  0.3488 -0.6617  0.0665
15758SOL    HW148948   1.472   0.275   1.717  2.4614 -0.1964 -0.2616
15758SOL    HW248949   1.469   0.315   1.571  2.1664 -1.1793 -0.5363
15759SOL     OW48950   4.885   7.995   0.051 -0.2094 -0.1681 -0.5916
15759SOL    HW148951   4.857   8.086   0.056  0.2954 -0.0267 -0.2683
15759SOL    HW248952   4.862   7.968  -0.038  1.5496  0.9363 -1.4471
15760SOL     OW48953   4.209   7.260   7.215 -0.2396 -0.4987 -0.0943
15760SOL    HW148954   4.180   7.276   7.125 -1.4978 -1.0560  0.1932
15760SOL    HW248955   4.134   7.284   7.270 -0.0453 -1.6095  0.6965
15761SOL     OW48956   9.632   6.017   9.086  0.0461  0.7990 -0.2815
15761SOL    HW148957   9.566   6.081   9.113 -1.6039 -1.1999  0.6503
15761SOL    HW248958   9.693   6.013   9.160 -1.3449 -0.5790  0.8517
15762SOL     OW48959   5.524   2.696   4.649 -0.4515  0.5136  0.4752
15762SOL    HW148960   5.465   2.621   4.641  0.5043 -0.3770  1.4923
15762SOL    HW248961   5.581   2.674   4.723  1.8702  0.8776 -1.1286
15763SOL     OW48962   5.762   7.330   4.788  0.0373  0.1863  0.1592
15763SOL    HW148963   5.813   7.356   4.712  0.2597  0.6527  0.4600
15763SOL    HW248964   5.674   7.313   4.754 -0.0125  0.9495 -0.1150
15764SOL     OW48965   5.208   2.819   5.284 -0.0178  0.3527  0.7324
15764SOL    HW148966   5.140   2.872   5.242 -0.8951 -0.1906  1.4088
15764SOL    HW248967   5.245   2.877   5.351  0.0989  0.6062  0.4533
15765SOL     OW48968   5.785   6.982   3.682 -0.6032  0.5487 -0.3433
15765SOL    HW148969   5.860   7.038   3.663 -0.8467  0.2181 -2.4760
15765SOL    HW248970   5.815   6.926   3.754  0.4899  1.7226  0.1603
15766SOL     OW48971   9.292   6.678   2.942  0.1547  0.5290 -0.0026
15766SOL    HW148972   9.226   6.717   3.000  0.6673  1.1364  0.1876
15766SOL    HW248973   9.337   6.753   2.904  0.5881  0.1207 -0.2980
15767SOL     OW48974   4.648   2.947   6.068  0.2933  0.1268 -0.0161
15767SOL    HW148975   4.704   2.948   5.990  1.4790 -0.9017  0.7829
15767SOL    HW248976   4.635   2.854   6.088  0.0247  0.3720  1.0207
15768SOL     OW48977   8.766   6.280   0.787  0.3287  0.4593 -0.1486
15768SOL    HW148978   8.793   6.348   0.848  2.2956 -0.7998  0.4664
15768SOL    HW248979   8.848   6.242   0.755 -0.6813 -2.0200  0.0032
15769SOL     OW48980   4.668   5.091   4.622 -0.3403 -0.3777 -0.1286
15769SOL    HW148981   4.613   5.157   4.579 -2.6093 -2.0765  0.0217
15769SOL    HW248982   4.659   5.013   4.568  1.7179 -0.8384  0.1008
15770SOL     OW48983   5.630   8.768   9.353 -0.0424 -0.2151  0.3860
15770SOL    HW148984   5.653   8.859   9.372  2.7126 -1.1958  2.3524
15770SOL    HW248985   5.576   8.740   9.427 -1.2582 -0.1220 -0.4291
15771SOL     OW48986   4.202   9.116   1.670 -0.1813 -0.4051  0.4285
15771SOL    HW148987   4.232   9.025   1.671 -0.3712 -0.4948 -0.6700
15771SOL    HW248988   4.282   9.168   1.673 -0.0886 -0.5925  1.5523
15772SOL     OW48989   4.466   0.312   4.341  0.7449  0.4921 -0.3049
15772SOL    HW148990   4.421   0.394   4.363  2.4390  1.6227 -0.8279
15772SOL    HW248991   4.428   0.285   4.257 -0.9115 -0.1336  0.6052
15773SOL     OW48992   5.944   2.456   2.855  0.5820  1.2613  0.0317
15773SOL    HW148993   6.033   2.465   2.890  0.3785 -2.5589  2.1077
15773SOL    HW248994   5.949   2.383   2.795 -0.9643  1.7877 -0.7858
15774SOL     OW48995   3.327   5.902   8.723  0.1226  0.2021  0.5384
15774SOL    HW148996   3.282   5.986   8.718 -0.4543 -0.1427 -3.4012
15774SOL    HW248997   3.420   5.924   8.725 -0.0560  0.9065  1.2474
15775SOL     OW48998   8.314   0.326   3.166 -0.7729 -0.1696 -0.1811
15775SOL    HW148999   8.313   0.422   3.173 -1.1637 -0.2608  1.5891
15775SOL    HW249000   8.382   0.299   3.229 -0.9395 -1.0703 -0.3778
15776SOL     OW49001   9.592   8.743   9.018 -0.0396  0.0806  0.2784
15776SOL    HW149002   9.654   8.789   8.961  0.2753  0.6404  1.0493
15776SOL    HW249003   9.509   8.789   9.007  0.2631  0.8204  1.0114
15777SOL     OW49004   1.847   4.296   8.245  0.2378 -0.3958 -0.7134
15777SOL    HW149005   1.809   4.262   8.164  1.3418 -1.5393 -0.7937
15777SOL    HW249006   1.843   4.222   8.306  2.6364 -0.7257 -0.8575
15778SOL     OW49007   0.752   7.699   8.384  0.2263  0.4692  0.0681
15778SOL    HW149008   0.694   7.693   8.460 -1.0376 -0.1115 -0.8996
15778SOL    HW249009   0.786   7.789   8.387  1.2002  0.0866  1.9832
15779SOL     OW49010   3.407   3.702   5.178 -0.3514 -0.2524 -0.2421
15779SOL    HW149011   3.356   3.659   5.247 -0.6514  0.6408  0.1123
15779SOL    HW249012   3.493   3.660   5.182 -0.4952 -0.4935  0.4146
15780SOL     OW49013   3.383   9.382   5.423 -0.1703 -0.3497 -0.4613
15780SOL    HW149014   3.464   9.353   5.382  0.4462  2.3589 -1.3646
15780SOL    HW249015   3.398   9.371   5.517  1.4039  0.4365 -0.5907
15781SOL     OW49016   3.115   9.004   5.592  0.0315 -0.5423 -0.8564
15781SOL    HW149017   3.207   9.018   5.571 -0.1051  0.3307 -0.8768
15781SOL    HW249018   3.116   8.972   5.682  0.3489 -0.4906 -0.8391
15782SOL     OW49019   9.046   7.076   6.960  0.4030  0.7748  0.0194
15782SOL    HW149020   9.114   7.088   7.026 -0.0161  0.4932  0.5120
15782SOL    HW249021   9.067   7.139   6.891  2.4431 -0.8123 -0.8964
15783SOL     OW49022   3.425   1.696   6.123 -0.0608 -0.7132  0.1562
15783SOL    HW149023   3.431   1.626   6.188  1.9632  0.0691  0.9032
15783SOL    HW249024   3.434   1.652   6.039 -2.3674 -1.7039  0.3281
15784SOL     OW49025   3.797   8.709   1.647 -0.1896  0.2740 -0.4120
15784SOL    HW149026   3.730   8.758   1.599 -0.3373  0.7072  0.2289
15784SOL    HW249027   3.852   8.671   1.579 -1.1856 -0.2345 -0.9592
15785SOL     OW49028   7.414   0.412   2.447 -0.4190 -0.4564 -0.7470
15785SOL    HW149029   7.366   0.330   2.431  0.8793 -1.2826 -0.6308
15785SOL    HW249030   7.498   0.399   2.402  0.4844  0.1089  0.7044
15786SOL     OW49031   4.220   5.325   5.558 -0.3947  0.6691 -0.0145
15786SOL    HW149032   4.141   5.361   5.518 -0.3310 -0.0239 -0.7830
15786SOL    HW249033   4.278   5.307   5.484 -0.4080 -0.9613  0.3391
15787SOL     OW49034   5.102   2.807   2.145  0.1848 -0.1383 -0.1526
15787SOL    HW149035   5.093   2.844   2.057  0.7233 -2.5491 -1.2791
15787SOL    HW249036   5.019   2.764   2.162  0.9601 -1.8655 -0.5805
15788SOL     OW49037   4.409   6.446   0.104  0.3669 -0.6370  0.3250
15788SOL    HW149038   4.501   6.460   0.082  0.2154 -1.9042 -1.4083
15788SOL    HW249039   4.409   6.422   0.196  2.0904 -2.9112 -0.1843
15789SOL     OW49040   6.898   1.479   2.303  0.2421  0.5280 -0.4655
15789SOL    HW149041   6.817   1.450   2.345 -0.8656 -0.7353 -3.1748
15789SOL    HW249042   6.968   1.437   2.352 -0.6237  2.0044  2.2281
15790SOL     OW49043   1.468   3.558   9.286 -0.2483  0.2423 -0.0824
15790SOL    HW149044   1.474   3.594   9.198 -0.1005  0.3105 -0.0460
15790SOL    HW249045   1.386   3.593   9.321 -0.4624 -0.0396 -0.3024
15791SOL     OW49046   1.967   3.041   7.997 -0.0285 -0.0579  0.0664
15791SOL    HW149047   1.945   2.979   7.928 -2.5846 -1.0301  1.6071
15791SOL    HW249048   1.897   3.106   7.994  0.1132  0.1940  1.3771
15792SOL     OW49049   0.960   2.277   6.159  0.2905  0.1429  0.4674
15792SOL    HW149050   0.899   2.291   6.231  0.4503  0.5425  0.5288
15792SOL    HW249051   1.015   2.355   6.159  0.4567  0.0282  0.0754
15793SOL     OW49052   4.006   8.787   7.727  0.2343 -0.4942  0.0597
15793SOL    HW149053   4.064   8.812   7.798 -0.2520  0.4087  0.1518
15793SOL    HW249054   3.918   8.797   7.763 -0.0526  1.0139 -0.9858
15794SOL     OW49055   8.152   7.731   4.143  0.8470  0.2341  0.0071
15794SOL    HW149056   8.086   7.787   4.102  1.0720  0.6805  0.2369
15794SOL    HW249057   8.131   7.643   4.114  1.2637  0.5780 -1.4490
15795SOL     OW49058   2.797   4.174   3.645  0.2756 -0.2869  0.2329
15795SOL    HW149059   2.800   4.267   3.667  0.9175 -0.2016 -0.1677
15795SOL    HW249060   2.762   4.131   3.723  0.7020  0.2070  0.7018
15796SOL     OW49061   2.480   4.472   7.103 -0.0234 -0.6068  0.1432
15796SOL    HW149062   2.457   4.388   7.143 -0.0897 -1.0042 -0.7152
15796SOL    HW249063   2.515   4.449   7.017 -0.1577  0.2559 -0.1511
15797SOL     OW49064   5.115   2.046   7.649  0.5602  0.2440  0.2599
15797SOL    HW149065   5.124   2.139   7.668 -1.4619  0.4663  0.3700
15797SOL    HW249066   5.072   2.042   7.564 -1.5067 -0.4720  1.2510
15798SOL     OW49067   6.283   6.036   6.556 -0.4759  0.4014 -0.7396
15798SOL    HW149068   6.350   5.986   6.602 -1.4191 -0.8456 -0.6797
15798SOL    HW249069   6.216   6.054   6.623 -0.5540  1.0021 -0.9713
15799SOL     OW49070   6.442   4.919   5.990 -0.2142 -0.7133 -0.0560
15799SOL    HW149071   6.408   4.961   6.069  0.0843 -0.2228 -0.1827
15799SOL    HW249072   6.535   4.944   5.988 -0.5147  0.3731 -1.2652
15800SOL     OW49073   5.935   5.266   4.784 -0.2442 -0.0857 -0.2160
15800SOL    HW149074   5.950   5.342   4.727  0.0056 -0.3186 -0.4641
15800SOL    HW249075   5.865   5.217   4.741  2.2883 -2.1822 -2.3321
15801SOL     OW49076   4.248   0.396   8.421 -0.0006 -0.5296 -0.6034
15801SOL    HW149077   4.191   0.322   8.439  1.4117 -1.4493  0.2835
15801SOL    HW249078   4.334   0.358   8.404  1.2854  0.8902  1.9425
15802SOL     OW49079   8.195   4.593   0.686 -0.3658  0.5294  0.5562
15802SOL    HW149080   8.127   4.607   0.620 -0.3358 -0.1422  0.3794
15802SOL    HW249081   8.148   4.589   0.769 -0.4845  0.6256  0.4935
15803SOL     OW49082   9.094   7.154   7.268  0.0860  0.5613 -0.7190
15803SOL    HW149083   9.085   7.236   7.220 -1.6312 -0.1299 -1.6615
15803SOL    HW249084   9.186   7.130   7.258 -0.0376  0.8613 -3.0149
15804SOL     OW49085   8.455   6.071   6.774  0.0584  0.1829  0.1482
15804SOL    HW149086   8.530   6.123   6.744 -0.2363  0.3831 -0.2452
15804SOL    HW249087   8.381   6.104   6.723 -0.2473 -0.2042  0.3390
15805SOL     OW49088   2.986   5.646   6.835 -0.1639  0.3119  0.0480
15805SOL    HW149089   3.071   5.689   6.836  1.7097 -3.0807  1.6258
15805SOL    HW249090   2.925   5.715   6.807  3.1819  2.5624 -2.4257
15806SOL     OW49091   8.381   3.768   4.942  0.2157  0.8405 -0.2492
15806SOL    HW149092   8.405   3.713   4.867  3.6884  1.0116  0.5524
15806SOL    HW249093   8.345   3.848   4.903 -1.4614 -0.4636 -1.5283
15807SOL     OW49094   0.994   6.414   7.677  0.1961 -0.0104 -1.0380
15807SOL    HW149095   0.919   6.462   7.643  0.5504  0.9873 -0.4570
15807SOL    HW249096   1.014   6.350   7.609 -3.1957 -2.6380  0.1084
15808SOL     OW49097   7.330   2.017   1.862 -0.3631  0.1068  0.2643
15808SOL    HW149098   7.404   2.013   1.801 -1.3732 -0.3669 -0.9684
15808SOL    HW249099   7.282   2.095   1.835 -0.2631  0.4856  1.1437
15809SOL     OW49100   6.684   3.599   4.877 -0.4519  0.2210  0.9531
15809SOL    HW149101   6.717   3.688   4.872 -0.5909  0.2074 -1.3489
15809SOL    HW249102   6.761   3.544   4.860 -0.5778 -0.0472  1.2454
15810SOL     OW49103   0.223   4.153   6.786  0.4214 -0.3656 -0.0153
15810SOL    HW149104   0.165   4.088   6.746  0.5552 -0.8549  0.5642
15810SOL    HW249105   0.310   4.112   6.785  0.3571 -0.5578  1.1243
15811SOL     OW49106   1.953   2.669   2.663  0.1171  0.7507 -0.0929
15811SOL    HW149107   1.990   2.604   2.722 -1.7871  1.4984  2.0544
15811SOL    HW249108   1.949   2.624   2.578  0.1053 -1.4733  0.9989
15812SOL     OW49109   3.411   4.064   6.237 -0.4614 -0.2239 -0.2623
15812SOL    HW149110   3.506   4.057   6.233 -0.3049  1.0354  0.8226
15812SOL    HW249111   3.388   4.031   6.324 -0.8611  0.8520  0.0546
15813SOL     OW49112   8.776   4.823   4.990 -0.4459 -0.0314  0.6943
15813SOL    HW149113   8.772   4.883   4.914 -0.1793 -0.4961  0.3085
15813SOL    HW249114   8.863   4.837   5.027 -0.2960 -0.3489  0.4638
15814SOL     OW49115   3.088   3.714   0.361 -0.2716 -0.6321  0.0169
15814SOL    HW149116   3.119   3.779   0.299  0.3769 -0.4425  0.5305
15814SOL    HW249117   2.994   3.733   0.370  0.1175  1.0450  1.0861
15815SOL     OW49118   9.137   0.497   3.417 -0.5269 -0.3587  0.0620
15815SOL    HW149119   9.222   0.541   3.406  0.4625 -1.9749  0.9959
15815SOL    HW249120   9.073   0.568   3.411  0.9231  1.0097  0.0847
15816SOL     OW49121   2.930   7.587   1.120 -0.1326 -0.2321 -0.3000
15816SOL    HW149122   2.956   7.524   1.053  0.8315 -0.7247  0.5167
15816SOL    HW249123   2.966   7.670   1.091  0.9489 -0.5933 -0.0163
15817SOL     OW49124   3.294   8.986   9.160  0.0327  0.2490  0.4061
15817SOL    HW149125   3.364   8.976   9.224  0.4077  1.0161  0.1277
15817SOL    HW249126   3.291   8.902   9.114 -2.3346 -1.5352  3.4382
15818SOL     OW49127   1.399   3.177   4.620  0.4408  0.3736 -0.2371
15818SOL    HW149128   1.327   3.117   4.602  1.2207 -1.0075  1.0584
15818SOL    HW249129   1.402   3.184   4.715  0.9649  1.7478 -0.3338
15819SOL     OW49130   6.844   7.531   8.071 -0.5125  0.0960  0.1008
15819SOL    HW149131   6.814   7.500   7.986 -0.5416 -1.7062  0.7201
15819SOL    HW249132   6.793   7.611   8.088  0.8084  1.5681 -2.3289
15820SOL     OW49133   3.255   2.843   1.889 -0.2215  0.0995  0.1334
15820SOL    HW149134   3.295   2.890   1.816 -0.9783  2.2026  1.0050
15820SOL    HW249135   3.299   2.876   1.967 -1.7095  0.4127  0.8833
15821SOL     OW49136   6.538   8.360   5.543 -0.3204 -0.5430 -0.2101
15821SOL    HW149137   6.464   8.326   5.594 -1.2029 -1.1225 -1.8183
15821SOL    HW249138   6.606   8.376   5.608 -2.5830  2.2770  1.7059
15822SOL     OW49139   2.530   9.054   1.398 -0.2868  0.3647 -0.1553
15822SOL    HW149140   2.444   9.013   1.385  1.1244 -2.4811 -1.6801
15822SOL    HW249141   2.544   9.051   1.492 -1.1215 -0.8982 -0.0445
15823SOL     OW49142   6.764   9.332   8.167 -0.7004 -0.4052  0.0456
15823SOL    HW149143   6.744   9.240   8.149 -0.4658 -0.3226 -0.6848
15823SOL    HW249144   6.803   9.364   8.085 -2.3831  0.7887 -0.3439
15824SOL     OW49145   0.089   9.292   5.765  0.2966  0.1687 -0.2762
15824SOL    HW149146   0.103   9.365   5.826  0.4330 -0.8799  1.0072
15824SOL    HW249147   0.039   9.330   5.693  0.7127  1.6141  0.1622
15825SOL     OW49148   5.453   1.201   1.340 -0.2009 -0.0110  0.3403
15825SOL    HW149149   5.404   1.120   1.355  0.7100 -1.2290 -2.5742
15825SOL    HW249150   5.422   1.233   1.256  0.3970  2.0397  0.8282
15826SOL     OW49151   2.484   3.389   2.658  0.3810 -0.0583  0.3448
15826SOL    HW149152   2.568   3.356   2.625  0.6540  0.4935  0.4598
15826SOL    HW249153   2.488   3.375   2.752 -0.5253 -1.9109  0.1432
15827SOL     OW49154   8.286   8.002   6.964  0.3156  0.0378 -0.2545
15827SOL    HW149155   8.213   7.947   6.992  0.0750  0.0428 -0.8701
15827SOL    HW249156   8.314   8.047   7.044 -2.2484  2.2933 -0.4906
15828SOL     OW49157   6.406   8.186   6.400  0.1008 -0.3268 -0.4033
15828SOL    HW149158   6.388   8.173   6.493 -0.9639 -0.8747 -0.6655
15828SOL    HW249159   6.328   8.152   6.356  1.4749 -2.0772 -1.6085
15829SOL     OW49160   5.735   1.896   9.095 -0.1603 -0.0457 -0.1604
15829SOL    HW149161   5.701   1.974   9.139 -0.5262 -0.2375 -0.0960
15829SOL    HW249162   5.716   1.911   9.002 -0.3932 -0.1325 -0.1296
15830SOL     OW49163   8.339   0.444   8.834 -0.4337 -0.0820 -0.4680
15830SOL    HW149164   8.398   0.376   8.800 -1.3884 -0.5945 -1.1247
15830SOL    HW249165   8.254   0.423   8.797 -1.0642  0.6054  0.5353
15831SOL     OW49166   7.423   5.080   8.159  0.2397 -0.3397  0.0797
15831SOL    HW149167   7.412   4.985   8.156  0.9738 -0.4222 -0.2192
15831SOL    HW249168   7.517   5.093   8.172 -0.1002  0.3163  2.3290
15832SOL     OW49169   9.246   0.303   1.539 -0.7135  0.5084  0.5792
15832SOL    HW149170   9.194   0.377   1.506  1.1288  1.2604 -0.8360
15832SOL    HW249171   9.202   0.226   1.504 -0.0917  1.1975 -1.9343
15833SOL     OW49172   9.239   4.890   5.361 -0.0603  0.4144  0.1655
15833SOL    HW149173   9.307   4.947   5.397 -1.1103  2.7890 -1.3984
15833SOL    HW249174   9.205   4.842   5.437  1.3419  1.3477  1.4287
15834SOL     OW49175   9.564   3.769   2.059 -0.2448  0.0770 -0.3069
15834SOL    HW149176   9.514   3.817   2.124  0.4667  1.8040 -0.9541
15834SOL    HW249177   9.501   3.709   2.019 -0.7762 -0.7315  1.6547
15835SOL     OW49178   2.567   9.302   7.607  0.0504  0.0491  0.2437
15835SOL    HW149179   2.549   9.324   7.515  0.9273  0.0200  0.0615
15835SOL    HW249180   2.514   9.224   7.624  0.3169 -0.2790 -0.4068
15836SOL     OW49181   9.548   0.340   6.865 -0.4635  0.0428 -0.0101
15836SOL    HW149182   9.471   0.347   6.922  0.5002  0.8249  1.2531
15836SOL    HW249183   9.592   0.261   6.896 -0.2172  0.1705 -0.0358
15837SOL     OW49184   3.075   0.308   6.377  0.3520  0.0545  0.3667
15837SOL    HW149185   3.016   0.370   6.333 -0.1637  1.3560  2.6990
15837SOL    HW249186   3.018   0.259   6.436  1.3426  0.2115  1.4821
15838SOL     OW49187   6.982   7.328   3.029  0.0866 -0.1237  0.3246
15838SOL    HW149188   7.008   7.353   2.941  0.7168 -1.2470  0.1786
15838SOL    HW249189   7.006   7.403   3.084  0.2389  0.3371 -0.3630
15839SOL     OW49190   1.417   5.827   1.996 -0.2885  0.5470 -0.4799
15839SOL    HW149191   1.408   5.755   2.059 -0.8704  0.3295 -0.8106
15839SOL    HW249192   1.386   5.790   1.913 -1.9959  1.6174 -0.3563
15840SOL     OW49193   4.753   4.064   8.213 -0.0306  0.8354  0.1486
15840SOL    HW149194   4.671   4.015   8.227 -0.0648  0.8162 -0.1088
15840SOL    HW249195   4.736   4.150   8.250  0.5130  0.2334  1.8974
15841SOL     OW49196   3.662   8.222   0.727 -0.2758  0.0570  0.3984
15841SOL    HW149197   3.732   8.282   0.753  0.3027 -0.3777 -0.1366
15841SOL    HW249198   3.683   8.140   0.772  1.0720 -0.8919 -1.8094
15842SOL     OW49199   7.093   7.229   7.800 -0.0635 -0.0340  0.2200
15842SOL    HW149200   7.067   7.281   7.724  0.4971 -1.0411 -0.6979
15842SOL    HW249201   7.019   7.170   7.816  0.4374 -0.8889 -0.5433
15843SOL     OW49202   6.100   0.981   5.422 -0.1415 -0.0856  0.0075
15843SOL    HW149203   6.119   1.074   5.434  1.5671 -0.4017  0.0570
15843SOL    HW249204   6.169   0.949   5.363 -0.6665 -1.3296  0.0197
15844SOL     OW49205   6.950   8.527   1.860  0.2127  0.5070  0.1275
15844SOL    HW149206   6.941   8.593   1.930 -0.6964  0.1231  0.3826
15844SOL    HW249207   6.933   8.576   1.780  0.2328  0.7360  0.2609
15845SOL     OW49208   6.639   7.123   4.156 -0.2215  0.1977  0.4955
15845SOL    HW149209   6.648   7.182   4.231  1.2103  0.0538  0.4637
15845SOL    HW249210   6.727   7.089   4.142 -0.8994 -1.4854  0.1287
15846SOL     OW49211   0.051   8.602   1.045 -0.1399  0.3130 -0.3765
15846SOL    HW149212   0.095   8.517   1.049  0.0183  0.3954 -0.3471
15846SOL    HW249213   0.117   8.664   1.078 -0.8169  0.2403  1.1959
15847SOL     OW49214   4.033   7.933   2.193  0.1354  0.1000  0.1918
15847SOL    HW149215   4.021   7.848   2.234  0.2081 -0.7977 -1.5432
15847SOL    HW249216   3.960   7.986   2.226  1.1342  0.0248  2.7596
15848SOL     OW49217   8.704   8.741   1.635 -0.3822 -0.1371 -0.2853
15848SOL    HW149218   8.624   8.692   1.654  0.4101 -1.2102  0.3902
15848SOL    HW249219   8.727   8.782   1.718 -0.1140 -0.0122 -0.4218
15849SOL     OW49220   3.266   2.130   3.320  0.5822  0.5211 -0.3703
15849SOL    HW149221   3.346   2.077   3.315  0.4606  0.3920 -0.9715
15849SOL    HW249222   3.197   2.073   3.285  0.5225  1.2106 -1.4344
15850SOL     OW49223   7.078   2.284   5.093  0.0819  0.1735  0.7835
15850SOL    HW149224   7.088   2.357   5.031 -2.4429 -0.6343 -0.7256
15850SOL    HW249225   7.153   2.227   5.075 -0.8641 -0.3292 -2.0457
15851SOL     OW49226   1.875   7.103   5.038 -0.0082 -0.6200 -0.3622
15851SOL    HW149227   1.840   7.191   5.030  1.4217 -0.0544 -0.8479
15851SOL    HW249228   1.967   7.116   5.063  0.0761 -1.9809  0.1328
15852SOL     OW49229   7.163   9.117   8.270 -0.0437  0.2535 -0.0838
15852SOL    HW149230   7.121   9.107   8.356  0.7909 -0.7475  0.2251
15852SOL    HW249231   7.165   9.029   8.234  0.8230  0.4556 -0.5539
15853SOL     OW49232   6.616   0.528   7.534  0.3344  0.2550 -0.0125
15853SOL    HW149233   6.610   0.474   7.455  1.6859  1.0716 -0.6920
15853SOL    HW249234   6.544   0.591   7.525  0.7180  0.5968 -0.7991
15854SOL     OW49235   8.929   9.102   4.706  0.4127 -0.1425 -0.2648
15854SOL    HW149236   8.958   9.149   4.784  1.6836 -1.7230  0.2931
15854SOL    HW249237   9.003   9.107   4.646  0.2837 -0.7809 -0.4845
15855SOL     OW49238   0.979   9.190   7.297  0.2410  0.7219  0.2226
15855SOL    HW149239   0.908   9.155   7.242 -0.2894 -0.2585  1.4651
15855SOL    HW249240   1.035   9.238   7.237 -0.2693 -0.3849 -1.1850
15856SOL     OW49241   5.278   7.012   4.827  0.0260  0.2909 -0.2801
15856SOL    HW149242   5.356   6.965   4.797  0.8046  0.7396  0.9601
15856SOL    HW249243   5.271   7.086   4.767 -0.1742 -0.4082 -1.1464
15857SOL     OW49244   9.508   8.752   7.513 -0.3592  0.1510  0.3738
15857SOL    HW149245   9.431   8.776   7.462  0.8511 -0.1505 -1.7552
15857SOL    HW249246   9.561   8.832   7.514 -1.0716  0.6744  2.7081
15858SOL     OW49247   5.701   0.766   5.612 -0.5176 -0.3089 -0.0960
15858SOL    HW149248   5.671   0.823   5.542 -1.2722 -0.9630 -0.3183
15858SOL    HW249249   5.702   0.678   5.574  1.1544 -0.4088  0.0757
15859SOL     OW49250   1.427   1.624   3.057  0.8263 -0.2391  0.4279
15859SOL    HW149251   1.485   1.696   3.081  0.9240 -0.4776  0.9241
15859SOL    HW249252   1.453   1.553   3.115  0.6222 -0.6221  0.0490
15860SOL     OW49253   7.768   4.654   2.112 -0.0565 -0.1909  0.0589
15860SOL    HW149254   7.823   4.673   2.036  0.4602 -1.2780  0.1364
15860SOL    HW249255   7.693   4.607   2.076  0.8734 -1.9861  0.3303
15861SOL     OW49256   0.280   3.239   4.870  0.1745 -0.5749  0.0008
15861SOL    HW149257   0.280   3.170   4.804  0.4787 -0.5043 -0.0791
15861SOL    HW249258   0.283   3.193   4.954  3.0178 -0.6971 -0.0677
15862SOL     OW49259   3.876   0.271   0.517 -0.5081  0.0327  0.4404
15862SOL    HW149260   3.956   0.224   0.539  0.5587  1.6837  0.3256
15862SOL    HW249261   3.815   0.204   0.487  0.2794 -1.4644  2.0385
15863SOL     OW49262   2.481   5.461   1.076 -0.2559  0.2758  0.5689
15863SOL    HW149263   2.410   5.521   1.100 -0.0939  2.3951 -3.4302
15863SOL    HW249264   2.437   5.380   1.049 -1.2078  1.3169 -1.1777
15864SOL     OW49265   7.668   0.133   8.384  0.2388  0.4256 -0.1627
15864SOL    HW149266   7.728   0.142   8.310  0.2072 -1.3522 -0.4448
15864SOL    HW249267   7.708   0.066   8.439 -1.2392 -0.4741 -0.1383
15865SOL     OW49268   8.984   2.370   1.612 -0.3296 -0.1079  0.1953
15865SOL    HW149269   9.016   2.421   1.537 -3.2240 -0.3306 -1.3074
15865SOL    HW249270   8.981   2.280   1.580  1.7965 -0.8402  1.8329
15866SOL     OW49271   1.941   0.134   3.169  0.5822  0.0578  0.2960
15866SOL    HW149272   1.945   0.223   3.204 -0.6717  0.0859  0.4123
15866SOL    HW249273   1.861   0.133   3.116  0.3804 -1.1049  0.5987
15867SOL     OW49274   1.719   7.625   7.038  0.1185 -0.0765 -0.5155
15867SOL    HW149275   1.754   7.545   7.000  0.9573  0.9495 -2.0004
15867SOL    HW249276   1.666   7.596   7.112  1.8751 -1.8606  0.1007
15868SOL     OW49277   0.862   4.756   8.407 -0.1625 -0.1548  0.2679
15868SOL    HW149278   0.938   4.720   8.453  0.8745 -0.5198 -1.6198
15868SOL    HW249279   0.891   4.763   8.315 -1.4553  2.3332 -0.0381
15869SOL     OW49280   8.032   2.472   2.327 -0.1349  0.0388  0.5112
15869SOL    HW149281   8.104   2.534   2.317 -1.2210  0.9612 -2.7638
15869SOL    HW249282   7.954   2.526   2.330 -0.9233 -1.0690  0.6985
15870SOL     OW49283   9.628   7.253   8.798 -0.4815 -0.2016  0.1089
15870SOL    HW149284   9.564   7.183   8.814 -1.6620  0.6026 -0.9159
15870SOL    HW249285   9.618   7.312   8.873 -1.1953  0.0791 -0.1939
15871SOL     OW49286   3.858   2.500   4.690 -0.3713 -0.2366 -0.2078
15871SOL    HW149287   3.871   2.526   4.782 -0.8728  0.6457 -0.3716
15871SOL    HW249288   3.808   2.572   4.652  1.6096  0.4349 -1.7232
15872SOL     OW49289   4.527   8.959   4.762  0.2221  0.8831 -0.2627
15872SOL    HW149290   4.464   9.029   4.773 -1.8185 -0.9317  0.3090
15872SOL    HW249291   4.496   8.910   4.686  0.2909 -0.6639  0.6644
15873SOL     OW49292   6.836   7.513   0.892 -0.2392 -0.4047 -0.2185
15873SOL    HW149293   6.767   7.577   0.872 -0.8624 -1.1371 -0.4417
15873SOL    HW249294   6.809   7.475   0.976 -1.4677 -2.4666 -1.4612
15874SOL     OW49295   4.007   9.081   2.341  0.2932 -0.1018 -0.5625
15874SOL    HW149296   4.096   9.105   2.317  0.1839  1.3520  0.3786
15874SOL    HW249297   3.952   9.146   2.297 -0.2166 -0.2780 -0.1935
15875SOL     OW49298   8.583   1.353   1.773 -0.8771  0.1742  0.5187
15875SOL    HW149299   8.572   1.271   1.820 -0.8525  0.0024  0.2285
15875SOL    HW249300   8.510   1.407   1.801 -0.3105  0.4472  1.5214
15876SOL     OW49301   4.215   0.423   3.812 -0.1054  0.3811  0.0536
15876SOL    HW149302   4.230   0.503   3.862 -0.3648  1.2692 -1.2400
15876SOL    HW249303   4.196   0.453   3.724  0.5091 -1.1475 -0.6346
15877SOL     OW49304   0.122   8.869   0.063  0.1667 -0.5001  0.8394
15877SOL    HW149305   0.135   8.953   0.108 -0.2837 -0.3548  0.7016
15877SOL    HW249306   0.029   8.868   0.042  0.3363 -0.6569  0.0834
15878SOL     OW49307   3.446   7.972   7.596 -0.0443 -0.0749 -0.5230
15878SOL    HW149308   3.481   8.028   7.527 -0.2774 -2.0213 -2.3276
15878SOL    HW249309   3.387   7.911   7.550 -0.9406 -0.8552  1.5293
15879SOL     OW49310   9.616   7.655   0.486  0.7675  0.1347 -0.0202
15879SOL    HW149311   9.635   7.719   0.418  0.2284  1.2231  0.8371
15879SOL    HW249312   9.682   7.586   0.473  0.0516 -0.2035 -2.2721
15880SOL     OW49313   5.438   4.658   2.260 -0.2341  0.0296  0.1826
15880SOL    HW149314   5.484   4.742   2.254 -1.2992  0.5418 -2.8671
15880SOL    HW249315   5.507   4.593   2.270  0.6824  1.1389  1.5130
15881SOL     OW49316   0.918   3.446   4.921  0.3753 -0.6116 -0.0134
15881SOL    HW149317   0.967   3.364   4.931 -0.1754 -1.1002 -1.1191
15881SOL    HW249318   0.978   3.504   4.875  0.3173 -0.8379 -0.3814
15882SOL     OW49319   5.071   6.686   7.057 -0.1266  0.1684  0.4241
15882SOL    HW149320   4.978   6.707   7.063 -0.9098 -1.6820 -2.7575
15882SOL    HW249321   5.097   6.663   7.146 -3.2815 -1.3023  1.0851
15883SOL     OW49322   6.451   8.543   6.390  0.4693  0.5183  0.6937
15883SOL    HW149323   6.495   8.624   6.417 -0.8653  0.8899  1.8581
15883SOL    HW249324   6.509   8.473   6.421  1.5255  1.0017 -0.1354
15884SOL     OW49325   1.257   5.506   9.273  0.1242  0.3939  0.6249
15884SOL    HW149326   1.273   5.435   9.335  0.0358 -0.3321 -0.1571
15884SOL    HW249327   1.267   5.586   9.324  3.3365 -0.0592  0.8741
15885SOL     OW49328   8.445   7.479   1.514  0.6235 -0.3987 -0.0547
15885SOL    HW149329   8.477   7.569   1.516 -0.4550  0.0212 -0.7318
15885SOL    HW249330   8.391   7.470   1.593 -1.1160  0.3020 -1.0992
15886SOL     OW49331   4.250   2.954   1.140  0.3052 -0.3783 -0.1133
15886SOL    HW149332   4.249   2.976   1.233 -0.5743 -2.8111  0.5359
15886SOL    HW249333   4.343   2.950   1.117  0.6240 -1.8000  1.2520
15887SOL     OW49334   4.857   1.823   7.206 -0.6696  0.4873 -0.2820
15887SOL    HW149335   4.802   1.831   7.284 -0.7547 -1.6516 -0.0803
15887SOL    HW249336   4.803   1.773   7.144  1.2672 -2.4581  0.2363
15888SOL     OW49337   2.745   4.626   0.415  0.0583  0.3930 -0.5208
15888SOL    HW149338   2.811   4.643   0.483  0.5373  0.1337 -0.9125
15888SOL    HW249339   2.776   4.546   0.371 -1.8598 -1.2567  0.9432
15889SOL     OW49340   4.673   8.214   9.326 -0.4266  0.0102 -0.3134
15889SOL    HW149341   4.635   8.262   9.400 -0.4548  0.2964 -0.5116
15889SOL    HW249342   4.604   8.214   9.260  0.7779  2.9297 -1.7627
15890SOL     OW49343   6.146   3.887   0.972  0.0990 -0.0700  0.0361
15890SOL    HW149344   6.063   3.935   0.970  0.0248 -0.1236  1.3614
15890SOL    HW249345   6.170   3.883   1.064  2.3366  1.2088 -0.4110
15891SOL     OW49346   0.381   4.144   2.723 -0.4571 -0.2268  0.4395
15891SOL    HW149347   0.334   4.068   2.688 -0.3077  0.7628 -2.2124
15891SOL    HW249348   0.337   4.220   2.683  1.5258  0.8732  0.2042
15892SOL     OW49349   2.325   9.129   8.216 -0.0073  0.7151  0.4573
15892SOL    HW149350   2.294   9.216   8.191  1.8552  1.1388 -0.5825
15892SOL    HW249351   2.315   9.127   8.311 -0.5182  1.8901  0.4523
15893SOL     OW49352   4.753   5.330   0.467  0.1826 -0.1151 -0.1921
15893SOL    HW149353   4.776   5.237   0.463 -1.5722 -0.6091  0.3356
15893SOL    HW249354   4.781   5.359   0.553 -0.5681 -0.5414  0.2007
15894SOL     OW49355   1.748   3.837   7.920  0.2753 -0.4820  0.0778
15894SOL    HW149356   1.714   3.765   7.973 -0.5104 -0.8423 -0.8825
15894SOL    HW249357   1.824   3.800   7.875 -1.2585 -1.3663 -1.9225
15895SOL     OW49358   9.396   7.172   0.357 -0.1149 -0.5428  0.1939
15895SOL    HW149359   9.462   7.233   0.322 -0.2864 -1.0935 -1.1384
15895SOL    HW249360   9.434   7.140   0.439  0.9318 -0.2777 -0.1784
15896SOL     OW49361   6.625   6.545   2.404 -0.2479 -0.3505 -0.4295
15896SOL    HW149362   6.646   6.458   2.373 -1.4144 -1.2874  1.2300
15896SOL    HW249363   6.532   6.542   2.425  0.2392  0.3456  2.3607
15897SOL     OW49364   7.709   9.532   1.554  0.0632 -0.4778 -0.0512
15897SOL    HW149365   7.671   9.469   1.615  0.4076 -1.9698 -1.3128
15897SOL    HW249366   7.740   9.479   1.480 -1.2783  1.3227 -2.0327
15898SOL     OW49367   8.731   2.009   1.476 -0.0327  0.5407  0.0110
15898SOL    HW149368   8.666   2.071   1.508  0.3175  0.7628  0.2998
15898SOL    HW249369   8.753   2.039   1.388 -0.2986  0.4818 -0.0755
15899SOL     OW49370   1.563   4.203   4.207  0.5219  0.3636  0.2049
15899SOL    HW149371   1.554   4.230   4.116 -2.3007  1.9980  0.8477
15899SOL    HW249372   1.511   4.123   4.213  1.3132 -0.1564  0.2566
15900SOL     OW49373   4.078   3.068   7.662  0.3296  0.1654 -0.2388
15900SOL    HW149374   4.089   3.089   7.570  1.8348  1.0316  0.1069
15900SOL    HW249375   4.003   3.009   7.665  1.3109 -1.2606 -2.1881
15901SOL     OW49376   3.746   2.063   6.326  0.3970  0.4045  0.5095
15901SOL    HW149377   3.837   2.078   6.301  0.7885  0.2154  1.7640
15901SOL    HW249378   3.735   1.968   6.319  0.5608  0.3319  1.2070
15902SOL     OW49379   2.200   8.232   2.992 -0.0209 -0.5748 -0.0778
15902SOL    HW149380   2.255   8.213   2.916  0.0195  1.1992 -0.5172
15902SOL    HW249381   2.124   8.176   2.980  0.0071 -0.3719 -1.4121
15903SOL     OW49382   9.588   8.905   3.954 -0.7160 -0.3276  0.0179
15903SOL    HW149383   9.602   8.822   3.908  1.4216 -1.1020  1.8938
15903SOL    HW249384   9.495   8.922   3.945 -1.1438 -2.7447 -0.7539
15904SOL     OW49385   7.721   5.998   8.596  0.0316  0.1526 -0.2146
15904SOL    HW149386   7.633   6.027   8.619  0.5064  2.7364 -1.3406
15904SOL    HW249387   7.710   5.948   8.515 -0.5649 -1.1902  0.6560
15905SOL     OW49388   5.915   8.934   1.636  0.2823 -0.0256 -0.0208
15905SOL    HW149389   5.957   8.857   1.597 -1.1544 -1.8108  1.7471
15905SOL    HW249390   5.833   8.943   1.588  0.1796  0.0369  0.1664
15906SOL     OW49391   1.681   3.786   9.271 -0.7086 -0.2317 -0.0008
15906SOL    HW149392   1.699   3.705   9.223  2.1077  0.3458 -0.1124
15906SOL    HW249393   1.741   3.783   9.346  0.1956  2.1188 -0.5283
15907SOL     OW49394   4.409   1.692   1.447 -0.3154  0.2175 -0.2622
15907SOL    HW149395   4.333   1.634   1.444 -0.3279  0.2307 -0.2129
15907SOL    HW249396   4.373   1.777   1.473 -0.1108 -0.0873  1.0920
15908SOL     OW49397   8.721   1.071   2.424 -0.1369  0.5162  0.5003
15908SOL    HW149398   8.727   1.097   2.332  0.7320  1.2258  0.7415
15908SOL    HW249399   8.810   1.042   2.446 -0.5515 -0.5024  0.8753
15909SOL     OW49400   8.395   2.938   2.526  0.1602  0.1843 -0.4854
15909SOL    HW149401   8.389   3.033   2.520 -0.6238  0.1405 -0.4478
15909SOL    HW249402   8.464   2.922   2.591  0.1140  0.7236 -0.3041
15910SOL     OW49403   5.634   1.746   6.618 -0.1254 -0.6165  0.7447
15910SOL    HW149404   5.720   1.780   6.640 -0.0730 -1.1519  1.3960
15910SOL    HW249405   5.650   1.659   6.581 -0.3112 -0.2588 -0.2141
15911SOL     OW49406   9.380   4.717   5.139 -0.0584 -0.1391 -0.6362
15911SOL    HW149407   9.328   4.792   5.165 -0.3120 -0.3050 -0.6684
15911SOL    HW249408   9.364   4.651   5.206 -0.0455 -0.2604 -0.7513
15912SOL     OW49409   0.069   7.944   7.850  0.0298  0.1636  0.4434
15912SOL    HW149410   0.073   7.855   7.884  0.2705  0.9481  2.5625
15912SOL    HW249411  -0.020   7.953   7.816  0.3573 -1.2288 -0.8793
15913SOL     OW49412   4.593   3.932   7.545  0.1891 -0.3046  0.1010
15913SOL    HW149413   4.621   3.859   7.600  0.8168 -0.0596  0.1201
15913SOL    HW249414   4.656   3.932   7.472 -0.2896 -0.2744 -0.3190
15914SOL     OW49415   4.665   6.015   9.013 -0.0749  0.4009 -0.0710
15914SOL    HW149416   4.753   6.052   9.015 -0.0802  0.4616  2.2673
15914SOL    HW249417   4.679   5.920   9.019 -0.1678  0.2865 -1.3588
15915SOL     OW49418   7.253   6.418   3.321  0.1594  0.6977 -0.2789
15915SOL    HW149419   7.180   6.475   3.348  0.4835  1.4245 -0.9057
15915SOL    HW249420   7.274   6.447   3.233  1.5302  0.8125  0.0706
15916SOL     OW49421   5.720   8.054   5.260 -0.2134 -0.2679  0.2467
15916SOL    HW149422   5.723   7.969   5.304  0.7256 -0.1658  0.3966
15916SOL    HW249423   5.708   8.033   5.168  1.2510 -0.6210  0.1196
15917SOL     OW49424   0.572   0.761   6.683 -0.0601  0.5063 -0.7226
15917SOL    HW149425   0.639   0.806   6.631  0.6835  0.6217  0.2907
15917SOL    HW249426   0.591   0.787   6.773 -1.3156  0.3190 -0.3809
15918SOL     OW49427   9.162   5.512   4.652 -0.2907 -0.0389 -0.4495
15918SOL    HW149428   9.255   5.521   4.671 -0.3997  0.4204 -0.1074
15918SOL    HW249429   9.146   5.418   4.656  0.1536 -0.1191 -0.4911
15919SOL     OW49430   2.887   6.559   0.239 -0.3032  0.4129 -0.1223
15919SOL    HW149431   2.933   6.494   0.291 -1.9407 -1.1784 -0.5684
15919SOL    HW249432   2.862   6.627   0.302  1.5124  0.7016  0.3279
15920SOL     OW49433   3.935   1.574   5.141  0.6598  0.3507  0.1947
15920SOL    HW149434   3.924   1.669   5.143 -1.2620  0.2173 -1.1407
15920SOL    HW249435   3.912   1.545   5.229  1.9775  1.1447  0.8300
15921SOL     OW49436   8.882   6.423   5.191 -0.0642  0.2307 -0.0316
15921SOL    HW149437   8.866   6.513   5.163 -2.5203  0.0350  0.5357
15921SOL    HW249438   8.915   6.378   5.113 -1.1844  1.0487 -1.0025
15922SOL     OW49439   3.415   8.684   3.312  0.0701  0.5405  0.1849
15922SOL    HW149440   3.328   8.723   3.311 -0.8983 -1.5160  0.2634
15922SOL    HW249441   3.444   8.687   3.221  0.0377  1.3916  0.1880
15923SOL     OW49442   7.982   2.877   5.414 -0.0076  0.1586 -0.1936
15923SOL    HW149443   8.074   2.875   5.386 -0.1060  0.0959 -0.5169
15923SOL    HW249444   7.934   2.902   5.336 -0.3010 -0.1581 -0.1183
15924SOL     OW49445   9.497   2.763   2.249  0.0027 -0.2750  0.5461
15924SOL    HW149446   9.582   2.749   2.208 -0.3289 -5.4554  0.9701
15924SOL    HW249447   9.493   2.697   2.319 -3.1507  1.8989  2.7070
15925SOL     OW49448   6.640   8.247   4.286  0.6299  0.8306  0.4301
15925SOL    HW149449   6.571   8.280   4.345  0.6964  0.9463  0.4441
15925SOL    HW249450   6.595   8.234   4.203  0.3793  0.0049  0.6882
15926SOL     OW49451   1.909   4.602   1.055  0.2952  0.4166 -0.5894
15926SOL    HW149452   1.903   4.536   0.987  1.3205 -0.1392 -0.1725
15926SOL    HW249453   1.985   4.575   1.108 -1.8248 -0.5160  2.2131
15927SOL     OW49454   1.043   8.185   5.977  0.3145 -0.0501 -0.3420
15927SOL    HW149455   1.080   8.194   5.890  1.2263 -0.9259 -0.0519
15927SOL    HW249456   1.118   8.187   6.036 -0.1781 -0.7700  0.3338
15928SOL     OW49457   4.517   9.551   5.074 -0.1143  0.4930  0.3473
15928SOL    HW149458   4.472   9.577   5.154 -0.4251  1.4521 -0.1241
15928SOL    HW249459   4.466   9.591   5.003  0.8022  0.6190 -0.2615
15929SOL     OW49460   8.739   3.162   2.436 -0.0612 -0.0299  0.3195
15929SOL    HW149461   8.714   3.074   2.408  0.2449  0.0712 -0.2889
15929SOL    HW249462   8.686   3.220   2.381  1.4816  0.1903 -1.0238
15930SOL     OW49463   8.286   3.181   7.986 -0.6448  0.4157  0.1798
15930SOL    HW149464   8.210   3.216   7.938  1.0457  0.1443 -3.0154
15930SOL    HW249465   8.360   3.231   7.952  0.6887  0.9184  3.4628
15931SOL     OW49466   9.663   1.987   1.202 -0.3760 -0.2156  0.4808
15931SOL    HW149467   9.614   1.905   1.203  0.2277 -0.6759 -1.8061
15931SOL    HW249468   9.731   1.974   1.135 -1.3621  2.7366 -1.2970
15932SOL     OW49469   7.797   5.192   3.050 -0.2357 -0.1559 -0.7427
15932SOL    HW149470   7.793   5.248   2.972 -1.5456  1.0634  0.1386
15932SOL    HW249471   7.890   5.188   3.072 -0.1673  3.6331  0.4202
15933SOL     OW49472   9.467   4.786   5.655 -0.0401 -0.1511 -0.5755
15933SOL    HW149473   9.438   4.877   5.658  1.8338  0.4600  1.0150
15933SOL    HW249474   9.402   4.738   5.707  0.0007  0.6279  0.2198
15934SOL     OW49475   8.731   0.764   2.318 -0.1156  0.7445  0.1603
15934SOL    HW149476   8.800   0.819   2.283 -0.2456  0.0664 -1.2101
15934SOL    HW249477   8.689   0.725   2.241 -1.2747  0.2468  1.0115
15935SOL     OW49478   8.936   8.231   9.166 -0.0011 -0.1376 -0.9553
15935SOL    HW149479   8.920   8.294   9.236  2.5340 -0.2573 -0.1531
15935SOL    HW249480   8.886   8.153   9.191  0.7982 -0.1600  0.7535
15936SOL     OW49481   4.564   3.242   3.015 -0.1729  0.1910  0.0461
15936SOL    HW149482   4.630   3.293   3.060 -0.9037 -0.3722  1.8348
15936SOL    HW249483   4.612   3.166   2.981  0.0700 -0.4026  1.6388
15937SOL     OW49484   9.377   4.094   7.565 -0.4492  0.8968 -0.2662
15937SOL    HW149485   9.291   4.136   7.562 -0.6067  0.9261  2.2007
15937SOL    HW249486   9.432   4.154   7.615  0.6986  0.3512 -0.8128
15938SOL     OW49487   7.317   1.513   2.289  0.1571 -0.0120  0.1102
15938SOL    HW149488   7.275   1.579   2.235  0.0822  0.4724  0.7460
15938SOL    HW249489   7.378   1.467   2.230  0.3053  0.7093 -0.3010
15939SOL     OW49490   2.020   5.673   1.238 -0.0519  0.1904 -0.1552
15939SOL    HW149491   2.016   5.697   1.330  1.2092  1.4953 -0.4059
15939SOL    HW249492   1.945   5.718   1.198 -1.5558 -1.6472  0.4406
15940SOL     OW49493   7.074   5.596   2.420  0.1040 -0.3007 -0.3491
15940SOL    HW149494   7.151   5.551   2.384  1.1289  0.7907  0.4338
15940SOL    HW249495   7.027   5.627   2.343  2.1517  1.8073 -0.8490
15941SOL     OW49496   5.129   7.446   3.973  0.1080  0.0640 -0.0643
15941SOL    HW149497   5.126   7.352   3.955  0.4140 -0.2875  1.6046
15941SOL    HW249498   5.152   7.485   3.889 -1.2559 -1.2309 -1.0917
15942SOL     OW49499   2.697   4.971   0.549  0.7209  0.2333 -0.2083
15942SOL    HW149500   2.709   4.977   0.455 -0.1093 -0.3395 -0.3575
15942SOL    HW249501   2.753   4.897   0.575  1.2597  0.6458 -0.1898
15943SOL     OW49502   1.660   7.681   3.787  0.0458  0.1436  0.1144
15943SOL    HW149503   1.594   7.617   3.813  0.0429 -0.4972 -1.3815
15943SOL    HW249504   1.715   7.692   3.864  0.8666 -2.6953  0.0445
15944SOL     OW49505   4.618   5.718   5.748  0.2328  0.1169 -0.0560
15944SOL    HW149506   4.667   5.778   5.691  1.0185 -0.8014 -0.3805
15944SOL    HW249507   4.562   5.669   5.689 -1.9141  1.8360  0.4077
15945SOL     OW49508   4.825   7.814   6.940  0.2944 -0.1238  0.3790
15945SOL    HW149509   4.846   7.860   7.021 -0.5498 -0.2951  0.7120
15945SOL    HW249510   4.885   7.850   6.875  2.6288 -1.6268  1.5623
15946SOL     OW49511   1.494   1.292   9.068  0.2419 -0.4049 -0.6987
15946SOL    HW149512   1.554   1.224   9.036 -0.2518 -0.7560 -0.8784
15946SOL    HW249513   1.547   1.342   9.130  0.0564 -2.1813  1.0028
15947SOL     OW49514   6.048   7.138   8.146 -0.2405  0.3022 -0.3672
15947SOL    HW149515   6.120   7.075   8.138 -0.3140  0.3302 -1.2481
15947SOL    HW249516   6.035   7.171   8.058 -1.4455  0.1782 -0.2445
15948SOL     OW49517   2.936   8.631   3.405  0.4542 -0.5432 -0.3999
15948SOL    HW149518   3.004   8.622   3.472  2.1619  2.6431 -1.4802
15948SOL    HW249519   2.885   8.706   3.432  0.6080  0.2535 -2.1440
15949SOL     OW49520   0.612   0.893   0.061 -0.3100  0.6783 -0.3268
15949SOL    HW149521   0.670   0.961   0.097 -0.7233  1.3049 -0.8231
15949SOL    HW249522   0.671   0.822   0.038 -0.0021  0.3459  1.3462
15950SOL     OW49523   9.027   3.007   3.715  0.3921 -0.3034  0.3081
15950SOL    HW149524   8.949   2.970   3.672  0.9494 -0.7733 -0.3125
15950SOL    HW249525   9.097   2.997   3.650  0.4047  2.6529 -0.3055
15951SOL     OW49526   4.254   1.535   4.373  0.0375  0.2001 -0.1741
15951SOL    HW149527   4.229   1.609   4.318 -1.0707  0.4308  0.6003
15951SOL    HW249528   4.316   1.571   4.436 -0.8983  0.6216  0.5348
15952SOL     OW49529   7.618   8.991   7.121 -0.7969  0.0973  0.0850
15952SOL    HW149530   7.689   9.053   7.139 -0.9535  0.1757  0.4332
15952SOL    HW249531   7.660   8.905   7.124 -0.9586  0.0416  1.6390
15953SOL     OW49532   8.588   4.155   8.340  0.3987  0.4233 -0.0134
15953SOL    HW149533   8.624   4.067   8.335  2.2642  0.9171  2.7479
15953SOL    HW249534   8.501   4.147   8.301  0.1824 -2.8124  0.8371
15954SOL     OW49535   0.671   1.805   7.342  0.1508 -0.4626  0.4618
15954SOL    HW149536   0.670   1.768   7.253  0.0439  0.2100  0.1733
15954SOL    HW249537   0.751   1.770   7.381  0.3443 -0.5452 -0.0002
15955SOL     OW49538   6.360   1.639   6.972 -0.4349  0.6714  0.1339
15955SOL    HW149539   6.365   1.613   6.880 -1.4983  1.4345 -0.1545
15955SOL    HW249540   6.267   1.653   6.988 -0.1950  1.2046  1.1428
15956SOL     OW49541   3.844   2.269   5.610  0.1232  0.3067 -0.4771
15956SOL    HW149542   3.937   2.289   5.620  0.4267 -0.7761 -1.0361
15956SOL    HW249543   3.829   2.196   5.670 -0.2185  0.0564 -0.8647
15957SOL     OW49544   9.047   0.621   9.407 -0.2270  0.1209  0.2648
15957SOL    HW149545   8.991   0.644   9.481 -0.0355 -2.3673  1.2524
15957SOL    HW249546   8.985   0.594   9.338 -0.3289 -0.0876  0.4370
15958SOL     OW49547   8.154   3.674   9.173  0.5843  0.6118 -0.1636
15958SOL    HW149548   8.141   3.765   9.144  1.3505  0.9438  0.4928
15958SOL    HW249549   8.066   3.644   9.196  0.5104  1.7513  1.1847
15959SOL     OW49550   9.037   2.119   1.838 -0.4918 -0.0358 -0.3120
15959SOL    HW149551   9.119   2.069   1.846 -0.9451 -0.6446  0.7823
15959SOL    HW249552   9.019   2.120   1.744  1.7101  1.7003 -0.7904
15960SOL     OW49553   3.511   5.361   5.927 -0.0412  0.2882  0.1377
15960SOL    HW149554   3.514   5.371   6.022 -0.2163  0.4545  0.1245
15960SOL    HW249555   3.429   5.316   5.910  0.1083  0.0326  0.0845
15961SOL     OW49556   6.428   5.252   1.446  0.4571  0.2207 -0.7479
15961SOL    HW149557   6.438   5.170   1.399 -1.5316 -0.8702  0.5748
15961SOL    HW249558   6.488   5.244   1.521  0.2583 -0.0585 -0.6142
15962SOL     OW49559   9.172   4.096   9.418  0.7439  0.6076  0.1584
15962SOL    HW149560   9.248   4.050   9.456 -0.8795 -0.4959  2.3182
15962SOL    HW249561   9.182   4.085   9.324  2.2712 -1.1666  0.4648
15963SOL     OW49562   8.453   7.102   1.244  0.0931 -0.0331  0.2750
15963SOL    HW149563   8.380   7.117   1.185  1.4068  2.7131 -0.8181
15963SOL    HW249564   8.516   7.052   1.193  0.1438  0.0724  0.2337
15964SOL     OW49565   2.218   5.597   5.088 -0.2774 -0.8874 -0.4352
15964SOL    HW149566   2.129   5.612   5.118  0.2595 -0.4698  1.0503
15964SOL    HW249567   2.209   5.537   5.014 -1.9198  0.7208 -1.6236
15965SOL     OW49568   1.330   8.244   3.285  0.0252 -0.1762 -0.0860
15965SOL    HW149569   1.356   8.160   3.323 -0.1847 -0.7847 -1.2560
15965SOL    HW249570   1.237   8.232   3.265 -0.8957  1.4411  2.6408
15966SOL     OW49571   8.187   4.685   6.584  0.6882 -0.2626 -0.3048
15966SOL    HW149572   8.276   4.651   6.576  1.2455  0.3333  2.3321
15966SOL    HW249573   8.198   4.770   6.626 -1.2076 -1.1022  2.1011
15967SOL     OW49574   5.065   0.991   9.410  0.1487 -0.1051 -0.1996
15967SOL    HW149575   5.091   1.072   9.454  0.4863  0.3104 -1.1383
15967SOL    HW249576   5.146   0.959   9.370  0.2020 -1.3601  0.8407
15968SOL     OW49577   7.865   3.836   5.249  0.2261 -0.1293  0.2665
15968SOL    HW149578   7.847   3.923   5.284 -0.2882 -0.9639  2.2393
15968SOL    HW249579   7.940   3.848   5.190  2.4949  1.1575  3.1409
15969SOL     OW49580   7.268   1.135   6.225 -0.2999  0.0952  0.1188
15969SOL    HW149581   7.282   1.164   6.134 -0.7305  0.2070  0.0871
15969SOL    HW249582   7.289   1.212   6.278  2.8924 -0.7935  0.3244
15970SOL     OW49583   1.326   1.597   1.454  0.4466 -0.1118  0.2153
15970SOL    HW149584   1.244   1.630   1.490  1.2540  0.7069  1.3690
15970SOL    HW249585   1.331   1.635   1.366 -0.6241 -0.5597 -0.0468
15971SOL     OW49586   7.825   2.924   9.044 -0.0562  0.3556  0.4429
15971SOL    HW149587   7.883   2.897   9.115  1.4313 -0.0987 -0.8901
15971SOL    HW249588   7.884   2.952   8.974 -1.4545  0.0882 -0.8965
15972SOL     OW49589   8.810   2.844   3.659 -0.2563  0.0170  0.0617
15972SOL    HW149590   8.879   2.779   3.674 -0.6226 -0.1566  1.0177
15972SOL    HW249591   8.730   2.793   3.647 -0.1876  0.2030 -1.3592
15973SOL     OW49592   7.815   7.040   5.718  0.4030  0.3532  0.1933
15973SOL    HW149593   7.759   7.009   5.647 -1.1003  0.2450  1.3692
15973SOL    HW249594   7.761   7.105   5.764  1.2509  0.2493  1.3754
15974SOL     OW49595   1.654   0.144   2.355 -0.2255  0.5649  0.1520
15974SOL    HW149596   1.583   0.181   2.303 -1.1363 -1.1186  0.1296
15974SOL    HW249597   1.682   0.067   2.306  0.3265  0.1281  1.1240
15975SOL     OW49598   8.046   4.629   0.343 -0.3909 -0.0760  0.3612
15975SOL    HW149599   8.038   4.576   0.264 -0.5959 -0.5753  0.7104
15975SOL    HW249600   7.967   4.609   0.394 -0.1955  0.1287  0.7548
15976SOL     OW49601   8.653   2.934   3.084  0.1514 -0.0423 -0.6425
15976SOL    HW149602   8.747   2.925   3.067  0.6043  2.6011 -0.0329
15976SOL    HW249603   8.641   2.899   3.172  0.4054 -1.0814 -1.0110
15977SOL     OW49604   6.437   8.296   4.459  0.1031  0.1087  0.3095
15977SOL    HW149605   6.360   8.342   4.493  0.3202 -0.2190  1.2983
15977SOL    HW249606   6.412   8.203   4.463 -0.1110  0.0874 -1.0895
15978SOL     OW49607   1.686   8.976   9.497 -0.4084 -0.0209 -0.5300
15978SOL    HW149608   1.660   9.034   9.426 -0.6286 -1.3982 -1.5999
15978SOL    HW249609   1.606   8.963   9.548 -0.8486 -0.8934 -1.4042
15979SOL     OW49610   0.486   8.088   5.155  0.7082 -0.1099 -0.1491
15979SOL    HW149611   0.454   8.004   5.121  1.7103 -0.9180  0.8374
15979SOL    HW249612   0.523   8.066   5.241 -2.4045  1.9374  1.9236
15980SOL     OW49613   1.394   1.808   5.772  0.3456  0.3351 -0.2354
15980SOL    HW149614   1.453   1.883   5.780  2.1675 -0.7279 -2.7032
15980SOL    HW249615   1.418   1.767   5.690 -3.6848 -0.3623 -1.2850
15981SOL     OW49616   3.971   9.044   2.666 -0.1334 -0.0694  0.0649
15981SOL    HW149617   3.933   9.123   2.628  0.0181  0.4994  1.0678
15981SOL    HW249618   3.940   8.973   2.610  0.4393  0.7835 -1.3821
15982SOL     OW49619   6.469   8.428   2.009  0.0087  0.5435 -0.2116
15982SOL    HW149620   6.541   8.482   2.041 -0.3768 -0.2485  2.1680
15982SOL    HW249621   6.509   8.345   1.985  0.1588  0.8124 -0.9224
15983SOL     OW49622   3.004   4.102   1.498 -0.0741  0.2183 -0.2235
15983SOL    HW149623   2.955   4.024   1.524  0.9439 -0.6035 -0.7122
15983SOL    HW249624   3.052   4.075   1.419  0.3740  1.3010 -0.3322
15984SOL     OW49625   0.463   2.057   4.709 -0.2915 -0.2532 -0.6527
15984SOL    HW149626   0.521   2.132   4.697  0.2788 -0.5666  0.0514
15984SOL    HW249627   0.439   2.060   4.802 -0.9692 -0.4414 -0.8165
15985SOL     OW49628   1.872   8.185   4.338  0.6397  0.8772  0.2735
15985SOL    HW149629   1.791   8.189   4.389  0.5172  1.0554  0.0682
15985SOL    HW249630   1.930   8.130   4.390  0.2761  0.4810  0.2678
15986SOL     OW49631   0.368   9.035   2.479  0.3681  0.0176  0.4702
15986SOL    HW149632   0.328   8.991   2.404  0.1205  3.7111 -1.8279
15986SOL    HW249633   0.294   9.060   2.535  0.1574  0.5175 -0.0256
15987SOL     OW49634   8.535   5.842   7.070 -0.4990  0.4643  0.3565
15987SOL    HW149635   8.583   5.759   7.072 -0.8927  0.2420  1.7571
15987SOL    HW249636   8.460   5.828   7.127  0.1914  2.2251  1.8150
15988SOL     OW49637   6.971   0.491   6.204  0.1977  0.4392  0.2147
15988SOL    HW149638   7.010   0.463   6.121 -0.9361 -1.0903  0.1652
15988SOL    HW249639   6.915   0.565   6.181 -0.4730 -0.2671 -0.4915
15989SOL     OW49640   2.924   6.392   4.138 -0.0062 -0.5838  0.3542
15989SOL    HW149641   2.998   6.342   4.104  0.6735  2.3926 -3.0952
15989SOL    HW249642   2.848   6.361   4.088 -0.0779 -0.0248  0.1097
15990SOL     OW49643   3.016   9.425   4.710  0.4948  0.0974  0.3804
15990SOL    HW149644   2.959   9.490   4.751  1.0208  0.5891  0.3438
15990SOL    HW249645   3.068   9.391   4.783 -0.7068 -1.2933  0.6512
15991SOL     OW49646   9.509   2.839   7.179  0.0659  0.4941 -0.2237
15991SOL    HW149647   9.466   2.859   7.262  0.3319  0.8920 -0.1818
15991SOL    HW249648   9.453   2.879   7.112  0.6285  1.4498 -0.1366
15992SOL     OW49649   7.402   4.117   9.384  0.5576  0.0930 -0.2078
15992SOL    HW149650   7.325   4.167   9.413 -0.3715 -1.4131  0.0347
15992SOL    HW249651   7.415   4.052   9.453  2.5909  0.8307  0.1680
15993SOL     OW49652   2.295   6.810   7.127  0.6699 -0.4735 -0.2461
15993SOL    HW149653   2.219   6.841   7.077  0.9132 -0.3497 -0.5421
15993SOL    HW249654   2.259   6.784   7.212  0.4519  0.6178  0.0121
15994SOL     OW49655   5.278   9.371   4.137 -0.4490  0.0735 -0.0030
15994SOL    HW149656   5.331   9.449   4.157 -0.9669  0.8512 -1.5178
15994SOL    HW249657   5.342   9.301   4.124  0.1052  0.5799 -0.0677
15995SOL     OW49658   1.699   4.184   7.813  0.1341  0.2399 -0.2893
15995SOL    HW149659   1.608   4.214   7.823  0.3089  0.3399  1.3641
15995SOL    HW249660   1.691   4.099   7.771 -0.6935  0.4630 -0.6109
15996SOL     OW49661   4.454   3.577   6.232  0.0739 -0.1434  0.0052
15996SOL    HW149662   4.496   3.591   6.147 -1.1787  0.6283 -0.5145
15996SOL    HW249663   4.371   3.624   6.226 -2.0521 -3.5800  0.0938
15997SOL     OW49664   8.300   6.110   0.312  0.2413  0.5282 -0.7661
15997SOL    HW149665   8.318   6.061   0.232 -0.4800  0.9993 -1.2224
15997SOL    HW249666   8.205   6.106   0.322  0.1545  1.9711 -0.8976
15998SOL     OW49667   5.910   7.426   8.464 -0.0325 -0.2104  0.3971
15998SOL    HW149668   5.886   7.439   8.555  0.0121  0.7831  0.2754
15998SOL    HW249669   5.829   7.440   8.415  0.0233 -0.3824  0.2518
15999SOL     OW49670   3.537   7.454   8.658  0.1227  0.4522  0.0391
15999SOL    HW149671   3.537   7.538   8.704  0.0917  0.5330 -0.1066
15999SOL    HW249672   3.619   7.455   8.608  0.4783  0.0834  0.5961
16000SOL     OW49673   1.870   0.040   6.170  0.1896 -0.3213 -0.0968
16000SOL    HW149674   1.892   0.072   6.258  1.3126 -0.4534 -0.3124
16000SOL    HW249675   1.778   0.061   6.159  0.1072 -0.0486  1.0097
16001SOL     OW49676   4.009   5.525   8.446 -0.1335  0.0923 -0.7276
16001SOL    HW149677   3.919   5.523   8.481  0.2854 -0.1169  0.3781
16001SOL    HW249678   4.004   5.586   8.372 -1.2065  0.0257 -0.7330
16002SOL     OW49679   6.589   4.298   2.324 -0.2139 -0.6165 -0.4473
16002SOL    HW149680   6.529   4.326   2.393 -0.0702 -0.9606 -0.1777
16002SOL    HW249681   6.646   4.234   2.367  0.6722  0.0754 -0.5602
16003SOL     OW49682   9.154   1.310   0.695  0.0073 -0.0905  0.5069
16003SOL    HW149683   9.099   1.338   0.622  0.0474 -1.2105  0.0232
16003SOL    HW249684   9.242   1.304   0.658  0.1205 -0.1538  0.7817
16004SOL     OW49685   2.505   4.652   5.770 -0.0314 -0.2237 -0.4515
16004SOL    HW149686   2.600   4.660   5.786  0.2706 -2.1346 -1.1204
16004SOL    HW249687   2.470   4.623   5.854  0.4740 -2.6991 -1.0348
16005SOL     OW49688   1.907   6.140   4.690  0.3051  0.4026  0.2546
16005SOL    HW149689   1.829   6.132   4.635  0.3737 -2.4219  0.4255
16005SOL    HW249690   1.979   6.151   4.628  0.1583 -0.7652 -0.1425
16006SOL     OW49691   3.573   9.369   8.596  0.1642 -0.4092 -0.0019
16006SOL    HW149692   3.626   9.319   8.659 -0.8061 -0.9106  0.4327
16006SOL    HW249693   3.492   9.388   8.643 -0.9590 -1.5862 -1.4202
16007SOL     OW49694   4.290   5.797   8.939 -0.7195 -0.1060 -0.6860
16007SOL    HW149695   4.354   5.727   8.928 -0.4692  0.3928 -2.8319
16007SOL    HW249696   4.209   5.759   8.904 -0.5807  0.6376 -1.8635
16008SOL     OW49697   1.418   9.365   4.927  0.0294  0.1161 -0.1882
16008SOL    HW149698   1.355   9.300   4.895  0.1393 -0.1074  0.0390
16008SOL    HW249699   1.421   9.350   5.022  1.1830 -0.5672 -0.3120
16009SOL     OW49700   5.577   9.351   7.297  0.2805  0.3862  0.4198
16009SOL    HW149701   5.590   9.269   7.249  1.8252 -0.0282  1.4289
16009SOL    HW249702   5.615   9.418   7.241 -0.0021  0.2391  0.0550
16010SOL     OW49703   6.856   2.414   5.469  0.5260 -0.8183 -0.0044
16010SOL    HW149704   6.890   2.462   5.544  0.0834  0.6749 -0.7184
16010SOL    HW249705   6.787   2.358   5.505  1.6754 -1.6508  0.9845
16011SOL     OW49706   3.888   0.470   4.155  0.4042  0.3021 -0.1760
16011SOL    HW149707   3.818   0.448   4.217 -0.0502  1.6589 -0.1776
16011SOL    HW249708   3.954   0.514   4.209  0.7761 -0.0300 -0.3623
16012SOL     OW49709   2.899   5.248   5.646  0.3178 -0.3799  0.0718
16012SOL    HW149710   2.906   5.343   5.653 -0.1263 -0.2192 -1.3449
16012SOL    HW249711   2.876   5.232   5.554  1.1821 -1.8946  0.0745
16013SOL     OW49712   6.092   3.984   8.478 -0.7410 -0.2984  0.0288
16013SOL    HW149713   6.131   4.034   8.550 -0.8364 -1.8869  1.2413
16013SOL    HW249714   6.032   4.046   8.436 -0.1000  0.8978  0.8173
16014SOL     OW49715   4.641   7.946   5.660 -0.4210 -0.8748  0.1608
16014SOL    HW149716   4.586   8.009   5.614  2.4502 -0.5563 -3.2661
16014SOL    HW249717   4.682   7.996   5.731  1.0162  0.9823 -1.8599
16015SOL     OW49718   7.518   6.605   3.183  0.4608 -0.1321 -0.6463
16015SOL    HW149719   7.556   6.542   3.122  1.3898 -0.9944  0.7778
16015SOL    HW249720   7.426   6.580   3.190  0.5585 -0.5929 -0.9920
16016SOL     OW49721   6.932   0.056   5.343  0.3074 -0.0481 -0.2123
16016SOL    HW149722   6.953   0.136   5.391  0.8350  0.2057 -0.8505
16016SOL    HW249723   7.009   0.000   5.355  0.4739  0.0488 -0.8280
16017SOL     OW49724   2.707   1.439   6.100 -0.2082 -0.2904 -0.0287
16017SOL    HW149725   2.656   1.479   6.029  1.4229 -0.6421 -1.4701
16017SOL    HW249726   2.708   1.505   6.169  0.4462  1.2518 -1.4298
16018SOL     OW49727   8.158   2.342   1.715  0.2369 -0.2259 -0.1785
16018SOL    HW149728   8.151   2.428   1.756  0.9096  0.6067 -1.7333
16018SOL    HW249729   8.090   2.342   1.648 -0.1726 -1.1583  0.2253
16019SOL     OW49730   2.824   2.829   3.743  0.5189  0.0421  0.0154
16019SOL    HW149731   2.800   2.799   3.655 -1.7720  1.1890  0.1856
16019SOL    HW249732   2.775   2.771   3.802  3.5540 -2.0483  0.7380
16020SOL     OW49733   3.405   4.971   6.889 -0.3847  0.3780 -0.3363
16020SOL    HW149734   3.492   4.955   6.925  0.0596  0.0630 -1.5005
16020SOL    HW249735   3.390   4.897   6.831 -1.2263  0.6894 -0.5195
16021SOL     OW49736   0.345   4.951   1.647 -0.2902  0.0464 -0.1774
16021SOL    HW149737   0.380   4.983   1.731 -0.7218  1.1049 -0.3897
16021SOL    HW249738   0.316   4.862   1.666 -0.7203  0.4012  0.8981
16022SOL     OW49739   4.480   1.275   6.872 -0.0227  0.6128  0.0018
16022SOL    HW149740   4.572   1.293   6.887  0.4993  0.3098 -2.3766
16022SOL    HW249741   4.472   1.271   6.776 -2.5406  0.8405  0.1385
16023SOL     OW49742   2.543   2.379   8.095  0.2067 -0.8616  0.2248
16023SOL    HW149743   2.511   2.469   8.102  0.1625 -0.9777  1.6782
16023SOL    HW249744   2.632   2.388   8.061 -0.8337 -0.4756 -2.7340
16024SOL     OW49745   1.798   1.053   7.058 -0.1559 -0.6521 -0.2251
16024SOL    HW149746   1.875   0.996   7.048  0.2918 -0.2273  0.6215
16024SOL    HW249747   1.802   1.081   7.150  0.2325  1.5657 -0.8745
16025SOL     OW49748   3.944   2.125   1.878  0.4226  0.4071 -0.3114
16025SOL    HW149749   3.972   2.034   1.894 -1.0327  0.0332  0.2921
16025SOL    HW249750   3.985   2.149   1.795  2.6503 -0.0127  0.6021
16026SOL     OW49751   8.791   3.193   6.835  0.7065  0.3754  0.7878
16026SOL    HW149752   8.823   3.225   6.751  1.8001  1.0044  1.4236
16026SOL    HW249753   8.820   3.259   6.898  2.0833 -1.3020  1.9951
16027SOL     OW49754   1.044   7.519   2.709 -0.3262 -0.3532 -0.2087
16027SOL    HW149755   0.970   7.487   2.656  0.7404  1.0792 -2.7563
16027SOL    HW249756   1.005   7.585   2.766 -1.1637 -0.1136 -1.0278
16028SOL     OW49757   9.241   3.476   4.401 -0.7992  0.0418  0.6398
16028SOL    HW149758   9.245   3.427   4.319  1.6836 -1.3088  1.4407
16028SOL    HW249759   9.256   3.567   4.375  0.2192 -0.3964 -0.4134
16029SOL     OW49760   0.809   0.860   4.303  0.3918  0.5056 -0.0857
16029SOL    HW149761   0.753   0.790   4.269  2.4403 -1.1890 -0.2177
16029SOL    HW249762   0.772   0.882   4.388  0.0763 -1.2630  0.2689
16030SOL     OW49763   3.848   0.381   7.451  0.4445  0.2754  0.1787
16030SOL    HW149764   3.925   0.395   7.396  0.8221 -1.9089  0.0770
16030SOL    HW249765   3.836   0.286   7.453 -1.5825  0.4897  1.1253
16031SOL     OW49766   7.206   2.286   3.687 -0.2448 -0.3299 -0.2295
16031SOL    HW149767   7.251   2.365   3.658  1.8032 -1.0804  0.6560
16031SOL    HW249768   7.222   2.222   3.618 -0.9443 -0.2956 -0.4304
16032SOL     OW49769   6.918   7.448   8.323 -0.4600  0.4102 -0.2801
16032SOL    HW149770   6.858   7.503   8.272 -2.8023 -1.0288  0.7768
16032SOL    HW249771   6.864   7.376   8.355  1.1322  0.5920  3.2741
16033SOL     OW49772   7.707   0.385   2.732 -0.1500 -0.3443 -0.7351
16033SOL    HW149773   7.620   0.408   2.699 -0.6872 -1.4565 -0.1643
16033SOL    HW249774   7.698   0.386   2.827  0.5145 -0.2953 -0.6680
16034SOL     OW49775   7.874   8.804   1.598  0.2447 -0.3739  0.2218
16034SOL    HW149776   7.950   8.856   1.573 -0.0039 -0.1707 -0.1121
16034SOL    HW249777   7.805   8.867   1.616  0.6585 -0.4499  2.3476
16035SOL     OW49778   5.311   3.044   2.031 -0.0011 -0.2963  0.2712
16035SOL    HW149779   5.396   3.005   2.051 -0.7396 -1.3992  1.3972
16035SOL    HW249780   5.260   2.973   1.993 -0.2134  0.5422 -1.0855
16036SOL     OW49781   2.734   4.065   1.046 -0.0170 -0.3672  0.5433
16036SOL    HW149782   2.714   4.020   1.128 -0.5567 -2.5375 -0.7041
16036SOL    HW249783   2.656   4.115   1.026 -0.9120 -1.8455  0.1394
16037SOL     OW49784   8.250   3.547   5.403  0.5364 -0.2418  0.1507
16037SOL    HW149785   8.242   3.620   5.464 -0.5476 -0.6092  0.4701
16037SOL    HW249786   8.306   3.581   5.333 -0.8370  1.2865 -0.2719
16038SOL     OW49787   2.656   7.309   6.887 -0.3493  0.3902  0.4715
16038SOL    HW149788   2.692   7.264   6.963  0.3583 -1.8122 -1.0948
16038SOL    HW249789   2.621   7.391   6.923  1.8106  0.4106  2.8205
16039SOL     OW49790   4.293   3.705   5.366  0.2909 -0.4159 -0.1155
16039SOL    HW149791   4.360   3.640   5.344  0.0088 -0.8361  0.2636
16039SOL    HW249792   4.334   3.760   5.434  0.6604  0.0379 -0.6887
16040SOL     OW49793   8.263   7.737   5.914  0.1398 -0.3750  0.4019
16040SOL    HW149794   8.307   7.743   5.998  1.8187  0.5097 -0.4882
16040SOL    HW249795   8.299   7.658   5.873 -1.4880 -1.4318  0.9163
16041SOL     OW49796   6.075   8.576   6.162  0.0107 -0.3242 -0.0486
16041SOL    HW149797   5.997   8.578   6.217  0.3329 -0.3475  0.4055
16041SOL    HW249798   6.132   8.511   6.203  0.8098  0.6006  0.3407
16042SOL     OW49799   1.850   6.791   8.567 -0.8477  0.1762  0.3093
16042SOL    HW149800   1.897   6.713   8.596 -0.6466 -0.3438 -1.3010
16042SOL    HW249801   1.880   6.805   8.478 -2.4486  0.8486 -0.1630
16043SOL     OW49802   0.339   5.733   6.896 -0.3063 -0.2208 -0.1777
16043SOL    HW149803   0.356   5.658   6.953  0.7831 -0.2906 -0.5706
16043SOL    HW249804   0.287   5.697   6.824 -0.1637 -0.5075 -0.1408
16044SOL     OW49805   0.256   5.131   2.745 -0.0975 -0.1900  0.4577
16044SOL    HW149806   0.187   5.082   2.791  1.1763  0.0658  2.8109
16044SOL    HW249807   0.298   5.183   2.814  0.8021  1.6326 -1.3649
16045SOL     OW49808   8.868   9.182   8.132  0.0337  0.2683  0.0294
16045SOL    HW149809   8.811   9.172   8.209  1.0602  1.2902  0.9572
16045SOL    HW249810   8.807   9.193   8.059 -1.0279 -2.8294  0.2930
16046SOL     OW49811   6.733   8.069   7.706  0.4173  0.4910  0.0688
16046SOL    HW149812   6.658   8.056   7.648  1.0868 -0.1757 -0.6861
16046SOL    HW249813   6.781   8.142   7.668 -0.2611  1.4529  1.0134
16047SOL     OW49814   4.035   7.198   7.645 -0.1307 -0.2299 -0.1269
16047SOL    HW149815   4.056   7.109   7.616  0.7972 -0.2309  0.5208
16047SOL    HW249816   3.991   7.237   7.570 -0.9985 -1.3832 -0.2544
16048SOL     OW49817   1.866   2.261   0.972  0.0876  0.1837  0.3269
16048SOL    HW149818   1.876   2.286   0.880 -1.7124 -3.4491 -1.0743
16048SOL    HW249819   1.945   2.212   0.992 -0.1285 -0.2177  0.2156
16049SOL     OW49820   2.592   0.137   7.623  0.4490  0.3695  0.3408
16049SOL    HW149821   2.577   0.046   7.645  0.7329  0.1176 -0.4826
16049SOL    HW249822   2.664   0.164   7.680  1.2550 -0.3037 -0.3377
16050SOL     OW49823   3.570   5.852   1.589  0.5573  0.3449  0.2694
16050SOL    HW149824   3.516   5.829   1.664  0.4713  0.1003  0.1346
16050SOL    HW249825   3.579   5.770   1.540 -0.1330  0.6868 -0.4599
16051SOL     OW49826   5.730   5.447   0.825 -0.0043  0.2053 -0.3269
16051SOL    HW149827   5.666   5.381   0.798 -0.5645  1.1323 -1.3592
16051SOL    HW249828   5.682   5.530   0.820  1.5749  1.0807 -2.3463
16052SOL     OW49829   7.297   3.855   6.817 -0.3447 -0.0693 -0.0292
16052SOL    HW149830   7.370   3.895   6.771  0.4664 -1.7738 -0.3127
16052SOL    HW249831   7.239   3.824   6.748 -0.1193 -0.8498  0.1182
16053SOL     OW49832   6.637   4.662   2.712  0.2739  0.2072  0.1765
16053SOL    HW149833   6.686   4.728   2.664  1.6316 -0.6998  0.2375
16053SOL    HW249834   6.702   4.621   2.770 -0.8057 -0.3096  1.0706
16054SOL     OW49835   9.470   4.217   7.243 -0.1261  0.1447 -0.1721
16054SOL    HW149836   9.443   4.306   7.221  0.7402  0.0802 -1.6787
16054SOL    HW249837   9.491   4.220   7.336 -1.0054  1.2700  0.0082
16055SOL     OW49838   9.235   1.563   2.119  0.4324 -0.2407  0.2558
16055SOL    HW149839   9.296   1.631   2.089  0.6804 -0.5912 -0.0462
16055SOL    HW249840   9.176   1.550   2.045 -0.6715  0.8300  0.9164
16056SOL     OW49841   5.332   1.749   0.093 -0.1578  0.1912 -0.8243
16056SOL    HW149842   5.246   1.718   0.121 -0.4609  2.3914  0.9497
16056SOL    HW249843   5.394   1.685   0.129 -0.8913  0.3352  0.8075
16057SOL     OW49844   1.119   4.834   7.442 -0.0397  0.5189  0.3242
16057SOL    HW149845   1.205   4.792   7.432 -0.6640 -1.0190  1.2102
16057SOL    HW249846   1.093   4.856   7.353  1.3008  1.1034  0.0457
16058SOL     OW49847   2.278   2.739   0.563  0.8122 -0.2417  0.2114
16058SOL    HW149848   2.255   2.817   0.512  0.8791  0.3305  1.0425
16058SOL    HW249849   2.258   2.666   0.504 -0.2412  0.3513 -0.2018
16059SOL     OW49850   1.080   1.766   3.977 -0.0603  0.6147  0.6688
16059SOL    HW149851   1.049   1.798   4.061 -0.3466 -2.4286  1.8334
16059SOL    HW249852   1.161   1.718   3.997  0.4033  0.6472 -0.9562
16060SOL     OW49853   5.665   2.746   0.863 -0.0992  0.3660  0.1724
16060SOL    HW149854   5.642   2.834   0.830 -1.1038 -0.2357 -0.8282
16060SOL    HW249855   5.745   2.759   0.913  0.1579  1.7452 -0.5482
16061SOL     OW49856   2.021   4.840   8.200  0.3537  0.0489 -0.2016
16061SOL    HW149857   2.040   4.905   8.268  0.9109 -0.4781  0.1535
16061SOL    HW249858   2.032   4.889   8.118  2.3127  0.0543 -0.0023
16062SOL     OW49859   9.319   3.628   1.014 -0.0039  0.1715  0.0346
16062SOL    HW149860   9.312   3.716   0.978 -0.6879 -0.1312 -0.5991
16062SOL    HW249861   9.289   3.637   1.105  0.5289  0.7012  0.1657
16063SOL     OW49862   7.592   0.169   3.800 -0.0040 -0.3665 -0.0097
16063SOL    HW149863   7.555   0.232   3.738  0.2175  0.2379  0.4607
16063SOL    HW249864   7.570   0.083   3.763 -0.9756 -0.0185 -0.2759
16064SOL     OW49865   0.604   8.191   5.530  0.0955 -0.0107 -0.4077
16064SOL    HW149866   0.657   8.141   5.592  0.0295 -0.3851 -0.6527
16064SOL    HW249867   0.548   8.246   5.586  0.6609  0.3186 -0.1454
16065SOL     OW49868   5.088   8.241   4.109 -0.1085 -0.0845 -0.0829
16065SOL    HW149869   5.087   8.167   4.169  3.3934  0.3548  0.7813
16065SOL    HW249870   5.172   8.233   4.063 -0.0399  2.7862 -0.6538
16066SOL     OW49871   9.095   9.138   8.739 -0.2847  0.1254  0.3460
16066SOL    HW149872   9.123   9.205   8.801 -1.1641 -0.8839  1.9066
16066SOL    HW249873   9.003   9.124   8.759 -0.3333 -0.9312 -0.5252
16067SOL     OW49874   1.588   5.835   3.864  0.8325  0.3075 -0.4653
16067SOL    HW149875   1.626   5.768   3.806  0.2003 -0.5867  0.1204
16067SOL    HW249876   1.502   5.854   3.826  0.9279  0.6509 -0.5152
16068SOL     OW49877   8.237   3.036   8.379  0.3447 -0.0922 -0.1879
16068SOL    HW149878   8.298   3.088   8.432 -0.3084  0.1168  0.3672
16068SOL    HW249879   8.264   2.946   8.394  2.2720  0.0631 -2.0956
16069SOL     OW49880   6.509   7.800   9.575  0.5336 -0.3853 -0.3118
16069SOL    HW149881   6.452   7.815   9.651  1.4379  0.9210  0.1361
16069SOL    HW249882   6.579   7.744   9.609  0.6447 -0.2521 -0.3210
16070SOL     OW49883   6.169   2.193   6.210  0.4454 -0.2227 -0.3103
16070SOL    HW149884   6.260   2.178   6.233  0.1005 -0.0094  1.3044
16070SOL    HW249885   6.165   2.284   6.183  1.0183 -0.7071 -2.2161
16071SOL     OW49886   5.702   0.803   6.441  0.3255 -0.1588  0.0325
16071SOL    HW149887   5.658   0.856   6.507 -0.0159  0.6175 -0.8057
16071SOL    HW249888   5.795   0.827   6.449  0.3203 -0.2451  0.3813
16072SOL     OW49889   7.420   2.277   0.610  0.0090 -0.4808 -0.3758
16072SOL    HW149890   7.355   2.212   0.636 -0.0338 -0.3380 -0.1275
16072SOL    HW249891   7.445   2.251   0.521 -2.4924  1.1415 -1.6413
16073SOL     OW49892   7.000   5.644   7.578  0.0254  0.6318  0.2173
16073SOL    HW149893   6.912   5.608   7.578  0.2871 -0.2162 -2.2868
16073SOL    HW249894   7.055   5.573   7.612 -0.0608  0.5612  0.2097
16074SOL     OW49895   5.783   3.791   5.365 -0.2141 -0.2627  0.1066
16074SOL    HW149896   5.873   3.776   5.337  0.1293  0.8503  0.5505
16074SOL    HW249897   5.789   3.863   5.428 -1.5106  0.4795 -0.5647
16075SOL     OW49898   4.018   6.066   7.293  0.4616 -0.6466 -0.5694
16075SOL    HW149899   3.936   6.030   7.326 -0.2556  0.4805 -1.0731
16075SOL    HW249900   3.997   6.157   7.271  1.9546 -0.2178 -0.3083
16076SOL     OW49901   7.182   1.179   8.452 -0.1404 -0.0084 -0.1412
16076SOL    HW149902   7.120   1.229   8.505 -0.8091  1.5786 -2.2800
16076SOL    HW249903   7.128   1.116   8.405  0.2986 -0.6676  0.2229
16077SOL     OW49904   4.415   8.963   7.955  0.4730  0.2260 -0.0571
16077SOL    HW149905   4.464   9.041   7.929 -0.8766  0.9736 -0.4503
16077SOL    HW249906   4.462   8.929   8.031  2.4989 -0.0092 -1.3490
16078SOL     OW49907   5.839   9.278   1.271  0.0778  0.3014  0.5609
16078SOL    HW149908   5.901   9.335   1.316  0.2303  0.7133 -0.1432
16078SOL    HW249909   5.852   9.298   1.178  1.1363 -1.8764  0.1620
16079SOL     OW49910   5.561   0.832   9.569 -0.0871 -0.0794 -0.0344
16079SOL    HW149911   5.626   0.789   9.514  1.8902  1.8513  0.6277
16079SOL    HW249912   5.602   0.837   9.656 -2.1620 -0.9600  1.0816
16080SOL     OW49913   8.361   9.336   3.776  0.1155  0.1600 -0.4878
16080SOL    HW149914   8.447   9.370   3.802  0.2975  0.3024 -1.2642
16080SOL    HW249915   8.320   9.407   3.729 -0.5756  0.2063  0.1705
16081SOL     OW49916   4.521   0.134   0.640 -0.2381 -0.0338 -0.1189
16081SOL    HW149917   4.614   0.121   0.658 -0.2107  0.3489  0.0323
16081SOL    HW249918   4.476   0.090   0.712 -0.1472  0.6931  0.3922
16082SOL     OW49919   4.168   1.467   5.025  0.0263  0.0209 -0.2799
16082SOL    HW149920   4.150   1.396   5.087 -1.1850 -1.4871 -2.2257
16082SOL    HW249921   4.104   1.535   5.047  0.0950 -0.1724  0.5581
16083SOL     OW49922   5.012   2.254   5.267  0.2435  0.3897 -0.4012
16083SOL    HW149923   5.030   2.167   5.301  0.0456  0.2157 -0.7317
16083SOL    HW249924   5.051   2.254   5.179 -2.9062 -0.6750 -1.9624
16084SOL     OW49925   4.794   5.621   7.493  0.1150 -0.0216  0.4508
16084SOL    HW149926   4.699   5.630   7.495 -0.1783 -2.2781 -0.1615
16084SOL    HW249927   4.814   5.599   7.402  1.3025  0.9415  0.4550
16085SOL     OW49928   5.321   1.947   7.809  0.3665  0.0067 -0.2342
16085SOL    HW149929   5.286   1.868   7.851 -0.7633  1.3616  1.5173
16085SOL    HW249930   5.256   1.969   7.743  0.3692 -0.1704 -0.2974
16086SOL     OW49931   3.008   3.896   6.684  0.0880 -0.7308 -0.4193
16086SOL    HW149932   2.980   3.824   6.741 -2.1014  0.1875 -0.2583
16086SOL    HW249933   3.067   3.948   6.739 -1.0964 -0.4871  0.6758
16087SOL     OW49934   2.203   8.542   7.558  0.0882  1.0376 -0.0902
16087SOL    HW149935   2.272   8.501   7.506  0.1514  1.7043 -0.5384
16087SOL    HW249936   2.139   8.471   7.572  1.9739 -0.3244  2.4545
16088SOL     OW49937   1.614   6.456   1.662 -0.0740  0.1871 -0.2890
16088SOL    HW149938   1.647   6.498   1.583  2.1516 -0.9374 -0.0327
16088SOL    HW249939   1.659   6.502   1.733  0.0550 -0.5930  0.1422
16089SOL     OW49940   0.780   8.051   2.370 -0.0451  0.6837 -0.4994
16089SOL    HW149941   0.862   8.002   2.376 -0.7537 -0.4673  0.2298
16089SOL    HW249942   0.793   8.111   2.297  0.3668 -1.5810 -2.4057
16090SOL     OW49943   3.743   8.803   7.887 -0.1964 -0.2304  0.1495
16090SOL    HW149944   3.686   8.797   7.964  0.1751  0.3263  0.4793
16090SOL    HW249945   3.811   8.738   7.903 -0.4338 -0.5065  0.0248
16091SOL     OW49946   4.596   0.863   1.387  0.1307 -0.0065 -1.3639
16091SOL    HW149947   4.578   0.926   1.457  1.0130 -0.3775 -0.7831
16091SOL    HW249948   4.656   0.799   1.427 -1.0465 -1.4475 -1.8092
16092SOL     OW49949   3.611   1.952   5.587 -0.0340  0.9515 -0.2796
16092SOL    HW149950   3.653   2.010   5.649 -0.6874  2.5136 -1.2447
16092SOL    HW249951   3.637   1.985   5.501 -1.7384  0.8431 -0.8774
16093SOL     OW49952   3.357   2.466   8.781 -0.4965 -0.3513  1.0376
16093SOL    HW149953   3.365   2.555   8.813 -0.5821 -0.3534  1.0660
16093SOL    HW249954   3.439   2.450   8.733 -0.9813  0.1545  0.0110
16094SOL     OW49955   6.493   2.457   2.534 -0.3619 -0.2578 -0.3134
16094SOL    HW149956   6.430   2.462   2.606  0.7452 -0.5973  0.7016
16094SOL    HW249957   6.579   2.455   2.576  0.2961 -5.0917 -1.3143
16095SOL     OW49958   3.586   0.253   2.545 -0.3512 -0.4081  0.5103
16095SOL    HW149959   3.554   0.231   2.632 -1.7777 -0.0493  0.1193
16095SOL    HW249960   3.671   0.211   2.538 -0.6448 -1.2424  1.7234
16096SOL     OW49961   7.018   9.375   2.585  0.2445  0.3104 -0.4926
16096SOL    HW149962   6.939   9.414   2.548  0.4175 -0.3587 -1.6190
16096SOL    HW249963   6.995   9.354   2.675 -0.6191  0.8058 -0.5920
16097SOL     OW49964   2.479   6.223   8.382 -0.5034 -0.1189  0.1198
16097SOL    HW149965   2.448   6.134   8.394 -1.4463  0.0613 -0.9018
16097SOL    HW249966   2.417   6.277   8.432 -1.6495  0.2012 -1.5784
16098SOL     OW49967   4.709   4.190   3.066  0.3206 -0.1519 -0.6200
16098SOL    HW149968   4.661   4.198   2.983  2.4198  1.9679 -1.7720
16098SOL    HW249969   4.721   4.096   3.078 -1.6380 -0.5951 -1.7182
16099SOL     OW49970   3.556   5.190   2.184 -0.4611  0.0153  0.6403
16099SOL    HW149971   3.604   5.155   2.259 -2.4940 -0.9248  1.5790
16099SOL    HW249972   3.501   5.117   2.155 -0.2527  0.5836 -1.3530
16100SOL     OW49973   3.331   5.856   5.732  0.3859  0.2443 -0.1185
16100SOL    HW149974   3.336   5.889   5.822  1.8373 -1.8036  0.6321
16100SOL    HW249975   3.243   5.817   5.726  0.8258 -0.9962  0.9870
16101SOL     OW49976   5.125   9.215   5.217  0.1739  0.3032 -0.7503
16101SOL    HW149977   5.043   9.176   5.247  0.1241  0.3034 -0.8852
16101SOL    HW249978   5.188   9.194   5.285 -0.5132  2.5664  0.7262
16102SOL     OW49979   4.570   7.046   9.221 -0.2349 -0.6001  0.1036
16102SOL    HW149980   4.641   7.039   9.157 -0.2781  1.8299 -0.2939
16102SOL    HW249981   4.490   7.050   9.168 -0.2954  1.1190  0.2882
16103SOL     OW49982   8.504   9.054   1.812  0.6753 -0.1996 -0.3012
16103SOL    HW149983   8.589   9.033   1.775  1.2441 -0.6391  1.1809
16103SOL    HW249984   8.485   8.981   1.872 -0.4018  0.2575 -0.0498
16104SOL     OW49985   8.624   5.274   1.546  0.0892  0.5388 -0.1981
16104SOL    HW149986   8.556   5.208   1.560  0.2516  0.0341 -1.5597
16104SOL    HW249987   8.606   5.342   1.611 -0.5021 -0.5176  0.7724
16105SOL     OW49988   8.301   6.132   1.175  0.6656 -0.3947 -0.4960
16105SOL    HW149989   8.220   6.141   1.226  0.9144  0.3846 -0.2178
16105SOL    HW249990   8.338   6.048   1.203 -0.4974 -1.2042 -1.3026
16106SOL     OW49991   3.560   7.156   7.986  0.1724  0.0285  0.4865
16106SOL    HW149992   3.466   7.168   8.005 -0.8591 -0.7408 -3.3860
16106SOL    HW249993   3.599   7.241   8.006 -2.0243  1.4848 -0.9595
16107SOL     OW49994   7.399   4.752   6.614 -0.0559  0.1559 -0.4804
16107SOL    HW149995   7.385   4.694   6.690 -0.9885  0.1413 -0.6566
16107SOL    HW249996   7.452   4.699   6.554  1.5525  0.5052  0.5394
16108SOL     OW49997   7.530   7.261   2.285 -0.0662 -0.2385  0.1019
16108SOL    HW149998   7.573   7.294   2.364  1.0521 -4.0973  1.3448
16108SOL    HW249999   7.565   7.315   2.214  1.8903  0.9103  1.8274
16109SOL     OW50000   1.698   3.166   8.696 -0.1398  0.2000  0.4248
16109SOL    HW150001   1.624   3.225   8.704 -1.2766 -1.3319  2.0499
16109SOL    HW250002   1.690   3.129   8.609 -1.6023 -0.2735  0.7256
16110SOL     OW50003   1.410   8.969   0.487  0.3911  0.0962 -0.0126
16110SOL    HW150004   1.320   8.971   0.520 -0.2349 -0.9930 -1.5327
16110SOL    HW250005   1.465   8.980   0.565 -0.9755 -2.7731  1.5075
16111SOL     OW50006   7.960   3.807   0.156 -0.1444 -0.0138 -0.0970
16111SOL    HW150007   7.963   3.772   0.067 -0.0116  0.9239 -0.4748
16111SOL    HW250008   7.895   3.878   0.152 -1.2466 -0.9174  0.9190
16112SOL     OW50009   2.397   8.675   4.256  0.2139 -0.2686 -0.1677
16112SOL    HW150010   2.488   8.661   4.281  0.0108 -0.0156  0.7485
16112SOL    HW250011   2.402   8.728   4.177  0.8686  1.1743  0.7884
16113SOL     OW50012   5.148   4.501   3.868 -0.1044  0.2555  0.4055
16113SOL    HW150013   5.081   4.455   3.918  1.2191 -2.2475  0.0602
16113SOL    HW250014   5.218   4.519   3.931 -0.2516  1.0622  0.3500
16114SOL     OW50015   2.704   8.654   1.528 -0.1494 -0.1095  0.1128
16114SOL    HW150016   2.728   8.667   1.619  0.8976  0.4603 -0.2262
16114SOL    HW250017   2.614   8.622   1.531 -0.2200  0.1631  1.3264
16115SOL     OW50018   6.089   2.574   7.255 -0.2876  0.2119 -0.0465
16115SOL    HW150019   6.129   2.617   7.330  0.6223 -0.7560  0.0507
16115SOL    HW250020   6.159   2.568   7.190 -0.7087 -0.0968 -0.4869
16116SOL     OW50021   1.230   1.293   6.084 -0.1239  0.2125 -0.9738
16116SOL    HW150022   1.226   1.389   6.087 -0.5390  0.1697  0.2111
16116SOL    HW250023   1.306   1.274   6.029  0.4777  1.2296 -0.5201
16117SOL     OW50024   5.791   7.373   6.287  0.2850  0.1703  0.1412
16117SOL    HW150025   5.774   7.310   6.218 -1.7210 -0.8139  1.4306
16117SOL    HW250026   5.778   7.459   6.245 -0.9931 -0.4026 -0.6890
16118SOL     OW50027   1.519   8.994   0.047 -0.0865  0.1329  0.0798
16118SOL    HW150028   1.531   9.064   0.112 -1.5748  0.0112  0.5170
16118SOL    HW250029   1.471   8.926   0.094 -1.0007 -0.0463 -1.0805
16119SOL     OW50030   3.528   7.360   4.955 -0.2211 -0.9951  0.0571
16119SOL    HW150031   3.544   7.323   4.868  1.1144  2.9465 -1.6122
16119SOL    HW250032   3.434   7.377   4.956 -0.0566  0.2219 -1.2995
16120SOL     OW50033   0.731   0.370   7.046  0.1306 -0.7903 -0.0804
16120SOL    HW150034   0.788   0.311   7.096  0.6516 -1.1684 -1.0965
16120SOL    HW250035   0.769   0.457   7.060  0.4529 -0.9324 -0.0632
16121SOL     OW50036   3.317   0.315   8.107  0.1963  0.5697  0.1470
16121SOL    HW150037   3.363   0.395   8.082 -0.3558  0.9914  0.4464
16121SOL    HW250038   3.346   0.298   8.197 -0.4025  0.9712  0.4226
16122SOL     OW50039   8.239   6.797   3.782  0.1372 -0.0445  0.3004
16122SOL    HW150040   8.246   6.704   3.758  0.7739 -0.0528  0.4906
16122SOL    HW250041   8.318   6.814   3.834 -1.0445  0.0394  2.1592
16123SOL     OW50042   4.685   8.063   5.129 -0.7835  0.1080  0.0911
16123SOL    HW150043   4.627   8.120   5.179  0.4185  0.9899  0.5272
16123SOL    HW250044   4.703   7.990   5.188 -1.8603 -0.4568 -0.2529
16124SOL     OW50045   5.050   2.796   1.526 -0.3222 -0.1787  0.1719
16124SOL    HW150046   5.066   2.731   1.458  4.0439 -1.2994  1.9492
16124SOL    HW250047   5.094   2.876   1.495 -0.4010  0.0499  0.6349
16125SOL     OW50048   8.891   0.177   6.047 -0.0660 -0.0253  0.6876
16125SOL    HW150049   8.859   0.174   5.957 -0.1251  0.8688  0.6766
16125SOL    HW250050   8.929   0.264   6.057 -2.0245  0.7575  2.1733
16126SOL     OW50051   7.457   5.817   4.364 -0.0708 -0.4473  0.0472
16126SOL    HW150052   7.545   5.833   4.328  1.6141  0.2512  3.9025
16126SOL    HW250053   7.435   5.900   4.408 -1.6909 -1.3045  0.9149
16127SOL     OW50054   9.674   7.375   5.599  0.2236  0.0986 -0.8494
16127SOL    HW150055   9.741   7.408   5.539  2.5793  0.8838  1.9675
16127SOL    HW250056   9.703   7.287   5.620 -0.0547  0.1601 -0.1963
16128SOL     OW50057   8.677   5.179   4.355 -0.0308  0.1575 -0.8937
16128SOL    HW150058   8.647   5.141   4.438 -0.2041  1.1465 -0.4957
16128SOL    HW250059   8.610   5.154   4.292 -1.4397  1.8244 -0.1404
16129SOL     OW50060   1.430   3.662   4.677 -0.1168  0.4656  0.7328
16129SOL    HW150061   1.444   3.729   4.743  0.1064  1.1832 -0.0220
16129SOL    HW250062   1.488   3.687   4.605  1.5710 -1.6760  1.2273
16130SOL     OW50063   0.437   4.454   5.003 -0.5222 -0.1044 -0.3135
16130SOL    HW150064   0.496   4.388   4.967 -2.0682 -2.0339  0.5275
16130SOL    HW250065   0.464   4.536   4.961  2.0241 -1.0835 -0.7393
16131SOL     OW50066   3.242   3.856   0.552 -0.4583  0.3196 -0.0191
16131SOL    HW150067   3.187   3.785   0.517 -0.1915 -1.4496  2.8014
16131SOL    HW250068   3.277   3.900   0.475 -4.4626  0.5252 -1.9839
16132SOL     OW50069   3.071   4.465   9.628  0.5797  1.1535  0.2088
16132SOL    HW150070   3.095   4.373   9.627  1.3226  1.3139 -1.9152
16132SOL    HW250071   3.015   4.475   9.705 -0.1145 -1.2162  0.0814
16133SOL     OW50072   4.934   7.997   8.182 -0.2250  0.2358  0.0929
16133SOL    HW150073   4.857   8.009   8.237  1.3919  1.0966  2.3131
16133SOL    HW250074   4.950   8.083   8.143 -0.1464  0.1670 -0.0303
16134SOL     OW50075   6.305   7.355   7.221  0.8061 -0.3644 -0.3765
16134SOL    HW150076   6.307   7.313   7.135  1.3306 -0.9597 -0.0818
16134SOL    HW250077   6.231   7.415   7.217  0.8198 -0.3956 -1.2417
16135SOL     OW50078   7.101   9.064   1.700 -0.5456 -1.0374  0.0990
16135SOL    HW150079   7.018   9.042   1.744 -0.5790  1.1964  1.2954
16135SOL    HW250080   7.163   8.999   1.733 -1.6579 -2.4199 -0.3988
16136SOL     OW50081   2.008   1.617   0.946 -0.4227  0.7387  0.4384
16136SOL    HW150082   1.951   1.684   0.984 -0.1872  0.7920  0.7031
16136SOL    HW250083   2.092   1.662   0.934  0.1943  0.0813  2.0582
16137SOL     OW50084   6.437   3.115   3.397 -0.3277  0.1351 -0.1698
16137SOL    HW150085   6.471   3.110   3.307  0.2463  0.8628  0.0013
16137SOL    HW250086   6.512   3.096   3.452 -0.0863  2.0270  0.2249
16138SOL     OW50087   1.541   2.250   3.203  0.0349 -0.6789 -0.4773
16138SOL    HW150088   1.457   2.259   3.157 -0.9517 -3.0428  0.6478
16138SOL    HW250089   1.522   2.276   3.293  0.8771  0.0639 -0.5069
16139SOL     OW50090   5.839   3.173   6.575 -0.4051 -0.0716  0.4686
16139SOL    HW150091   5.841   3.145   6.667 -1.2014 -1.1555  0.1781
16139SOL    HW250092   5.925   3.150   6.541 -0.3649 -0.3545  0.7569
16140SOL     OW50093   6.088   0.871   4.548 -0.2807  0.0607  0.4758
16140SOL    HW150094   6.011   0.883   4.604  0.3483 -2.4952  2.0388
16140SOL    HW250095   6.157   0.919   4.593 -0.1769 -0.5642  1.0012
16141SOL     OW50096   1.633   8.673   7.316 -0.1393 -0.0810 -0.3747
16141SOL    HW150097   1.588   8.648   7.397 -0.4320  1.3200 -0.0886
16141SOL    HW250098   1.717   8.626   7.320  0.9085  1.8032  1.9476
16142SOL     OW50099   8.467   2.372   9.232 -0.6524  0.1352  0.0658
16142SOL    HW150100   8.446   2.411   9.316  0.4290 -1.8455  1.3296
16142SOL    HW250101   8.557   2.398   9.215 -0.7739  0.2962 -0.3431
16143SOL     OW50102   4.506   2.431   0.805 -0.1306  0.3237 -0.2828
16143SOL    HW150103   4.434   2.375   0.833  0.3556  0.7352  1.9752
16143SOL    HW250104   4.585   2.386   0.834  0.3363  1.4795  0.3038
16144SOL     OW50105   5.783   6.324   7.054 -0.1633 -0.5679  0.3987
16144SOL    HW150106   5.693   6.299   7.036 -0.1854 -0.3031  0.1366
16144SOL    HW250107   5.788   6.416   7.030 -0.1328 -0.2566  1.5242
16145SOL     OW50108   4.396   2.719   0.529  0.1100  0.0391  0.0673
16145SOL    HW150109   4.394   2.655   0.458 -1.4110  2.6453 -2.4658
16145SOL    HW250110   4.332   2.686   0.593  0.5680 -1.7273 -0.3392
16146SOL     OW50111   8.687   2.193   3.649 -0.3033  0.2509  0.3669
16146SOL    HW150112   8.606   2.210   3.698  0.9109 -0.6987  2.8539
16146SOL    HW250113   8.753   2.179   3.716  1.1343 -3.0419 -1.4874
16147SOL     OW50114   7.511   7.557   6.420 -0.2791  0.1443  0.4240
16147SOL    HW150115   7.459   7.635   6.437 -1.1791 -0.0665 -1.1791
16147SOL    HW250116   7.580   7.586   6.360 -1.1335 -0.4301 -0.8783
16148SOL     OW50117   4.119   5.994   5.215  0.0151  0.2944  0.4391
16148SOL    HW150118   4.069   6.045   5.151 -0.9180 -1.0576  0.0635
16148SOL    HW250119   4.060   5.983   5.289  0.7263  0.9508  1.1328
16149SOL     OW50120   6.741   6.580   1.730  0.2152  0.1986  0.6837
16149SOL    HW150121   6.651   6.551   1.744 -0.1281  0.3573 -0.9826
16149SOL    HW250122   6.792   6.530   1.793 -0.5390 -2.9082 -0.9348
16150SOL     OW50123   4.088   2.346   5.760  0.0551 -0.5664  0.2605
16150SOL    HW150124   4.117   2.392   5.839  0.0915 -0.6033  0.2683
16150SOL    HW250125   4.084   2.415   5.693 -1.0274 -0.3072  0.5569
16151SOL     OW50126   6.965   7.239   1.616  0.2988 -0.1798 -0.0481
16151SOL    HW150127   6.924   7.188   1.686 -0.1409 -0.3715 -0.4394
16151SOL    HW250128   6.914   7.319   1.611  1.5544  0.7351  1.1883
16152SOL     OW50129   4.378   8.764   0.197 -0.1604 -0.1717  0.2440
16152SOL    HW150130   4.340   8.850   0.178 -1.6108 -0.6651  0.7516
16152SOL    HW250131   4.456   8.782   0.250 -0.6010  0.8168  0.5692
16153SOL     OW50132   1.478   5.067   3.831 -0.2780 -0.4613  0.4420
16153SOL    HW150133   1.449   5.158   3.826  1.7953  0.2138 -0.9415
16153SOL    HW250134   1.544   5.066   3.900 -2.3090 -1.6386  2.5151
16154SOL     OW50135   1.260   5.027   4.250 -0.2625  0.3248 -0.2821
16154SOL    HW150136   1.290   5.013   4.340 -1.8439 -0.9496  0.0801
16154SOL    HW250137   1.243   4.940   4.216 -2.3341  0.8918 -0.8608
16155SOL     OW50138   7.361   7.630   8.134 -0.3139  0.3251 -0.0075
16155SOL    HW150139   7.315   7.616   8.217  1.0828 -0.5893  0.6506
16155SOL    HW250140   7.291   7.642   8.069 -1.4903 -0.8860  0.9706
16156SOL     OW50141   7.147   4.096   6.305  0.0689 -0.1232  0.2481
16156SOL    HW150142   7.238   4.101   6.277  0.6510  1.4214  2.2017
16156SOL    HW250143   7.116   4.187   6.302 -1.2096 -0.5308  0.2895
16157SOL     OW50144   0.797   0.679   7.610 -0.6078  0.1103 -0.0816
16157SOL    HW150145   0.815   0.773   7.608  0.2876 -0.0538 -1.6339
16157SOL    HW250146   0.760   0.660   7.524  0.9542 -1.2479 -0.5065
16158SOL     OW50147   9.478   3.617   3.937 -0.0267  0.5876  0.0602
16158SOL    HW150148   9.523   3.683   3.885 -0.0154 -0.4110 -1.2475
16158SOL    HW250149   9.413   3.580   3.877 -1.1486  0.5260  1.2666
16159SOL     OW50150   4.497   5.767   9.564 -0.1565  0.5278 -0.2649
16159SOL    HW150151   4.521   5.755   9.656 -2.9594 -1.7173  0.3543
16159SOL    HW250152   4.431   5.837   9.566 -0.9160 -0.1670 -0.3697
16160SOL     OW50153   4.726   1.865   8.739  0.2698 -0.2204  0.0309
16160SOL    HW150154   4.760   1.929   8.676  0.4926  0.9132  1.2393
16160SOL    HW250155   4.670   1.807   8.688  0.4074  0.6842 -1.1844
16161SOL     OW50156   5.200   7.407   3.521 -0.1278 -0.6641 -0.6630
16161SOL    HW150157   5.158   7.424   3.437  0.5501 -0.8805 -1.0589
16161SOL    HW250158   5.274   7.350   3.499  0.3556 -0.3067  0.0137
16162SOL     OW50159   9.674   6.896   0.051  0.8455 -0.0671  0.0420
16162SOL    HW150160   9.747   6.948   0.016 -1.0434  2.0186 -1.1257
16162SOL    HW250161   9.597   6.949   0.033 -0.9164 -1.7708  1.9968
16163SOL     OW50162   8.976   1.177   3.985 -0.7858 -0.0809  0.5054
16163SOL    HW150163   8.934   1.226   3.914  0.7359 -0.2508 -0.5700
16163SOL    HW250164   9.062   1.152   3.950 -1.4917 -3.6790  0.9151
16164SOL     OW50165   5.093   8.323   0.083  0.1206 -0.4472  0.4656
16164SOL    HW150166   5.123   8.232   0.085  0.6414 -0.3126 -0.6637
16164SOL    HW250167   5.155   8.371   0.137  0.7070 -0.5262 -0.1295
16165SOL     OW50168   2.401   4.046   9.481 -0.7819  0.4659 -0.7733
16165SOL    HW150169   2.464   4.114   9.506 -1.8503  1.1446  0.1743
16165SOL    HW250170   2.344   4.089   9.417  0.2352 -0.4226 -2.3357
16166SOL     OW50171   4.843   5.725   7.017  0.0679 -0.3010 -0.1296
16166SOL    HW150172   4.866   5.814   7.045  2.0182 -1.0422  0.8306
16166SOL    HW250173   4.786   5.738   6.941  0.5701  1.7776 -0.2295
16167SOL     OW50174   4.195   6.828   7.389 -0.0243 -0.5623  0.2387
16167SOL    HW150175   4.191   6.748   7.338 -1.7197 -0.0269 -0.5236
16167SOL    HW250176   4.193   6.898   7.324 -0.0744  0.1087  0.9514
16168SOL     OW50177   6.127   7.732   5.237 -0.8189  0.3228 -0.0107
16168SOL    HW150178   6.134   7.824   5.210 -1.5294  0.3505 -0.1117
16168SOL    HW250179   6.194   7.722   5.304  0.3963  0.4867 -1.1556
16169SOL     OW50180   1.818   3.023   5.514 -0.7414  0.1684 -0.0674
16169SOL    HW150181   1.821   2.939   5.558  0.9081  0.8682  1.2662
16169SOL    HW250182   1.818   3.087   5.585 -1.3109  1.3229 -1.0642
16170SOL     OW50183   3.408   6.853   2.492  0.0141 -0.1471  0.2688
16170SOL    HW150184   3.387   6.763   2.516  0.8956 -0.9020 -1.5903
16170SOL    HW250185   3.377   6.862   2.402  1.4058  0.8860 -0.1395
16171SOL     OW50186   8.658   7.872   4.290  0.4845 -0.4530 -0.1845
16171SOL    HW150187   8.611   7.800   4.249 -3.1746  0.4650  1.9720
16171SOL    HW250188   8.682   7.929   4.217 -1.6869 -1.0938 -1.5041
16172SOL     OW50189   1.225   9.108   5.806  0.0585  0.3584  0.4311
16172SOL    HW150190   1.185   9.066   5.730  0.7426 -2.5406  1.5430
16172SOL    HW250191   1.199   9.054   5.881  2.7418  0.6421  1.7200
16173SOL     OW50192   6.944   8.656   8.224 -0.0753  0.4241  0.0068
16173SOL    HW150193   6.895   8.728   8.185 -1.0512 -0.4186 -0.3384
16173SOL    HW250194   6.881   8.610   8.279  0.6249  0.0177  0.4972
16174SOL     OW50195   9.235   4.998   6.888 -0.2645 -0.2912  0.2704
16174SOL    HW150196   9.236   5.089   6.920 -0.4410  0.1424 -0.9073
16174SOL    HW250197   9.312   4.958   6.929  0.5341  0.7518 -0.1645
16175SOL     OW50198   5.577   4.799   9.593  0.1139  0.3924 -0.0089
16175SOL    HW150199   5.525   4.844   9.660  1.0202  1.7520 -0.1799
16175SOL    HW250200   5.603   4.868   9.533  0.6891 -0.5501 -0.8733
16176SOL     OW50201   6.100   1.482   4.451 -0.2100  0.2835 -0.2401
16176SOL    HW150202   6.013   1.446   4.434  0.0505  0.7559 -3.1398
16176SOL    HW250203   6.098   1.568   4.409  2.0468 -0.2456 -1.5979
16177SOL     OW50204   0.241   8.085   6.548  0.1326  0.2317 -0.0198
16177SOL    HW150205   0.242   8.089   6.644 -0.5005 -0.6811  0.0414
16177SOL    HW250206   0.312   8.143   6.521  2.1368 -1.5206  1.0982
16178SOL     OW50207   5.220   8.421   6.211 -0.4602  0.9403  0.0362
16178SOL    HW150208   5.261   8.498   6.250 -1.2661  0.5934  1.6464
16178SOL    HW250209   5.126   8.442   6.211 -0.6853 -0.0177  0.4542
16179SOL     OW50210   4.777   7.332   4.968 -0.2633  0.0784  0.1794
16179SOL    HW150211   4.869   7.314   4.950 -0.7985 -0.6129 -2.0901
16179SOL    HW250212   4.760   7.417   4.928 -0.9707 -0.4964 -0.7793
16180SOL     OW50213   2.464   5.534   4.244 -0.1453  0.3987  0.0083
16180SOL    HW150214   2.486   5.588   4.167  1.8160  0.2797  0.4322
16180SOL    HW250215   2.489   5.446   4.218  0.1806  0.3000  0.6675
16181SOL     OW50216   3.216   4.505   6.856 -0.2097 -0.6589 -0.1578
16181SOL    HW150217   3.222   4.457   6.774  1.7949 -0.1951 -0.3340
16181SOL    HW250218   3.281   4.576   6.847 -1.4665  0.6994  0.9801
16182SOL     OW50219   6.533   6.254   6.966  0.0376  0.2171  0.4991
16182SOL    HW150220   6.463   6.318   6.955 -0.4069 -0.4151 -0.5263
16182SOL    HW250221   6.586   6.262   6.886  0.8751  0.3643  1.0499
16183SOL     OW50222   7.619   2.985   6.484  0.0997 -0.3182 -0.2289
16183SOL    HW150223   7.564   3.059   6.508 -0.4858 -0.6414 -0.5404
16183SOL    HW250224   7.705   3.006   6.519 -0.3134  0.0296  0.5965
16184SOL     OW50225   8.342   4.359   3.401  0.0013  0.0726  0.4730
16184SOL    HW150226   8.368   4.267   3.397  1.6240  0.5424 -1.3944
16184SOL    HW250227   8.306   4.377   3.313 -0.2312  1.2470  0.7966
16185SOL     OW50228   4.054   2.409   7.624  0.2306 -0.1062  0.4032
16185SOL    HW150229   4.055   2.470   7.698 -1.9163  0.0985  0.3276
16185SOL    HW250230   3.962   2.407   7.596  0.2248 -3.3755  0.3770
16186SOL     OW50231   3.625   2.812   1.146  0.1783  0.2719 -0.6438
16186SOL    HW150232   3.676   2.733   1.164  0.1037  0.2455 -0.5478
16186SOL    HW250233   3.691   2.880   1.130  0.2613 -0.1240 -2.1672
16187SOL     OW50234   6.014   9.497   7.898 -0.2744  0.1569  0.0097
16187SOL    HW150235   6.106   9.483   7.878  0.3816  2.8828  0.6283
16187SOL    HW250236   5.992   9.578   7.852 -2.3739 -0.4431 -0.1271
16188SOL     OW50237   7.701   3.394   9.211  0.2258 -0.5815 -0.1891
16188SOL    HW150238   7.618   3.360   9.243 -1.0847  2.2379 -0.3491
16188SOL    HW250239   7.717   3.348   9.129 -1.5986 -0.6201 -0.5497
16189SOL     OW50240   3.261   4.221   3.657 -0.1980 -0.2253  0.3188
16189SOL    HW150241   3.201   4.293   3.641  1.5879  0.8046 -2.4614
16189SOL    HW250242   3.289   4.232   3.748 -1.3542  1.4717  0.5027
16190SOL     OW50243   1.314   8.475   0.689  0.2254 -0.3178  0.2929
16190SOL    HW150244   1.288   8.401   0.744  0.9268  0.0364  1.1426
16190SOL    HW250245   1.286   8.552   0.738  1.4679  0.0247  0.5140
16191SOL     OW50246   2.140   9.626   1.969  0.0885  0.2754  0.2960
16191SOL    HW150247   2.079   9.588   2.033  0.1154  1.2175  0.9089
16191SOL    HW250248   2.150   9.717   1.997 -1.2415  1.2412 -2.0374
16192SOL     OW50249   6.379   2.868   4.309 -0.0302 -0.3329  0.0453
16192SOL    HW150250   6.441   2.801   4.338 -0.9254 -1.7884 -1.2510
16192SOL    HW250251   6.423   2.911   4.235  1.4367  2.0575  2.1546
16193SOL     OW50252   8.111   9.085   9.239  0.3285 -0.2604 -0.5990
16193SOL    HW150253   8.030   9.090   9.289 -0.7706  0.5168 -2.3335
16193SOL    HW250254   8.087   9.036   9.160  2.0928 -1.8259 -0.2345
16194SOL     OW50255   1.589   6.161   6.765  0.8628 -0.1530  0.3442
16194SOL    HW150256   1.585   6.245   6.811 -0.5992 -0.4898  0.8888
16194SOL    HW250257   1.545   6.100   6.823  1.0416 -1.0912 -0.4834
16195SOL     OW50258   7.689   8.260   2.482  0.1133  0.3408 -0.2059
16195SOL    HW150259   7.622   8.231   2.420  0.2918  2.2114 -1.3679
16195SOL    HW250260   7.639   8.302   2.553 -0.0094  1.0826 -0.7132
16196SOL     OW50261   3.795   5.762   3.234 -0.0213  0.1895 -0.0374
16196SOL    HW150262   3.886   5.791   3.228  0.8110 -2.0815  0.4911
16196SOL    HW250263   3.755   5.792   3.152  1.1246  1.4244 -0.1777
16197SOL     OW50264   4.071   8.380   6.459  0.5186 -0.1177 -0.7168
16197SOL    HW150265   4.101   8.465   6.491 -0.0911  0.1624 -0.8654
16197SOL    HW250266   4.043   8.397   6.368 -2.6251  0.2962  0.1939
16198SOL     OW50267   6.017   1.855   2.186  0.3146  0.6001 -0.1848
16198SOL    HW150268   5.955   1.899   2.245 -1.3323 -0.4573 -1.0500
16198SOL    HW250269   6.070   1.801   2.244  0.0028  1.0457  0.5319
16199SOL     OW50270   5.269   9.462   0.385  0.3352  0.1124  0.6053
16199SOL    HW150271   5.244   9.380   0.427 -0.4197 -0.0976 -0.2088
16199SOL    HW250272   5.186   9.509   0.374  0.6687  0.6613  0.4230
16200SOL     OW50273   9.018   0.563   6.851 -0.0129 -0.6605 -0.0454
16200SOL    HW150274   9.021   0.614   6.771  0.1518 -1.0807 -0.3111
16200SOL    HW250275   8.925   0.549   6.867 -0.1242  0.6956  0.6690
16201SOL     OW50276   6.911   7.906   6.035 -0.2491  0.5313  0.0275
16201SOL    HW150277   6.919   7.828   5.980  0.0985  0.4126  0.2380
16201SOL    HW250278   6.840   7.956   5.996 -0.3436  0.2035 -0.2282
16202SOL     OW50279   0.002   2.962   4.187 -0.3152 -0.5650 -0.7748
16202SOL    HW150280   0.001   2.867   4.193 -0.8149 -0.4732  1.1966
16202SOL    HW250281  -0.086   2.989   4.211  0.2744  0.4534  0.3577
16203SOL     OW50282   4.556   1.650   1.911 -0.3570  0.0914  0.1069
16203SOL    HW150283   4.522   1.707   1.841 -1.0982  1.1279  1.2688
16203SOL    HW250284   4.651   1.658   1.903 -0.3378 -1.5941 -2.1776
16204SOL     OW50285   5.074   1.361   3.748  0.6763  0.6470 -0.2576
16204SOL    HW150286   5.034   1.344   3.833 -0.8200  0.9880 -0.8704
16204SOL    HW250287   5.045   1.288   3.693  3.0759 -0.5620 -0.0770
16205SOL     OW50288   4.555   0.915   9.410 -0.1012  0.5221  0.0886
16205SOL    HW150289   4.590   0.852   9.473 -0.8945  1.1240  1.1604
16205SOL    HW250290   4.631   0.941   9.358  0.7639  0.6988  1.3934
16206SOL     OW50291   1.547   4.578   9.487 -0.4060 -0.2392 -0.2098
16206SOL    HW150292   1.633   4.564   9.527 -0.2412  2.9763  0.8903
16206SOL    HW250293   1.489   4.592   9.561 -1.4426 -0.3480 -0.9901
16207SOL     OW50294   5.283   3.387   5.943  0.1590 -0.1347  0.3869
16207SOL    HW150295   5.320   3.473   5.922 -1.6446  0.9619  1.4297
16207SOL    HW250296   5.331   3.326   5.887  0.6544  1.6876 -1.2709
16208SOL     OW50297   7.248   2.106   2.540  0.2349 -0.7922  0.0111
16208SOL    HW150298   7.259   2.173   2.473 -0.3320 -0.7135 -0.0025
16208SOL    HW250299   7.175   2.052   2.509  0.3862 -1.1424  0.2477
16209SOL     OW50300   6.158   2.150   4.377  0.1819 -0.3472 -0.1443
16209SOL    HW150301   6.163   2.239   4.340  1.7027  0.2085  1.2753
16209SOL    HW250302   6.231   2.146   4.438  0.4330 -2.7743 -0.5379
16210SOL     OW50303   1.521   5.554   3.357  0.6433  0.7452 -0.1298
16210SOL    HW150304   1.468   5.592   3.287  0.5657 -0.4443 -0.7371
16210SOL    HW250305   1.489   5.464   3.365  1.2299  0.6054  0.8637
16211SOL     OW50306   9.151   1.012   5.400 -0.5964  0.2516  0.0722
16211SOL    HW150307   9.145   1.107   5.410  1.0782  0.5352 -1.0805
16211SOL    HW250308   9.203   0.983   5.475  0.6060  0.5520 -0.6150
16212SOL     OW50309   1.544   9.233   1.819 -0.5096  0.1423  0.3845
16212SOL    HW150310   1.526   9.285   1.741 -0.1868 -0.5265 -0.1387
16212SOL    HW250311   1.545   9.297   1.890 -1.6047  0.6510 -0.0343
16213SOL     OW50312   7.033   8.212   9.560 -0.2758  0.1109  0.4464
16213SOL    HW150313   7.099   8.221   9.491 -0.7647  1.1570  0.0929
16213SOL    HW250314   6.998   8.301   9.570  1.0269  0.4111  3.2920
16214SOL     OW50315   3.319   1.543   6.920 -0.2400 -0.5397  0.4444
16214SOL    HW150316   3.254   1.474   6.906  1.6149 -2.7207  1.7992
16214SOL    HW250317   3.391   1.499   6.966  0.4778  2.6475  2.6958
16215SOL     OW50318   8.288   1.050   9.320 -0.0424  0.2634  0.0679
16215SOL    HW150319   8.248   1.137   9.319  1.6974  1.1856  2.1989
16215SOL    HW250320   8.217   0.990   9.297 -1.3927  2.1789 -1.0274
16216SOL     OW50321   8.162   9.238   1.940  0.0221 -0.0202  0.0918
16216SOL    HW150322   8.161   9.220   2.034 -1.9056  0.5720  0.2262
16216SOL    HW250323   8.197   9.158   1.900  0.9829 -0.2279  1.2955
16217SOL     OW50324   1.065   5.008   0.498  0.0191  0.1386  0.9420
16217SOL    HW150325   1.084   5.101   0.489 -0.4514  0.1018 -1.0109
16217SOL    HW250326   0.981   4.997   0.454 -0.0919 -1.1623  1.4475
16218SOL     OW50327   3.420   5.658   7.581  0.3707  0.2303 -0.4521
16218SOL    HW150328   3.432   5.659   7.676  3.1701  2.2870 -0.7023
16218SOL    HW250329   3.348   5.719   7.565 -0.6846 -0.7556  0.3193
16219SOL     OW50330   3.788   4.537   3.330  0.1150 -0.1253 -0.0074
16219SOL    HW150331   3.772   4.629   3.353  0.2825 -0.4623  1.6303
16219SOL    HW250332   3.775   4.489   3.412  0.9192 -1.4595 -0.6169
16220SOL     OW50333   3.037   4.100   5.454 -0.0526 -0.1016  0.3277
16220SOL    HW150334   2.977   4.147   5.513  2.7051  1.7208  1.9114
16220SOL    HW250335   3.069   4.167   5.395 -0.1020 -1.2156 -1.0162
16221SOL     OW50336   5.814   5.290   3.720  0.3543  0.0731 -0.3765
16221SOL    HW150337   5.781   5.233   3.650  0.0062  1.2471 -1.1876
16221SOL    HW250338   5.737   5.308   3.774  0.9123 -2.1296  1.3142
16222SOL     OW50339   3.060   1.867   2.954 -0.5153 -0.1843  0.3566
16222SOL    HW150340   3.130   1.802   2.948  0.7567  1.0687  1.1222
16222SOL    HW250341   3.022   1.869   2.866 -0.6223 -1.9603  0.3172
16223SOL     OW50342   6.982   3.818   7.966 -0.1545 -0.6061  0.2865
16223SOL    HW150343   6.956   3.730   7.941  0.1282 -0.7514  0.5011
16223SOL    HW250344   6.906   3.855   8.009 -0.8313 -0.1808 -1.1963
16224SOL     OW50345   6.420   1.979   6.005  0.0031 -0.3222  0.0146
16224SOL    HW150346   6.426   2.074   5.991 -1.0159 -0.3067 -0.4242
16224SOL    HW250347   6.481   1.941   5.943 -0.6848 -0.0128 -0.8660
16225SOL     OW50348   5.501   1.383   5.683  0.8449 -0.2195  0.0804
16225SOL    HW150349   5.489   1.478   5.673  0.6841 -0.3241 -0.7778
16225SOL    HW250350   5.451   1.361   5.761 -1.8225 -0.0937 -1.4826
16226SOL     OW50351   2.500   9.246   6.264  0.6673 -0.3007  0.1816
16226SOL    HW150352   2.514   9.332   6.224  1.6264 -0.6111 -0.1687
16226SOL    HW250353   2.444   9.200   6.201  0.5567 -0.1050  0.1347
16227SOL     OW50354   5.945   0.432   5.117  0.1445  0.6426 -0.1224
16227SOL    HW150355   6.027   0.419   5.068  0.1127  2.5812 -0.7822
16227SOL    HW250356   5.908   0.512   5.081 -1.8013  0.1057  0.5480
16228SOL     OW50357   5.186   1.669   4.984 -0.2981 -0.2574 -0.2027
16228SOL    HW150358   5.170   1.579   5.011 -1.5620  0.1440  0.4418
16228SOL    HW250359   5.106   1.716   5.007  0.4496  1.0950 -0.2575
16229SOL     OW50360   2.970   2.020   9.382 -0.3504 -0.3123 -0.1225
16229SOL    HW150361   2.902   1.967   9.340 -0.5241 -0.3770  0.2384
16229SOL    HW250362   3.041   2.023   9.318  0.0314 -1.7471  0.2070
16230SOL     OW50363   3.585   8.097   0.493 -0.8977 -0.1701 -0.1678
16230SOL    HW150364   3.534   8.017   0.477 -2.1291  0.6436 -0.4832
16230SOL    HW250365   3.594   8.101   0.588  1.0042 -1.7494 -0.2205
16231SOL     OW50366   5.711   8.221   0.726  0.0035  0.2683 -0.6721
16231SOL    HW150367   5.729   8.143   0.779  0.3465  0.8903  0.1415
16231SOL    HW250368   5.618   8.214   0.705  0.2967 -1.0068 -1.6814
16232SOL     OW50369   0.282   0.966   5.538 -0.2184  0.0982  0.0427
16232SOL    HW150370   0.282   1.016   5.619  2.7082  1.4744 -0.6862
16232SOL    HW250371   0.207   1.000   5.489 -3.0625 -1.8718  2.6206
16233SOL     OW50372   6.181   4.751   1.000  0.1690 -0.0041  0.2628
16233SOL    HW150373   6.203   4.673   0.948  0.7280 -0.4199  1.1097
16233SOL    HW250374   6.125   4.718   1.070  0.0410  0.4334  0.3685
16234SOL     OW50375   4.923   3.632   1.194 -0.6317 -0.0863 -0.8242
16234SOL    HW150376   4.851   3.659   1.137 -1.4724 -1.3440 -0.4094
16234SOL    HW250377   4.988   3.702   1.186 -1.9803  1.1914 -1.0562
16235SOL     OW50378   4.472   8.978   2.442  0.3260  0.3053 -0.4689
16235SOL    HW150379   4.505   8.905   2.390 -1.3486 -0.3959 -0.6074
16235SOL    HW250380   4.435   8.937   2.520  0.3518  1.1124 -0.0244
16236SOL     OW50381   7.962   5.092   5.795 -0.4603  0.3021  0.3979
16236SOL    HW150382   7.936   5.001   5.811 -0.5763 -0.2228 -2.2966
16236SOL    HW250383   8.057   5.089   5.783 -0.6467  0.1466 -1.4487
16237SOL     OW50384   2.768   7.832   8.511  0.0008 -0.2059  0.3550
16237SOL    HW150385   2.759   7.915   8.465  1.8812  0.2565  0.7281
16237SOL    HW250386   2.732   7.849   8.598  1.5274  0.6553  0.8572
16238SOL     OW50387   0.735   4.487   2.256 -0.3314 -0.4801 -0.7343
16238SOL    HW150388   0.807   4.496   2.193  1.0750  2.0558  1.0697
16238SOL    HW250389   0.773   4.437   2.328 -1.0147 -0.8419 -0.6194
16239SOL     OW50390   8.482   3.355   0.915 -1.0232 -0.8154  0.0331
16239SOL    HW150391   8.571   3.390   0.920 -1.4617  0.5291 -0.9352
16239SOL    HW250392   8.434   3.404   0.982 -1.4850 -0.0525 -0.8456
16240SOL     OW50393   8.879   1.565   3.661  0.3961  0.0446 -0.5554
16240SOL    HW150394   8.923   1.603   3.738  0.7621  0.6481 -1.0585
16240SOL    HW250395   8.950   1.542   3.602  0.0575  0.7338 -1.2415
16241SOL     OW50396   5.868   3.910   6.781 -0.2897  0.1214  0.0690
16241SOL    HW150397   5.861   3.919   6.876 -1.8035 -0.1069 -0.0008
16241SOL    HW250398   5.954   3.947   6.760  0.6030 -0.9689  1.6525
16242SOL     OW50399   5.853   7.564   4.882 -0.4521  0.4469 -0.2097
16242SOL    HW150400   5.799   7.486   4.876 -0.7383  0.6831 -0.7814
16242SOL    HW250401   5.900   7.555   4.965 -1.7745  0.4892  0.5833
16243SOL     OW50402   9.146   7.627   6.080 -0.2522 -0.1556  1.5582
16243SOL    HW150403   9.087   7.553   6.094  0.3614 -0.9054  0.3576
16243SOL    HW250404   9.191   7.638   6.164 -1.3445 -0.2273  2.1682
16244SOL     OW50405   3.968   8.406   4.965  0.0002  0.0002  0.3471
16244SOL    HW150406   3.976   8.432   5.057  1.2545  1.1252 -0.0388
16244SOL    HW250407   4.056   8.379   4.940 -0.6534 -1.8410 -0.1272
16245SOL     OW50408   0.950   2.921   4.378  0.2265 -0.1728 -0.2334
16245SOL    HW150409   0.936   2.913   4.472  0.0905 -3.0980 -0.4111
16245SOL    HW250410   0.862   2.937   4.342  0.2638  0.8329  0.0743
16246SOL     OW50411   4.531   8.996   3.790 -0.2139  0.4492 -0.5812
16246SOL    HW150412   4.443   8.988   3.825 -0.3983 -0.2320 -1.1908
16246SOL    HW250413   4.583   9.028   3.864 -0.6145 -0.8424  0.3020
16247SOL     OW50414   3.279   1.827   5.376 -0.4273  0.0521  0.7164
16247SOL    HW150415   3.330   1.899   5.339  0.7358 -0.9515  0.3084
16247SOL    HW250416   3.344   1.768   5.414 -1.3726 -0.7034  1.2211
16248SOL     OW50417   2.101   9.447   2.440  1.1095 -0.1244 -0.1841
16248SOL    HW150418   2.133   9.527   2.481 -0.8824  0.3437  0.5638
16248SOL    HW250419   2.118   9.378   2.505  0.9484  0.0452  0.0365
16249SOL     OW50420   5.585   2.985   5.989 -0.0281 -0.4726  0.0537
16249SOL    HW150421   5.497   3.003   6.022  0.3572  0.8197  0.4092
16249SOL    HW250422   5.577   2.997   5.894 -0.2918 -0.6547  0.0486
16250SOL     OW50423   0.502   5.747   7.338 -0.2473 -0.2559  0.0686
16250SOL    HW150424   0.496   5.705   7.423 -0.7611  0.9000  0.6273
16250SOL    HW250425   0.595   5.747   7.317 -0.2304 -1.5519  0.0914
16251SOL     OW50426   5.956   8.494   4.473 -0.4844  0.2742  0.5631
16251SOL    HW150427   5.914   8.499   4.388 -0.4677  0.9145  0.5866
16251SOL    HW250428   5.895   8.539   4.533  0.8038  2.4674  0.3601
16252SOL     OW50429   2.182   2.731   7.371  0.3917 -0.7698 -0.1940
16252SOL    HW150430   2.260   2.675   7.374  0.2172 -0.9844  0.5485
16252SOL    HW250431   2.210   2.814   7.409  0.4291 -0.6150 -0.5474
16253SOL     OW50432   4.035   5.245   6.966 -0.2881  0.5161 -0.4469
16253SOL    HW150433   4.007   5.230   7.056  1.3582 -1.4598 -0.1910
16253SOL    HW250434   3.978   5.315   6.934 -2.0897  0.0465  1.5429
16254SOL     OW50435   6.933   2.045   3.620 -0.1857 -0.0029 -0.1053
16254SOL    HW150436   6.990   1.969   3.608  1.3722  1.0670  0.2302
16254SOL    HW250437   6.892   2.059   3.534  0.8155 -0.2134 -0.6281
16255SOL     OW50438   1.641   0.766   7.453 -0.2754 -0.1055  0.4534
16255SOL    HW150439   1.663   0.709   7.527 -1.1863 -1.1751 -0.0642
16255SOL    HW250440   1.593   0.839   7.492  2.0396  1.0809  1.3045
16256SOL     OW50441   2.074   3.024   6.111 -0.4816 -0.2017  0.6263
16256SOL    HW150442   2.158   3.045   6.151 -0.2510  0.3471 -0.1415
16256SOL    HW250443   2.030   2.969   6.176  0.0340  0.3755  1.4788
16257SOL     OW50444   8.609   1.408   4.570 -0.5877 -0.0518  0.2379
16257SOL    HW150445   8.652   1.480   4.616  1.9156 -1.1750 -0.1573
16257SOL    HW250446   8.641   1.414   4.480 -1.2713 -0.9486 -0.0777
16258SOL     OW50447   4.965   5.619   5.234 -0.4477  0.5633 -0.1942
16258SOL    HW150448   4.909   5.690   5.201  0.8834  2.5046  1.4217
16258SOL    HW250449   5.039   5.616   5.173 -1.3878 -0.7914 -1.3260
16259SOL     OW50450   4.986   0.086   6.776  0.3753  0.3067  0.0436
16259SOL    HW150451   4.904   0.040   6.791  0.1075  0.7469 -0.0550
16259SOL    HW250452   5.012   0.059   6.688 -0.6020  1.5513 -0.6674
16260SOL     OW50453   9.646   3.846   0.291  0.3635  0.1007  0.2865
16260SOL    HW150454   9.580   3.831   0.359 -2.1718 -0.5375 -2.1435
16260SOL    HW250455   9.606   3.911   0.233  2.9574  1.5362 -0.0259
16261SOL     OW50456   9.267   4.873   2.294  0.3093  0.2231 -0.1185
16261SOL    HW150457   9.358   4.874   2.263 -0.0267 -0.5773 -1.1904
16261SOL    HW250458   9.232   4.791   2.260 -0.8890  0.6355  0.0935
16262SOL     OW50459   1.056   5.113   3.041 -0.3420 -0.2437 -0.1331
16262SOL    HW150460   0.973   5.067   3.048 -0.1984 -0.3491  1.3219
16262SOL    HW250461   1.035   5.205   3.058 -0.1702 -0.2795  0.3034
16263SOL     OW50462   6.423   7.017   8.625  0.1700 -0.0319  0.1042
16263SOL    HW150463   6.415   7.104   8.586  1.4233  1.1545  2.2724
16263SOL    HW250464   6.501   7.023   8.680  1.5521 -3.2035 -1.2591
16264SOL     OW50465   9.369   3.099   8.804  0.3671 -0.0103 -0.2421
16264SOL    HW150466   9.433   3.065   8.868  0.5941  1.8717  0.5960
16264SOL    HW250467   9.422   3.118   8.726  0.1868 -1.7660 -0.8350
16265SOL     OW50468   2.741   0.961   3.142  0.0787 -0.2141  0.0113
16265SOL    HW150469   2.677   0.891   3.151 -0.1197  0.0764  0.9860
16265SOL    HW250470   2.730   1.014   3.221  0.9119  0.3447 -0.2306
16266SOL     OW50471   5.424   0.485   3.566 -0.1162  0.3064  0.5944
16266SOL    HW150472   5.402   0.399   3.602  0.7995 -1.2513 -2.2781
16266SOL    HW250473   5.352   0.506   3.508 -0.4027  1.6170  1.3802
16267SOL     OW50474   4.055   0.569   4.433 -0.1580 -0.3921  1.0683
16267SOL    HW150475   4.051   0.577   4.528 -1.9112 -0.5649  1.0458
16267SOL    HW250476   4.023   0.653   4.400  1.5520  0.1096  0.5874
16268SOL     OW50477   7.392   1.861   5.046  0.0666  0.6231 -0.6063
16268SOL    HW150478   7.323   1.795   5.052 -2.2276  2.9067  0.1626
16268SOL    HW250479   7.421   1.857   4.955 -0.8040 -0.6678 -0.8467
16269SOL     OW50480   3.191   8.652   2.861  0.3352 -0.2107  0.5905
16269SOL    HW150481   3.176   8.573   2.914  0.3445 -0.2511  0.5317
16269SOL    HW250482   3.116   8.708   2.880  0.1292 -0.3992  0.3276
16270SOL     OW50483   5.008   8.991   3.709  0.1984  0.2546 -0.8366
16270SOL    HW150484   4.944   9.012   3.777 -0.0510 -0.9448 -0.6627
16270SOL    HW250485   5.078   8.945   3.756  0.1721 -0.3049 -1.3368
16271SOL     OW50486   1.167   9.113   6.932 -0.1377 -0.8690  0.2068
16271SOL    HW150487   1.185   9.029   6.891 -4.8005 -1.5881 -0.9870
16271SOL    HW250488   1.204   9.178   6.871 -0.3073 -2.0455 -1.2052
16272SOL     OW50489   4.518   1.108   7.635  0.6731  0.3618  0.0506
16272SOL    HW150490   4.466   1.125   7.557  0.6557 -0.5441 -0.1447
16272SOL    HW250491   4.581   1.180   7.639 -0.3105  1.2495  0.0563
16273SOL     OW50492   1.714   7.628   8.146  0.3783  0.0872 -0.1136
16273SOL    HW150493   1.625   7.602   8.171  0.0407  1.2856  0.0199
16273SOL    HW250494   1.702   7.703   8.088  1.2341 -1.3809 -2.3356
16274SOL     OW50495   8.128   8.464   2.029  0.2773  0.0114  0.0507
16274SOL    HW150496   8.094   8.453   2.118 -0.8608 -1.0651 -0.4799
16274SOL    HW250497   8.094   8.549   2.001 -0.1966 -0.0879  0.3028
16275SOL     OW50498   0.673   2.523   5.839 -0.2421 -0.2451 -0.3662
16275SOL    HW150499   0.608   2.506   5.907 -1.5388 -0.0958 -1.4953
16275SOL    HW250500   0.755   2.489   5.873 -0.5172  1.1360  1.8644
16276SOL     OW50501   6.682   8.626   8.023 -0.4410 -0.7305 -0.0203
16276SOL    HW150502   6.629   8.692   7.979 -2.2304 -1.4597  0.9484
16276SOL    HW250503   6.761   8.618   7.969 -0.1480  2.1723 -0.1431
16277SOL     OW50504   4.295   8.499   6.101 -0.2069  0.1861 -0.2221
16277SOL    HW150505   4.325   8.571   6.156  0.0521  0.1016 -0.2518
16277SOL    HW250506   4.205   8.522   6.077  0.0330  0.7260 -0.6184
16278SOL     OW50507   2.846   3.317   9.310  0.0107 -0.2803 -0.5477
16278SOL    HW150508   2.798   3.254   9.363 -1.8569  0.1553 -1.6281
16278SOL    HW250509   2.847   3.397   9.362 -2.0779  0.2376 -1.1961
16279SOL     OW50510   3.352   7.700   8.448  0.1671  0.3896  0.5344
16279SOL    HW150511   3.404   7.756   8.506 -0.4696  3.3770 -1.5334
16279SOL    HW250512   3.413   7.675   8.378 -0.4554  1.7860 -0.5547
16280SOL     OW50513   1.096   7.950   3.369  0.2561 -0.2434  0.9019
16280SOL    HW150514   1.060   8.039   3.366 -1.1730 -0.8178 -0.2286
16280SOL    HW250515   1.131   7.935   3.281 -1.4097 -1.5078  0.4020
16281SOL     OW50516   2.658   7.061   0.641 -0.5995  0.0577  0.4721
16281SOL    HW150517   2.631   7.000   0.710  1.1788 -0.6948  0.5434
16281SOL    HW250518   2.753   7.051   0.636 -0.2536  2.7191  0.3759
16282SOL     OW50519   1.845   7.009   6.704 -0.0776  0.0555 -0.3898
16282SOL    HW150520   1.822   6.974   6.618  2.1015  0.3119 -1.1415
16282SOL    HW250521   1.924   7.061   6.689 -0.2559  1.0188  1.5922
16283SOL     OW50522   3.974   9.536   0.825 -0.3474 -0.2378 -0.6047
16283SOL    HW150523   3.902   9.598   0.836 -0.3272 -0.2307 -0.5125
16283SOL    HW250524   3.972   9.513   0.732 -0.6999 -0.5212 -0.5249
16284SOL     OW50525   5.044   3.966   0.319  0.1163  0.0679 -1.1277
16284SOL    HW150526   5.089   3.885   0.343  0.4527  0.3578 -0.7538
16284SOL    HW250527   5.113   4.032   0.316 -0.4789  0.8968  1.2076
16285SOL     OW50528   3.019   7.082   7.213 -0.3139 -0.0630 -0.0934
16285SOL    HW150529   3.028   7.002   7.161 -2.4897 -0.1199 -0.4975
16285SOL    HW250530   2.997   7.050   7.301  3.8881  0.0106  1.1812
16286SOL     OW50531   1.214   7.372   1.268  0.2045 -0.4566 -0.3916
16286SOL    HW150532   1.142   7.434   1.281  0.5911  0.2380 -1.4148
16286SOL    HW250533   1.191   7.297   1.322 -0.2807  0.5765  0.9110
16287SOL     OW50534   9.186   9.434   6.869 -0.2929  0.0045 -0.5001
16287SOL    HW150535   9.233   9.419   6.787 -1.1517  0.3798 -1.0638
16287SOL    HW250536   9.171   9.528   6.872 -0.6556 -0.0621 -0.1294
16288SOL     OW50537   4.045   0.190   9.585  0.8686 -0.0292  0.2599
16288SOL    HW150538   4.138   0.209   9.595  1.0764 -0.7605 -0.2135
16288SOL    HW250539   4.008   0.269   9.545  1.7333 -0.5976 -1.7788
16289SOL     OW50540   4.277   2.078   7.436 -0.2448 -0.4979  0.5833
16289SOL    HW150541   4.332   1.999   7.427  0.5740  0.0124  0.9549
16289SOL    HW250542   4.193   2.053   7.397  0.4987 -1.0465 -0.7406
16290SOL     OW50543   4.270   6.729   5.067  0.1972  0.1497 -0.0051
16290SOL    HW150544   4.313   6.647   5.091 -1.0490  0.1640  2.5537
16290SOL    HW250545   4.213   6.706   4.993 -0.9494 -1.6109  1.3496
16291SOL     OW50546   7.939   0.279   3.911  0.0219  0.0542  0.4518
16291SOL    HW150547   8.022   0.323   3.933 -1.5408  3.3090  0.3877
16291SOL    HW250548   7.936   0.204   3.971  1.9957  1.1222  2.0315
16292SOL     OW50549   0.818   1.760   3.302 -0.0111 -0.6136 -0.2621
16292SOL    HW150550   0.802   1.673   3.338 -1.1588 -0.3514 -0.1080
16292SOL    HW250551   0.834   1.815   3.379  0.7040 -0.6727 -0.3588
16293SOL     OW50552   1.371   2.602   3.808 -0.7777  0.1532  0.2675
16293SOL    HW150553   1.304   2.650   3.759 -0.7799 -1.2748 -1.2122
16293SOL    HW250554   1.449   2.604   3.752  0.1219  0.8915  1.4967
16294SOL     OW50555   8.509   8.643   1.231 -0.1486  0.1798 -0.1031
16294SOL    HW150556   8.596   8.613   1.259 -0.1931 -0.0017 -0.1560
16294SOL    HW250557   8.453   8.567   1.242 -0.5211  0.5906  0.9239
16295SOL     OW50558   6.357   1.624   2.120  0.1518  0.5965  0.3267
16295SOL    HW150559   6.451   1.604   2.114 -0.2169 -1.4960  0.9062
16295SOL    HW250560   6.314   1.548   2.081 -1.3685  0.1729  2.6879
16296SOL     OW50561   5.217   0.301   8.055  0.0311 -0.3730 -0.3601
16296SOL    HW150562   5.299   0.340   8.083 -0.7449  0.5881  0.6727
16296SOL    HW250563   5.202   0.338   7.968 -1.1249  2.4877  0.9344
16297SOL     OW50564   3.920   4.881   7.938 -0.6083  0.3320 -0.2812
16297SOL    HW150565   4.015   4.874   7.950 -0.8022 -2.0153  0.2321
16297SOL    HW250566   3.909   4.884   7.843 -0.0690 -1.1511 -0.4248
16298SOL     OW50567   4.393   7.779   9.578 -0.9564  0.3929  0.0226
16298SOL    HW150568   4.457   7.708   9.571  0.4917  1.5624  0.7521
16298SOL    HW250569   4.344   7.759   9.658 -0.0125  0.6090  0.6754
16299SOL     OW50570   8.674   9.588   2.476  0.1447  0.4025 -0.0638
16299SOL    HW150571   8.724   9.528   2.420 -1.1358 -1.3711  0.5816
16299SOL    HW250572   8.583   9.559   2.465 -0.4612  1.9540  0.6622
16300SOL     OW50573   0.642   5.391   4.764 -0.1760  0.1199  0.2530
16300SOL    HW150574   0.640   5.297   4.745 -2.6854  0.1961 -0.1640
16300SOL    HW250575   0.578   5.403   4.834 -1.7218  1.7862 -1.3235
16301SOL     OW50576   6.530   3.627   9.583  0.1776 -0.4930  0.9000
16301SOL    HW150577   6.535   3.532   9.574  2.0246 -0.2536 -1.9687
16301SOL    HW250578   6.438   3.648   9.567  0.2690 -1.6391 -1.6063
16302SOL     OW50579   3.936   6.025   0.839 -0.7934  0.0074  0.4629
16302SOL    HW150580   3.894   6.064   0.762 -2.6227 -2.3804  0.1123
16302SOL    HW250581   3.948   6.098   0.899  0.7321  1.9677 -2.0369
16303SOL     OW50582   2.698   9.195   6.864  0.0218 -0.1145  0.7784
16303SOL    HW150583   2.645   9.257   6.914 -1.9227 -0.2606 -0.9604
16303SOL    HW250584   2.717   9.240   6.782 -0.3543 -1.3317 -0.0081
16304SOL     OW50585   8.140   6.585   4.380  0.6532 -0.4097  0.4312
16304SOL    HW150586   8.058   6.542   4.406 -1.0151  2.3747  0.1465
16304SOL    HW250587   8.145   6.663   4.436  1.9325  0.6709 -1.0975
16305SOL     OW50588   7.764   2.518   5.243  0.1586 -0.4131  0.8134
16305SOL    HW150589   7.845   2.482   5.207  0.6592  1.2854  0.1285
16305SOL    HW250590   7.789   2.552   5.329  0.3879  0.7687  0.3032
16306SOL     OW50591   2.648   8.185   1.906 -0.0502 -0.8566 -0.6009
16306SOL    HW150592   2.714   8.122   1.936  1.2142  1.5044  1.9182
16306SOL    HW250593   2.566   8.152   1.942  0.4716 -1.4474  0.0921
16307SOL     OW50594   2.025   1.380   2.055  0.1240  0.2652  0.4450
16307SOL    HW150595   1.940   1.417   2.080  0.8773  1.3787  1.4594
16307SOL    HW250596   2.017   1.286   2.072 -1.0742  0.2626 -0.0191
16308SOL     OW50597   6.210   0.815   1.957  0.2494 -0.2657  0.6275
16308SOL    HW150598   6.148   0.830   2.028  0.0853 -1.9422  0.8650
16308SOL    HW250599   6.273   0.752   1.992 -0.2473 -1.7029 -0.9059
16309SOL     OW50600   1.913   6.149   0.076 -0.0611 -0.1657  0.3265
16309SOL    HW150601   2.007   6.152   0.095 -0.0311  0.0206  0.1531
16309SOL    HW250602   1.875   6.103   0.151 -0.0078  0.9745  1.0755
16310SOL     OW50603   2.347   5.898   5.441 -0.2156 -0.2798  0.4966
16310SOL    HW150604   2.268   5.940   5.407 -0.6697  0.2521  2.1114
16310SOL    HW250605   2.323   5.806   5.451 -0.0089 -0.4901 -0.7306
16311SOL     OW50606   3.087   1.626   5.337  0.3370 -0.4513  0.3203
16311SOL    HW150607   3.016   1.657   5.281  0.7167 -1.5846 -0.8323
16311SOL    HW250608   3.140   1.704   5.355 -1.4017  0.5198  1.5974
16312SOL     OW50609   0.913   3.901   6.628  0.1091 -0.2768  0.2525
16312SOL    HW150610   0.992   3.851   6.649 -0.6388 -1.3679  0.5583
16312SOL    HW250611   0.867   3.909   6.712 -0.2948  0.0029  0.0079
16313SOL     OW50612   7.466   7.295   4.658 -0.1180  0.4418 -0.1366
16313SOL    HW150613   7.401   7.353   4.698  0.6766  0.4663  1.1958
16313SOL    HW250614   7.513   7.351   4.596 -0.2456  0.8780  0.1516
16314SOL     OW50615   8.619   8.558   8.292  0.0974 -0.0632 -0.4308
16314SOL    HW150616   8.644   8.526   8.205 -0.2350 -1.9442  0.1219
16314SOL    HW250617   8.554   8.495   8.323  0.4107  0.4144  1.2975
16315SOL     OW50618   5.885   4.752   3.767 -0.1687  0.9415  0.1204
16315SOL    HW150619   5.810   4.755   3.708  2.1668 -0.9157 -3.2803
16315SOL    HW250620   5.877   4.667   3.812 -0.7729  1.3692  0.8501
16316SOL     OW50621   5.389   9.626   0.568 -0.0181  0.6320 -0.4729
16316SOL    HW150622   5.376   9.579   0.485 -0.7941 -0.9333  0.4790
16316SOL    HW250623   5.308   9.675   0.580 -1.0904 -1.2753  0.6139
16317SOL     OW50624   1.651   9.223   0.646 -0.2495  0.0307  0.4861
16317SOL    HW150625   1.587   9.277   0.600 -0.1826 -1.0028 -0.8528
16317SOL    HW250626   1.734   9.238   0.600  0.1613  0.1888  1.2558
16318SOL     OW50627   8.407   5.051   8.258  0.0975 -0.1921 -0.4878
16318SOL    HW150628   8.392   5.108   8.333 -0.6847 -0.5892 -0.3405
16318SOL    HW250629   8.440   5.110   8.190  0.4867  0.2238  0.0488
16319SOL     OW50630   0.712   9.273   1.227 -0.6945 -0.0097  0.2895
16319SOL    HW150631   0.720   9.325   1.147 -1.9772  2.3241  1.5689
16319SOL    HW250632   0.772   9.315   1.289 -0.8577 -0.8261  1.0295
16320SOL     OW50633   9.279   1.411   3.540  0.6705 -0.3209 -0.6016
16320SOL    HW150634   9.236   1.332   3.506 -1.0776  0.9467 -1.4974
16320SOL    HW250635   9.297   1.464   3.462 -0.4344  1.2216  0.1488
16321SOL     OW50636   9.229   8.495   0.233 -0.2109 -0.2411  0.3693
16321SOL    HW150637   9.211   8.567   0.292 -1.0894 -0.4719  0.3870
16321SOL    HW250638   9.209   8.528   0.146  0.6812 -0.0373  0.2312
16322SOL     OW50639   5.791   6.305   5.047 -0.0165  0.4372 -0.3809
16322SOL    HW150640   5.836   6.271   5.125  1.2405  0.3676 -1.1119
16322SOL    HW250641   5.723   6.241   5.028  1.6005 -1.1443 -1.0854
16323SOL     OW50642   4.243   1.547   9.385  0.0623  0.2795  0.2900
16323SOL    HW150643   4.316   1.605   9.407  1.2712 -1.4585  1.0529
16323SOL    HW250644   4.281   1.479   9.330 -1.2511 -0.0190 -0.2950
16324SOL     OW50645   9.667   8.803   7.816  0.4692 -0.1944  0.3490
16324SOL    HW150646   9.593   8.744   7.808 -0.6460  0.9506  1.6618
16324SOL    HW250647   9.640   8.883   7.771  0.9576  0.1812  0.7034
16325SOL     OW50648   7.827   1.827   2.135 -0.6229  0.1939  0.1772
16325SOL    HW150649   7.912   1.864   2.110 -0.8827  2.0084  1.8211
16325SOL    HW250650   7.849   1.745   2.180  0.2694  0.7187  0.7093
16326SOL     OW50651   3.490   4.711   4.156  0.1108  0.3166  0.1652
16326SOL    HW150652   3.583   4.689   4.160  0.0938 -0.0278 -1.0193
16326SOL    HW250653   3.446   4.628   4.175  0.0333  0.5908  1.2317
16327SOL     OW50654   7.913   0.649   3.773 -0.3431 -0.0140 -0.1227
16327SOL    HW150655   7.968   0.727   3.778 -0.5761  0.0735  1.6842
16327SOL    HW250656   7.975   0.576   3.770 -0.1186  0.1670  0.0730
16328SOL     OW50657   8.093   3.792   4.823 -0.2512 -0.1395 -0.0062
16328SOL    HW150658   8.106   3.736   4.746 -1.7350 -1.1596  0.4394
16328SOL    HW250659   8.002   3.820   4.817 -0.6183 -0.8502  1.7405
16329SOL     OW50660   2.231   4.518   8.548 -0.3534  0.0029 -0.5873
16329SOL    HW150661   2.259   4.439   8.502  0.7739  0.0717 -0.0627
16329SOL    HW250662   2.289   4.587   8.516  0.4834  0.0493  0.9010
16330SOL     OW50663   2.346   4.371   1.910 -0.2941 -0.5092 -0.1420
16330SOL    HW150664   2.270   4.404   1.957  0.4363 -0.6109  1.1675
16330SOL    HW250665   2.419   4.424   1.941  0.8165 -2.8386  1.6013
16331SOL     OW50666   4.095   7.046   5.000 -0.0857 -0.1103 -0.5989
16331SOL    HW150667   4.082   7.007   5.086  0.4115 -0.3849 -0.6478
16331SOL    HW250668   4.151   7.122   5.016 -0.3423  0.0831 -0.6214
16332SOL     OW50669   4.177   5.288   2.410  0.1517  0.2415 -0.3248
16332SOL    HW150670   4.085   5.260   2.401 -0.5461  2.0183  0.7917
16332SOL    HW250671   4.187   5.358   2.347  0.9552 -0.3594 -0.8800
16333SOL     OW50672   1.963   1.090   4.280  0.3293 -0.2171  0.0487
16333SOL    HW150673   1.913   1.164   4.246 -0.2441 -1.3951 -1.8296
16333SOL    HW250674   1.921   1.070   4.364 -2.0120 -0.7545 -1.1605
16334SOL     OW50675   4.351   8.617   1.834 -0.0111 -0.1010 -0.1044
16334SOL    HW150676   4.406   8.628   1.912 -0.1302  0.0621 -0.0436
16334SOL    HW250677   4.282   8.557   1.863 -0.9387  1.1602  0.3706
16335SOL     OW50678   1.555   9.101   3.888 -0.3439  0.2631  0.1919
16335SOL    HW150679   1.473   9.061   3.917 -0.5241 -0.1106 -0.7756
16335SOL    HW250680   1.622   9.062   3.945 -1.0316  2.2680  2.5434
16336SOL     OW50681   3.785   4.817   1.033 -0.1027 -0.3202 -0.1351
16336SOL    HW150682   3.787   4.722   1.046 -1.3046 -0.0654  2.6951
16336SOL    HW250683   3.876   4.842   1.024  0.4558 -1.5166  1.6442
16337SOL     OW50684   1.649   1.313   6.076 -0.2376  0.4701  0.3358
16337SOL    HW150685   1.606   1.256   6.012  1.8333 -0.8893  0.0633
16337SOL    HW250686   1.586   1.318   6.149 -0.3857 -2.5947  0.5742
16338SOL     OW50687   2.872   0.992   5.777  0.2388 -0.1854  0.5990
16338SOL    HW150688   2.876   0.972   5.870  0.4585 -0.8983  0.4397
16338SOL    HW250689   2.964   1.007   5.752  0.4463 -2.0750  0.0646
16339SOL     OW50690   6.877   3.702   2.602 -0.7229 -0.0932 -0.2457
16339SOL    HW150691   6.799   3.727   2.553  0.2108 -0.5476 -2.0709
16339SOL    HW250692   6.945   3.695   2.536  0.7931 -0.0773  1.2480
16340SOL     OW50693   0.790   0.088   5.805  0.0284  0.5371 -0.0042
16340SOL    HW150694   0.848   0.101   5.730  1.3164 -0.5511  0.7536
16340SOL    HW250695   0.842   0.114   5.881 -1.1436  1.3165  0.5635
16341SOL     OW50696   0.924   3.503   7.858  0.2340 -0.2017 -0.7222
16341SOL    HW150697   0.840   3.458   7.861  1.9774 -3.9919 -2.5270
16341SOL    HW250698   0.951   3.509   7.949 -2.6751  3.0137  0.1637
16342SOL     OW50699   1.908   1.994   9.421 -0.0538  0.0766 -0.4870
16342SOL    HW150700   1.828   2.047   9.427  0.2164  0.5680 -1.0866
16342SOL    HW250701   1.877   1.904   9.423 -0.4475  0.2102  1.7419
16343SOL     OW50702   7.134   5.735   3.588 -0.3191  0.0366  0.6305
16343SOL    HW150703   7.109   5.691   3.670 -1.3613 -0.1373  0.2330
16343SOL    HW250704   7.055   5.782   3.561 -0.2559 -0.5843 -0.7118
16344SOL     OW50705   4.207   6.245   4.884 -0.3519  0.2051 -0.0959
16344SOL    HW150706   4.174   6.178   4.824  0.8866  0.2402 -0.8441
16344SOL    HW250707   4.253   6.195   4.952 -0.2419  0.2447 -0.1407
16345SOL     OW50708   6.043   3.798   4.564 -0.2670 -0.0500  0.2804
16345SOL    HW150709   5.998   3.875   4.531 -0.8677 -0.6881 -0.4223
16345SOL    HW250710   6.037   3.806   4.659  0.1112  1.0056  0.2291
16346SOL     OW50711   3.829   2.460   2.638 -0.4728  0.5685  0.2532
16346SOL    HW150712   3.915   2.465   2.681 -0.3886  0.1029  0.1490
16346SOL    HW250713   3.774   2.521   2.687 -0.8703 -1.2031  2.1649
16347SOL     OW50714   0.866   7.974   2.955 -0.1895 -0.7429  0.3279
16347SOL    HW150715   0.895   8.058   2.920 -1.0276 -1.0009 -1.0603
16347SOL    HW250716   0.779   7.992   2.990 -0.6947 -1.1662 -0.6650
16348SOL     OW50717   2.801   7.053   0.259  0.9266  0.5787 -0.3091
16348SOL    HW150718   2.764   7.083   0.176 -0.8172 -1.1559 -0.2247
16348SOL    HW250719   2.886   7.015   0.235  0.9355  1.0852 -1.1190
16349SOL     OW50720   6.533   3.278   6.732  0.1679  0.1117 -0.3894
16349SOL    HW150721   6.546   3.187   6.757  1.2646  0.7233  1.4312
16349SOL    HW250722   6.618   3.305   6.696 -0.4536  0.1590 -1.9003
16350SOL     OW50723   1.723   6.016   6.190 -0.1531  0.1491  0.1195
16350SOL    HW150724   1.697   6.106   6.173 -1.2228 -0.1917 -0.1184
16350SOL    HW250725   1.795   6.023   6.253 -0.9622  1.1260  0.9610
16351SOL     OW50726   6.053   2.040   2.461  0.5921  0.1098  0.2178
16351SOL    HW150727   5.985   2.099   2.428 -0.3667 -0.0943  1.7516
16351SOL    HW250728   6.102   2.014   2.383 -1.9331 -0.8316 -1.1555
16352SOL     OW50729   8.617   6.099   8.313 -0.0119 -0.3261  0.2183
16352SOL    HW150730   8.580   6.106   8.226 -0.8553  2.2806  0.7145
16352SOL    HW250731   8.565   6.031   8.356 -1.6841  0.5511 -0.3426
16353SOL     OW50732   9.347   7.072   7.284 -0.0260  0.7498 -0.0333
16353SOL    HW150733   9.365   6.989   7.239 -1.6281  0.4638 -0.2280
16353SOL    HW250734   9.433   7.111   7.299  0.7063 -0.5252 -0.7473
16354SOL     OW50735   3.186   8.940   8.770  0.5850 -0.1899  0.2815
16354SOL    HW150736   3.095   8.921   8.793  0.8780 -2.2642 -0.0870
16354SOL    HW250737   3.237   8.890   8.834  1.4095 -2.4211 -1.9555
16355SOL     OW50738   4.779   6.864   4.107 -0.2881 -0.3054 -0.5023
16355SOL    HW150739   4.840   6.790   4.107  1.7863  1.2852  0.8216
16355SOL    HW250740   4.715   6.842   4.174 -0.4182 -1.4244 -0.9744
16356SOL     OW50741   5.956   1.454   3.704  0.0184  0.6716 -0.2595
16356SOL    HW150742   6.041   1.422   3.734 -0.8515 -0.5472  1.0090
16356SOL    HW250743   5.936   1.399   3.629  0.7760  1.6508 -1.2230
16357SOL     OW50744   3.599   8.153   1.879  0.3821  0.0738  0.3373
16357SOL    HW150745   3.682   8.187   1.848  0.4647 -1.6162 -1.4544
16357SOL    HW250746   3.622   8.085   1.943  0.4303 -0.7494 -0.5339
16358SOL     OW50747   3.870   8.563   0.672  0.2129  0.0211  0.3828
16358SOL    HW150748   3.883   8.623   0.599 -0.6491 -0.3888 -0.1237
16358SOL    HW250749   3.792   8.595   0.717  0.6863  0.2182  1.0829
16359SOL     OW50750   6.551   6.325   4.434  0.4947 -0.0085  0.1010
16359SOL    HW150751   6.610   6.253   4.459  2.6722  1.4278 -0.6281
16359SOL    HW250752   6.537   6.373   4.516  0.7903 -0.0384  0.1711
16360SOL     OW50753   1.676   8.806   1.924 -0.2816 -0.8381 -0.0872
16360SOL    HW150754   1.748   8.791   1.984  0.1840 -0.5706 -0.5711
16360SOL    HW250755   1.634   8.886   1.955 -1.1053 -1.6183  0.8892
16361SOL     OW50756   5.668   3.670   7.029  0.2007 -0.0424 -0.2330
16361SOL    HW150757   5.639   3.599   6.971  2.4708 -0.0089 -1.5558
16361SOL    HW250758   5.624   3.748   6.996 -0.4007 -0.4185 -0.3411
16362SOL     OW50759   3.335   3.348   5.007  0.5856 -0.1610 -0.1899
16362SOL    HW150760   3.251   3.365   5.049  1.1920  0.9083  0.6445
16362SOL    HW250761   3.390   3.312   5.077  0.9671 -0.4026 -0.6059
16363SOL     OW50762   6.955   9.158   1.247  0.5639 -0.0697  0.6762
16363SOL    HW150763   6.916   9.219   1.310  0.3304  0.5234 -0.0312
16363SOL    HW250764   7.049   9.179   1.249  0.3989  0.8190 -0.0768
16364SOL     OW50765   4.067   8.301   8.249 -0.7027 -0.4821  0.1907
16364SOL    HW150766   4.147   8.343   8.282 -0.0677 -1.9040  0.5151
16364SOL    HW250767   4.002   8.317   8.318 -0.9366  1.2743 -0.3819
16365SOL     OW50768   6.046   2.506   8.562 -0.2110  0.0378  0.0960
16365SOL    HW150769   5.995   2.499   8.482  0.6772 -1.9166 -0.3676
16365SOL    HW250770   5.984   2.486   8.633 -0.9607  1.6268 -0.0710
16366SOL     OW50771   6.708   1.089   8.043 -0.5566  0.1664  0.0823
16366SOL    HW150772   6.725   1.107   7.951 -1.2928  2.1305  0.3032
16366SOL    HW250773   6.770   1.144   8.091  0.0415 -1.0677  0.8070
16367SOL     OW50774   6.336   2.683   6.839  0.0127 -0.2704 -0.3208
16367SOL    HW150775   6.303   2.610   6.786 -1.0416 -0.3597  0.4275
16367SOL    HW250776   6.375   2.743   6.776 -0.8975 -0.5379 -1.1624
16368SOL     OW50777   4.662   8.254   0.927  0.0623  0.0168  0.6695
16368SOL    HW150778   4.681   8.332   0.979  0.0362 -0.9540  2.1997
16368SOL    HW250779   4.591   8.211   0.974 -0.1740 -0.7427 -0.3567
16369SOL     OW50780   3.998   0.825   5.002  0.0140 -0.0969  0.1007
16369SOL    HW150781   3.904   0.810   5.005  0.2298 -1.6137  2.8379
16369SOL    HW250782   4.015   0.857   4.913 -2.9748 -0.2558 -0.6236
16370SOL     OW50783   0.810   5.052   0.384  0.1983 -0.0016  0.1194
16370SOL    HW150784   0.789   5.016   0.298  0.6345  0.7199 -0.3124
16370SOL    HW250785   0.735   5.031   0.439  0.2113 -1.0750 -0.2471
16371SOL     OW50786   1.907   8.766   1.539 -0.1338  0.2201  0.1826
16371SOL    HW150787   1.834   8.705   1.550  0.0559 -0.3071 -1.2127
16371SOL    HW250788   1.956   8.760   1.622 -0.5888 -0.8925  0.3921
16372SOL     OW50789   7.460   0.780   1.233  0.4777  0.6833 -0.3752
16372SOL    HW150790   7.377   0.799   1.277  0.4148  1.6216 -0.8781
16372SOL    HW250791   7.494   0.702   1.278 -0.6035  0.3666 -0.0760
16373SOL     OW50792   3.098   1.226   5.923  0.2007 -0.0086  0.1201
16373SOL    HW150793   3.112   1.288   5.852 -0.4474  0.7420  0.6298
16373SOL    HW250794   3.006   1.236   5.947  0.8820  1.3672  2.5209
16374SOL     OW50795   6.091   6.146   1.695 -0.0842 -0.2967  0.5477
16374SOL    HW150796   6.074   6.085   1.767  1.2664  0.0088  1.1542
16374SOL    HW250797   6.144   6.095   1.633  0.9469  0.2220  1.0001
16375SOL     OW50798   8.269   7.651   8.876  0.2927 -0.1620  0.0442
16375SOL    HW150799   8.210   7.693   8.939 -0.8380  0.1414 -1.1662
16375SOL    HW250800   8.332   7.719   8.853 -0.1150  0.1481 -0.1610
16376SOL     OW50801   2.311   3.508   7.580 -0.2655  0.0971  0.0867
16376SOL    HW150802   2.356   3.587   7.552 -1.8294  1.2492  0.6631
16376SOL    HW250803   2.220   3.522   7.554 -0.7184 -1.1664  0.9057
16377SOL     OW50804   5.810   2.958   5.039 -0.5373  0.1665 -0.0182
16377SOL    HW150805   5.831   2.976   4.948 -1.2196  1.4616  0.0511
16377SOL    HW250806   5.758   2.877   5.036 -0.7588  0.3271 -0.8129
16378SOL     OW50807   1.933   2.509   1.101 -0.3163 -0.3937 -0.4322
16378SOL    HW150808   2.028   2.507   1.095 -0.1762 -1.3289  1.4481
16378SOL    HW250809   1.905   2.425   1.062 -0.3236 -0.4388 -0.3296
16379SOL     OW50810   4.889   2.466   1.721  0.0478  0.5672  0.0995
16379SOL    HW150811   4.907   2.498   1.809  0.2176  0.5759  0.0627
16379SOL    HW250812   4.975   2.455   1.681 -0.0579  1.8086 -0.5097
16380SOL     OW50813   5.831   0.398   1.274  0.2729  0.2718  0.4623
16380SOL    HW150814   5.739   0.373   1.277 -0.1432  1.6863  3.2195
16380SOL    HW250815   5.879   0.315   1.272 -1.0199 -0.4831 -0.7677
16381SOL     OW50816   6.574   6.387   3.507  0.0301 -0.0254  0.4292
16381SOL    HW150817   6.532   6.345   3.582  0.7586  0.2295  0.9909
16381SOL    HW250818   6.525   6.469   3.495 -0.8500 -0.6167 -0.1399
16382SOL     OW50819   6.309   2.176   7.389  0.2468 -0.1743  0.2497
16382SOL    HW150820   6.261   2.155   7.308 -0.6558 -1.6615  1.1280
16382SOL    HW250821   6.372   2.105   7.400 -0.4340 -0.6269  1.4401
16383SOL     OW50822   0.639   6.686   2.318 -0.4724  0.2945  0.0499
16383SOL    HW150823   0.678   6.740   2.387 -1.8381  0.0205  1.0620
16383SOL    HW250824   0.696   6.609   2.314 -0.4866  0.2253  1.0014
16384SOL     OW50825   4.793   1.639   2.491 -0.1180  0.4772 -0.2078
16384SOL    HW150826   4.752   1.649   2.405 -0.2805  0.4253 -0.1368
16384SOL    HW250827   4.886   1.625   2.471 -0.1205  0.6756 -0.3649
16385SOL     OW50828   9.639   4.817   3.138  0.0226 -0.9040  0.2025
16385SOL    HW150829   9.551   4.846   3.162 -0.5026 -2.0483 -0.2479
16385SOL    HW250830   9.697   4.886   3.170 -1.1786  0.9506 -1.3710
16386SOL     OW50831   9.565   3.231   1.617  0.3533 -0.6729 -0.1307
16386SOL    HW150832   9.634   3.296   1.608  1.9396 -2.1852  0.6328
16386SOL    HW250833   9.572   3.177   1.538 -0.5736 -0.2818 -0.4906
16387SOL     OW50834   6.464   2.256   2.119 -0.1594 -0.8928 -0.2113
16387SOL    HW150835   6.422   2.320   2.061  1.4447  0.3261 -0.0893
16387SOL    HW250836   6.421   2.173   2.097 -1.6577  0.0455 -1.0233
16388SOL     OW50837   8.196   6.822   2.093 -0.1280  0.7549  0.0896
16388SOL    HW150838   8.218   6.731   2.110 -2.7069  0.1463  0.5493
16388SOL    HW250839   8.178   6.859   2.179  2.8733  2.3927  0.1749
16389SOL     OW50840   4.436   5.877   6.726  0.0356 -0.3183 -0.2858
16389SOL    HW150841   4.384   5.944   6.769  1.5060 -0.9189  2.6759
16389SOL    HW250842   4.474   5.921   6.650 -0.2451  1.7680  0.7296
16390SOL     OW50843   4.283   0.744   6.846 -0.0304  0.9277 -0.1728
16390SOL    HW150844   4.313   0.714   6.932  1.2499 -0.3894 -1.0220
16390SOL    HW250845   4.221   0.677   6.817  0.0892  0.9865 -0.5713
16391SOL     OW50846   5.212   1.058   1.921 -0.1784  0.2715  0.3276
16391SOL    HW150847   5.158   1.022   1.850 -0.4850 -0.2235  0.8047
16391SOL    HW250848   5.253   1.135   1.882 -1.5645  0.9201  0.0753
16392SOL     OW50849   1.311   4.313   9.636  0.2052 -0.3800 -0.4074
16392SOL    HW150850   1.245   4.261   9.682  0.8812 -0.5340  0.4311
16392SOL    HW250851   1.312   4.278   9.547  1.1578 -2.3664  0.3153
16393SOL     OW50852   2.358   8.325   9.061  0.4058  0.0054 -0.4359
16393SOL    HW150853   2.434   8.275   9.091 -0.1278  0.4851  1.9557
16393SOL    HW250854   2.389   8.375   8.986  1.9396 -1.1215 -0.5908
16394SOL     OW50855   8.555   0.726   5.442  0.1759  0.6099 -0.3082
16394SOL    HW150856   8.647   0.715   5.468 -0.1186  0.1020  0.5566
16394SOL    HW250857   8.556   0.800   5.381  1.1733  0.5549 -0.3695
16395SOL     OW50858   7.649   1.714   4.019 -0.0825  0.7139  0.4622
16395SOL    HW150859   7.614   1.775   4.084 -0.0145  0.6525  0.5570
16395SOL    HW250860   7.728   1.757   3.985  0.5852  0.1999  1.3169
16396SOL     OW50861   5.244   2.453   9.265 -0.5517  0.1994 -0.5347
16396SOL    HW150862   5.208   2.411   9.344  0.7397 -0.2244 -0.1478
16396SOL    HW250863   5.244   2.384   9.199  0.9366 -0.2586 -0.0932
16397SOL     OW50864   2.419   0.482   9.141  0.2919  0.3373 -0.0928
16397SOL    HW150865   2.346   0.533   9.106 -0.3182 -0.8805 -0.6649
16397SOL    HW250866   2.460   0.540   9.205 -0.4666  1.4702 -0.5942
16398SOL     OW50867   1.584   6.299   7.163  0.0982 -0.4830 -0.2519
16398SOL    HW150868   1.662   6.246   7.143 -0.3388 -0.8445 -1.0496
16398SOL    HW250869   1.554   6.266   7.248  0.8574 -0.2898  0.0945
16399SOL     OW50870   9.295   9.420   4.779 -0.7031 -0.3413 -0.2513
16399SOL    HW150871   9.321   9.403   4.688  0.7537  0.0577  0.0651
16399SOL    HW250872   9.372   9.396   4.830 -1.6565 -0.9656  0.9329
16400SOL     OW50873   2.505   5.839   5.768  0.3716 -0.5913  0.0786
16400SOL    HW150874   2.582   5.786   5.788 -0.3226 -1.2752  1.0866
16400SOL    HW250875   2.539   5.914   5.720  1.8267 -0.3128  1.4480
16401SOL     OW50876   6.561   5.387   3.742  0.7442  1.0090 -0.2426
16401SOL    HW150877   6.639   5.441   3.747  0.8367  0.9566 -0.9775
16401SOL    HW250878   6.571   5.339   3.660 -0.0035  0.9138 -0.2826
16402SOL     OW50879   8.992   2.787   4.412  0.7803  0.0469 -0.1703
16402SOL    HW150880   9.016   2.797   4.320 -0.5790  0.7930 -0.4614
16402SOL    HW250881   8.958   2.872   4.437 -0.5489 -0.6643  0.5161
16403SOL     OW50882   9.018   2.033   2.563 -0.1204 -0.2392  0.4664
16403SOL    HW150883   9.103   2.034   2.520  0.1225  1.2503  0.9073
16403SOL    HW250884   8.981   1.947   2.544  0.0477  0.2674 -2.5413
16404SOL     OW50885   1.602   2.599   3.665 -0.5449 -0.5050  0.1824
16404SOL    HW150886   1.581   2.567   3.577  0.9693 -0.6982 -0.1306
16404SOL    HW250887   1.646   2.683   3.649 -3.3314  1.2528  0.9315
16405SOL     OW50888   1.418   0.346   3.883  0.1123 -0.0259  0.5460
16405SOL    HW150889   1.357   0.415   3.908  0.1931 -0.3017  1.5663
16405SOL    HW250890   1.504   0.386   3.890  0.1499 -0.1727  0.9900
16406SOL     OW50891   7.124   8.075   1.951 -0.6959 -0.1656  0.8256
16406SOL    HW150892   7.117   7.994   1.900  1.5698  0.0888 -0.0308
16406SOL    HW250893   7.126   8.046   2.042  0.8718 -1.2079  0.5077
16407SOL     OW50894   0.010   3.702   0.718 -0.3037 -0.7115 -0.0607
16407SOL    HW150895  -0.046   3.780   0.722  2.1854  1.1967 -0.3945
16407SOL    HW250896  -0.029   3.649   0.649 -2.2522  0.0450  0.3796
16408SOL     OW50897   5.452   6.637   1.471  0.1845  0.4616 -0.0646
16408SOL    HW150898   5.492   6.723   1.459 -0.1679  0.7317  0.6077
16408SOL    HW250899   5.524   6.580   1.499  0.2365  0.7685  0.4308
16409SOL     OW50900   1.775   8.523   9.334 -0.1023 -0.2647 -0.3459
16409SOL    HW150901   1.722   8.457   9.379  0.0794 -0.1132  0.0962
16409SOL    HW250902   1.865   8.505   9.363 -0.2411  1.2914  1.2149
16410SOL     OW50903   3.108   4.147   8.003  0.9792  0.1851 -0.5904
16410SOL    HW150904   3.042   4.211   8.029  1.3646  0.6470 -0.7197
16410SOL    HW250905   3.060   4.064   7.995  0.5804  0.3340  0.1387
16411SOL     OW50906   2.346   4.302   4.832  0.2212  0.0574  0.7320
16411SOL    HW150907   2.430   4.345   4.818  0.1769  0.5108  1.7696
16411SOL    HW250908   2.309   4.346   4.909 -0.5382 -0.7672  0.8542
16412SOL     OW50909   9.606   1.650   5.434  0.3031 -0.6312 -0.3470
16412SOL    HW150910   9.699   1.650   5.458  0.2554  0.8332 -0.0770
16412SOL    HW250911   9.601   1.702   5.354 -0.4762  0.8339  0.6035
16413SOL     OW50912   0.900   5.448   5.157 -0.4340  0.5504  0.1267
16413SOL    HW150913   0.960   5.504   5.205 -0.7483  2.0294 -1.1222
16413SOL    HW250914   0.815   5.492   5.165 -1.0910 -0.7504  0.6711
16414SOL     OW50915   6.873   7.321   2.195 -0.2006  0.2037 -0.0880
16414SOL    HW150916   6.901   7.351   2.109 -2.4344  0.0073 -0.9440
16414SOL    HW250917   6.854   7.228   2.183  0.0976  0.0169  0.7959
16415SOL     OW50918   8.220   4.962   3.270  0.1861 -0.5868  0.2348
16415SOL    HW150919   8.243   5.052   3.290 -0.1733 -0.6852  1.1174
16415SOL    HW250920   8.303   4.914   3.277  0.8699 -0.0141 -2.4449
16416SOL     OW50921   9.324   0.115   0.410 -0.3181  0.5190  0.4587
16416SOL    HW150922   9.296   0.120   0.319 -0.8204  0.2280  0.5900
16416SOL    HW250923   9.417   0.134   0.408  0.0070 -1.0303 -0.3104
16417SOL     OW50924   7.921   0.426   3.212  0.5565 -0.3381 -0.5346
16417SOL    HW150925   7.918   0.389   3.301 -1.5801  1.1817  0.1305
16417SOL    HW250926   7.969   0.508   3.222  0.6265 -0.3400 -0.8562
16418SOL     OW50927   3.693   1.681   5.599 -0.5411 -0.1591  0.3484
16418SOL    HW150928   3.661   1.770   5.588 -1.1630 -0.1319  2.0027
16418SOL    HW250929   3.783   1.692   5.631 -0.6270 -0.1139  0.5788
16419SOL     OW50930   1.400   0.703   5.814 -0.6767 -0.2258 -0.5738
16419SOL    HW150931   1.493   0.708   5.789 -0.7057 -1.0189 -0.8955
16419SOL    HW250932   1.393   0.756   5.893 -0.2088  0.8889 -1.2542
16420SOL     OW50933   6.293   7.595   7.623  0.1656  0.3761  0.4621
16420SOL    HW150934   6.354   7.542   7.673  0.4993 -0.2095 -0.5256
16420SOL    HW250935   6.212   7.544   7.622  1.3987 -1.9915 -3.3454
16421SOL     OW50936   6.319   8.164   7.867  0.2061 -0.3928  0.4286
16421SOL    HW150937   6.361   8.156   7.782  0.7034  0.5678  0.5727
16421SOL    HW250938   6.314   8.074   7.900 -0.3700 -0.8262 -0.7782
16422SOL     OW50939   1.437   8.026   6.609  0.0130 -0.8371 -0.3294
16422SOL    HW150940   1.436   8.006   6.516  0.4169 -0.7672 -0.3522
16422SOL    HW250941   1.366   7.974   6.646 -0.2691 -0.7234 -0.7033
16423SOL     OW50942   5.991   7.181   4.627 -0.3987 -0.2151 -0.0358
16423SOL    HW150943   5.994   7.275   4.609 -0.4468 -0.3128 -0.5729
16423SOL    HW250944   6.038   7.141   4.554 -1.5615 -0.6964 -0.5401
16424SOL     OW50945   0.443   1.145   3.662  0.1080  0.4070 -0.5284
16424SOL    HW150946   0.436   1.064   3.613 -0.6698  0.3683 -0.3672
16424SOL    HW250947   0.491   1.205   3.605 -0.3500  0.2060 -1.1271
16425SOL     OW50948   6.153   2.447   5.094 -0.9551  0.2617 -0.1121
16425SOL    HW150949   6.085   2.505   5.060  0.0515  0.9780 -0.9583
16425SOL    HW250950   6.115   2.409   5.173 -2.0907  1.1473 -0.2173
16426SOL     OW50951   1.867   1.812   1.931 -0.4400 -0.3777 -0.1028
16426SOL    HW150952   1.846   1.904   1.919  0.7073 -0.2068 -1.0549
16426SOL    HW250953   1.820   1.786   2.010 -0.9776  0.9556  0.0341
16427SOL     OW50954   8.506   5.954   3.680  0.2649 -0.4320 -0.2863
16427SOL    HW150955   8.507   5.965   3.585 -0.7473 -1.1076 -0.3996
16427SOL    HW250956   8.588   5.909   3.700  0.1063 -1.0478 -0.9631
16428SOL     OW50957   0.585   5.973   0.843 -0.5609  0.3311  0.4264
16428SOL    HW150958   0.566   5.907   0.776  0.9231  0.2181  0.0807
16428SOL    HW250959   0.529   6.047   0.820 -0.3479  0.1474 -0.7212
16429SOL     OW50960   7.676   8.978   3.452  0.0796 -0.4715  0.0749
16429SOL    HW150961   7.614   8.986   3.380  1.8822 -1.2669 -1.6627
16429SOL    HW250962   7.730   9.057   3.445  0.4199 -0.6747  0.3829
16430SOL     OW50963   3.161   4.641   2.852  0.5344  0.0089  0.4352
16430SOL    HW150964   3.087   4.687   2.891 -0.9910 -1.4829 -0.5391
16430SOL    HW250965   3.194   4.700   2.784 -0.1480  0.4410  0.4766
16431SOL     OW50966   9.127   7.348   9.059  0.2636  0.2816  0.2876
16431SOL    HW150967   9.052   7.296   9.088  0.4256 -0.7136 -1.0360
16431SOL    HW250968   9.132   7.419   9.124 -2.5128  1.0678 -0.2078
16432SOL     OW50969   8.376   9.673   8.927  0.1523 -0.0589 -0.6935
16432SOL    HW150970   8.304   9.702   8.983 -1.9910 -0.7390 -2.9215
16432SOL    HW250971   8.440   9.637   8.987 -1.1341  1.0124  1.4340
16433SOL     OW50972   7.901   5.577   3.261 -0.1837  0.2090  0.2571
16433SOL    HW150973   7.860   5.498   3.296  0.2528 -0.1156  0.0467
16433SOL    HW250974   7.874   5.580   3.169 -1.2363  1.0004  0.5777
16434SOL     OW50975   1.939   7.905   4.428 -1.1047 -0.2254 -0.1888
16434SOL    HW150976   1.975   7.817   4.442 -1.3010 -0.3602 -0.5162
16434SOL    HW250977   1.875   7.917   4.498 -1.2997 -0.4655 -0.3258
16435SOL     OW50978   1.643   6.935   1.236 -0.4405 -0.5357 -0.4121
16435SOL    HW150979   1.679   6.890   1.159 -1.4606 -0.9348 -0.6699
16435SOL    HW250980   1.720   6.965   1.284  0.2625 -1.9725 -0.5867
16436SOL     OW50981   7.754   7.594   7.002  0.0354  0.1696  0.1857
16436SOL    HW150982   7.815   7.595   6.928 -0.7572  0.3932 -0.4937
16436SOL    HW250983   7.718   7.683   7.004 -2.8546 -0.8061 -1.7119
16437SOL     OW50984   7.382   2.759   2.197  0.0645 -0.0331  0.0411
16437SOL    HW150985   7.331   2.690   2.240  2.1540 -0.5720  1.8309
16437SOL    HW250986   7.473   2.731   2.207  1.0009  2.9797  0.8593
16438SOL     OW50987   8.626   3.851   3.292  0.1651 -0.3478  0.2831
16438SOL    HW150988   8.607   3.939   3.259  0.5765  0.2789  1.6852
16438SOL    HW250989   8.714   3.856   3.328  0.6424 -1.6458 -0.6180
16439SOL     OW50990   5.060   5.477   6.158 -0.0814 -0.6414  0.3620
16439SOL    HW150991   5.070   5.537   6.084  2.8802 -0.0959  1.0657
16439SOL    HW250992   5.074   5.533   6.235 -2.5005 -1.3085  1.3953
16440SOL     OW50993   5.312   3.536   9.594  0.3975  0.5523 -0.0410
16440SOL    HW150994   5.399   3.511   9.627  0.7636  1.0562 -0.6214
16440SOL    HW250995   5.323   3.541   9.499 -0.3522  0.3101 -0.1465
16441SOL     OW50996   4.100   8.784   0.796 -0.8561  0.4481  0.0677
16441SOL    HW150997   4.056   8.713   0.750 -2.0991  1.6957 -0.7975
16441SOL    HW250998   4.193   8.769   0.782 -1.1499 -0.1098 -1.5386
16442SOL     OW50999   6.592   6.252   8.484  0.2658  0.1897 -0.2394
16442SOL    HW151000   6.631   6.260   8.571 -2.6518 -4.0554  1.8511
16442SOL    HW251001   6.624   6.168   8.451 -0.9329  0.3390 -1.9223
16443SOL     OW51002   0.321   6.610   6.140 -0.2404  0.2099  0.1463
16443SOL    HW151003   0.269   6.687   6.162 -0.1611  0.1094  0.7044
16443SOL    HW251004   0.276   6.570   6.065  0.5592  1.6243 -1.1389
16444SOL     OW51005   0.991   0.366   4.713  0.0751 -0.1481 -0.3094
16444SOL    HW151006   1.046   0.299   4.753 -0.2189 -1.1059 -1.4601
16444SOL    HW251007   1.050   0.441   4.703  1.2799 -1.2133 -1.7059
16445SOL     OW51008   3.914   7.470   3.441 -0.1940 -0.2977 -0.1978
16445SOL    HW151009   3.890   7.378   3.440  1.0379 -0.6302 -0.6732
16445SOL    HW251010   3.940   7.489   3.350  1.0947  0.0880  0.2327
16446SOL     OW51011   5.500   1.657   1.403  0.2408  0.4715 -0.2225
16446SOL    HW151012   5.580   1.653   1.456  0.9493 -0.2175 -1.3161
16446SOL    HW251013   5.467   1.567   1.402 -1.0773  0.8866  0.9460
16447SOL     OW51014   8.738   2.572   9.510 -0.1898  0.0723  0.0313
16447SOL    HW151015   8.800   2.584   9.582 -0.7152 -1.5113  0.7999
16447SOL    HW251016   8.730   2.477   9.500 -0.9133  0.2500 -1.4473
16448SOL     OW51017   1.468   7.306   2.690  0.6170 -0.2666  0.0690
16448SOL    HW151018   1.411   7.330   2.617  0.7283 -0.3755 -0.0548
16448SOL    HW251019   1.539   7.257   2.650 -0.0280 -1.5346  0.3986
16449SOL     OW51020   6.704   0.892   7.348 -0.2430  0.0832 -0.4245
16449SOL    HW151021   6.658   0.906   7.265  0.9521  0.2639 -1.0784
16449SOL    HW251022   6.794   0.874   7.322 -0.0240 -0.6644  0.8080
16450SOL     OW51023   9.496   0.145   9.592  0.7083 -0.1434 -0.2878
16450SOL    HW151024   9.429   0.092   9.548  0.4916  0.1584 -0.3294
16450SOL    HW251025   9.517   0.096   9.672  1.1480 -0.7207 -0.7516
16451SOL     OW51026   9.119   3.930   3.336 -0.2529 -0.3470  0.2342
16451SOL    HW151027   9.138   3.871   3.263 -0.7264 -0.9418  0.5760
16451SOL    HW251028   9.165   4.011   3.315  1.1615 -1.1300  0.1774
16452SOL     OW51029   7.442   3.568   0.969 -0.0808 -0.5957  0.7145
16452SOL    HW151030   7.406   3.553   0.882 -1.7324  1.0758  1.0686
16452SOL    HW251031   7.372   3.541   1.029 -0.1605  1.1349  1.4483
16453SOL     OW51032   3.921   5.217   2.384  0.1260 -0.5592 -0.4104
16453SOL    HW151033   3.895   5.127   2.364  1.5257 -0.9758 -0.4823
16453SOL    HW251034   3.895   5.230   2.476  1.0070 -1.4729 -0.0128
16454SOL     OW51035   5.380   9.298   1.164 -0.1911 -0.2450 -0.3893
16454SOL    HW151036   5.372   9.295   1.259  0.0832  2.0528 -0.2360
16454SOL    HW251037   5.292   9.319   1.133 -0.2415 -0.8152 -0.6465
16455SOL     OW51038   5.087   7.788   8.099 -0.3849  0.4164 -0.1179
16455SOL    HW151039   5.085   7.722   8.168  2.0729  1.3184  0.9526
16455SOL    HW251040   5.043   7.864   8.138 -0.3548  0.4242 -0.0987
16456SOL     OW51041   3.112   6.164   3.957  0.2022 -0.2405 -0.3555
16456SOL    HW151042   3.065   6.154   3.874  1.1553 -4.6090 -0.6337
16456SOL    HW251043   3.204   6.175   3.932  0.4675 -1.3779  0.0439
16457SOL     OW51044   0.064   8.129   3.422  0.0047 -0.0492 -0.0386
16457SOL    HW151045   0.092   8.046   3.381  1.7276 -0.3643  1.6148
16457SOL    HW251046  -0.018   8.151   3.378 -0.0331 -2.1560 -1.1741
16458SOL     OW51047   0.917   9.501   8.720  0.5196  0.0863  0.0791
16458SOL    HW151048   0.987   9.535   8.775 -0.9149  1.1504  1.3469
16458SOL    HW251049   0.882   9.578   8.674 -1.2582  0.0315  1.2143
16459SOL     OW51050   7.286   9.007   9.461  0.2649  0.6682 -0.7471
16459SOL    HW151051   7.213   9.068   9.455 -0.9939 -0.7669 -0.5411
16459SOL    HW251052   7.256   8.928   9.415  0.1813 -1.3318  2.4340
16460SOL     OW51053   0.556   6.559   9.260  0.2889 -0.4246 -0.2507
16460SOL    HW151054   0.629   6.549   9.198  1.2015 -0.9340  0.8686
16460SOL    HW251055   0.558   6.652   9.283  1.8940 -0.7742  1.2644
16461SOL     OW51056   3.979   1.268   7.837 -0.7222 -0.2858  0.5355
16461SOL    HW151057   4.038   1.241   7.767  0.3531  1.9922  0.4437
16461SOL    HW251058   3.956   1.187   7.883  0.8316 -1.4957 -0.7004
16462SOL     OW51059   4.303   4.913   5.006 -0.0129  0.0406 -0.7457
16462SOL    HW151060   4.298   4.896   4.912 -2.1254 -1.4027 -0.4329
16462SOL    HW251061   4.251   4.992   5.019 -2.0459 -1.2529 -0.5331
16463SOL     OW51062   4.516   5.211   1.558  0.2960  0.2873  0.6154
16463SOL    HW151063   4.444   5.148   1.560 -0.5109  1.2143  1.2615
16463SOL    HW251064   4.523   5.237   1.466 -0.0613  0.0651  0.5247
16464SOL     OW51065   8.532   8.525   0.437 -0.0617 -0.3168 -0.1615
16464SOL    HW151066   8.533   8.554   0.528 -1.4187 -0.5378 -0.0579
16464SOL    HW251067   8.466   8.580   0.395 -0.8008 -1.4578 -0.5625
16465SOL     OW51068   0.467   4.648   7.350  0.3994  0.6193 -0.1580
16465SOL    HW151069   0.394   4.589   7.335  0.0211  1.4831 -2.0974
16465SOL    HW251070   0.543   4.601   7.314  0.7716 -0.0982  1.4703
16466SOL     OW51071   1.400   3.742   7.666  0.5151  1.0424  0.1548
16466SOL    HW151072   1.360   3.663   7.629  1.4089  0.9557 -0.6727
16466SOL    HW251073   1.329   3.807   7.666  0.0895  0.5893 -0.2945
16467SOL     OW51074   9.264   0.714   1.268 -0.5535 -0.2445  0.4472
16467SOL    HW151075   9.208   0.722   1.345 -0.1359  1.1021  0.6354
16467SOL    HW251076   9.298   0.802   1.254 -0.8698 -0.3920 -1.4861
16468SOL     OW51077   8.606   5.981   3.019  0.4860  0.2878  0.3758
16468SOL    HW151078   8.685   6.011   3.066  1.5520 -1.8661  0.0791
16468SOL    HW251079   8.618   6.014   2.930  0.3904  1.0691  0.6410
16469SOL     OW51080   2.078   2.830   8.146  0.0871 -0.1195 -0.0538
16469SOL    HW151081   2.025   2.821   8.225  0.2581  2.1118  0.3729
16469SOL    HW251082   2.043   2.908   8.102  1.6920  0.2006 -0.8195
16470SOL     OW51083   5.600   8.728   2.089 -0.0098  0.4085  0.1753
16470SOL    HW151084   5.694   8.717   2.096 -0.2061 -1.4386  0.4933
16470SOL    HW251085   5.565   8.639   2.083 -1.6293  1.0792 -1.6315
16471SOL     OW51086   6.422   7.181   3.252 -0.1470  0.2675  0.3395
16471SOL    HW151087   6.392   7.136   3.174 -0.7161 -0.7051  1.0938
16471SOL    HW251088   6.517   7.185   3.243 -0.2146  0.1784 -0.4068
16472SOL     OW51089   3.420   2.422   0.814  0.5796  0.0036 -0.2771
16472SOL    HW151090   3.388   2.497   0.863  2.5554  0.9037 -0.2751
16472SOL    HW251091   3.439   2.356   0.881  1.4525  0.5396  0.0289
16473SOL     OW51092   9.548   7.272   6.253 -0.3133  0.3752 -0.3988
16473SOL    HW151093   9.631   7.297   6.293 -0.4888  0.6794 -0.2199
16473SOL    HW251094   9.545   7.177   6.261 -1.2689  0.5496  2.1316
16474SOL     OW51095   7.763   3.009   1.812 -0.1733 -0.1948  0.1595
16474SOL    HW151096   7.683   3.007   1.760 -0.0327 -1.2124 -0.0388
16474SOL    HW251097   7.804   3.092   1.790 -0.5992 -0.1819 -0.6126
16475SOL     OW51098   1.974   4.491   3.186  0.0276  0.0932 -0.1719
16475SOL    HW151099   1.898   4.524   3.234  1.2750  1.5960  0.8690
16475SOL    HW251100   1.961   4.396   3.183 -2.1310  0.3334 -0.5139
16476SOL     OW51101   8.993   1.964   3.252  0.2461 -0.0737  0.4227
16476SOL    HW151102   9.012   1.890   3.310 -0.7113 -1.7029 -1.2219
16476SOL    HW251103   8.949   1.924   3.177  0.7935  2.0308 -1.0986
16477SOL     OW51104   3.663   0.818   9.154  0.2535 -0.1684  0.1244
16477SOL    HW151105   3.757   0.830   9.143  0.0474  0.3223 -1.2556
16477SOL    HW251106   3.647   0.729   9.121 -0.0137  0.4235 -1.4172
16478SOL     OW51107   0.124   7.618   5.152 -0.3135  0.0529 -0.3373
16478SOL    HW151108   0.059   7.548   5.147 -0.3966  0.1412 -0.5141
16478SOL    HW251109   0.101   7.677   5.080 -1.2026  1.0743  0.7355
16479SOL     OW51110   4.319   8.310   0.524  0.1963  0.8155 -0.1367
16479SOL    HW151111   4.376   8.328   0.599  1.9394  1.6537 -1.5973
16479SOL    HW251112   4.335   8.218   0.503 -2.6462 -0.4308  2.3204
16480SOL     OW51113   7.668   3.837   5.011 -0.0498 -0.0677 -0.1269
16480SOL    HW151114   7.701   3.750   4.986  0.1809  0.0803 -0.3432
16480SOL    HW251115   7.744   3.881   5.049  0.0402  0.3233 -0.7465
16481SOL     OW51116   3.673   9.103   0.664 -0.2762 -0.1752  0.3149
16481SOL    HW151117   3.721   9.059   0.733  0.0832  1.8103  1.4118
16481SOL    HW251118   3.664   9.037   0.595  0.0514 -1.9632  1.9013
16482SOL     OW51119   1.871   2.390   5.964 -0.0345 -0.6897 -0.5531
16482SOL    HW151120   1.779   2.414   5.959  0.5708  1.5957 -1.9848
16482SOL    HW251121   1.882   2.354   6.052 -1.5418  2.4831  1.0972
16483SOL     OW51122   4.311   2.362   2.712 -0.3002  0.1679 -0.7935
16483SOL    HW151123   4.285   2.419   2.640 -0.8124 -0.4447 -1.0983
16483SOL    HW251124   4.254   2.285   2.704  0.2713 -0.3158 -0.2952
16484SOL     OW51125   3.106   2.670   6.626  0.0167 -0.2936  0.0442
16484SOL    HW151126   3.070   2.720   6.553 -0.9510  1.1628  1.4247
16484SOL    HW251127   3.201   2.680   6.619  0.1225 -2.0958 -2.2397
16485SOL     OW51128   8.595   8.860   8.835 -0.0059  0.1412  0.2218
16485SOL    HW151129   8.507   8.831   8.812  0.1225  0.8159 -1.2379
16485SOL    HW251130   8.652   8.789   8.808 -0.0100  0.1776  0.1175
16486SOL     OW51131   2.933   3.888   3.784  0.9126  0.0696  0.3608
16486SOL    HW151132   2.963   3.934   3.706 -2.2063  0.6877 -0.6314
16486SOL    HW251133   2.919   3.798   3.755  0.2776  0.1765  0.3046
16487SOL     OW51134   5.214   1.021   1.629 -0.2334 -0.1816  0.2984
16487SOL    HW151135   5.175   1.109   1.629  1.1702  0.4575  0.1996
16487SOL    HW251136   5.180   0.980   1.550 -0.0825  0.6457 -0.2040
16488SOL     OW51137   2.512   3.010   9.520 -0.2448  0.6241 -0.9413
16488SOL    HW151138   2.593   3.057   9.498 -0.6289  1.7762 -0.0073
16488SOL    HW251139   2.481   3.052   9.600 -1.3498 -0.3411 -0.8343
16489SOL     OW51140   8.468   3.010   7.034 -0.0663 -0.1924  0.6480
16489SOL    HW151141   8.504   3.026   6.946 -0.0968  1.1231  0.8626
16489SOL    HW251142   8.477   2.915   7.046 -1.1736 -0.5970 -1.2574
16490SOL     OW51143   6.832   1.124   6.975  0.3612  0.6020  0.4175
16490SOL    HW151144   6.917   1.168   6.976  0.7839 -0.2005  1.1813
16490SOL    HW251145   6.848   1.039   7.017 -0.5816 -0.0166 -0.4325
16491SOL     OW51146   3.954   5.855   6.814  0.3906 -0.2165  0.0669
16491SOL    HW151147   3.925   5.946   6.825 -3.2929 -1.0729 -1.2099
16491SOL    HW251148   4.022   5.860   6.748 -0.2158  1.5708 -0.4855
16492SOL     OW51149   4.188   0.970   4.384  0.0372 -0.8297  0.6110
16492SOL    HW151150   4.267   1.018   4.358 -0.0110 -1.3534 -0.5799
16492SOL    HW251151   4.170   1.000   4.473 -1.2233  3.0243 -0.7326
16493SOL     OW51152   6.498   0.470   5.018 -0.1558 -0.3413 -0.5378
16493SOL    HW151153   6.457   0.425   4.945  1.1908  0.3367 -1.7555
16493SOL    HW251154   6.501   0.562   4.992  1.6493 -0.2931 -0.2937
16494SOL     OW51155   9.266   7.068   8.784  0.1544 -0.1616 -0.0679
16494SOL    HW151156   9.277   7.074   8.879  2.4496 -0.9864 -0.2020
16494SOL    HW251157   9.199   7.132   8.763  1.7022  2.2388  1.7819
16495SOL     OW51158   7.172   3.949   2.467  0.5100  0.4220  0.0505
16495SOL    HW151159   7.107   4.019   2.466 -0.0510 -0.0825 -1.0199
16495SOL    HW251160   7.212   3.954   2.554 -2.5849 -0.7196  1.7063
16496SOL     OW51161   0.655   9.591   7.658 -0.6052 -0.7291  0.4002
16496SOL    HW151162   0.580   9.637   7.695  0.2509  0.2360  1.0015
16496SOL    HW251163   0.731   9.635   7.697  0.3576  0.2599 -2.3986
16497SOL     OW51164   0.068   2.389   0.002 -0.6718 -0.4012  0.4094
16497SOL    HW151165   0.112   2.467   0.035 -0.3965  0.0934 -1.0381
16497SOL    HW251166   0.131   2.318   0.015  0.1349  0.1019 -0.6254
16498SOL     OW51167   1.353   6.258   7.440  0.2470 -0.6215 -0.5781
16498SOL    HW151168   1.386   6.186   7.493 -2.6271 -1.6155  0.0088
16498SOL    HW251169   1.399   6.336   7.473  0.1894 -1.5417  1.7880
16499SOL     OW51170   9.614   0.882   1.868 -0.0971  0.3628  0.1195
16499SOL    HW151171   9.540   0.838   1.911  0.2236 -0.8569 -0.5626
16499SOL    HW251172   9.601   0.866   1.775  0.1912  1.4901 -0.1343
16500SOL     OW51173   1.823   5.355   0.253  0.4951  0.1782  0.0227
16500SOL    HW151174   1.835   5.304   0.173 -0.5909  0.6965 -0.4909
16500SOL    HW251175   1.787   5.294   0.316 -1.3406  0.4002 -0.7585
16501SOL     OW51176   8.928   8.567   6.201 -0.1339  0.0231  0.3422
16501SOL    HW151177   8.914   8.582   6.294  0.1143  0.1368  0.3619
16501SOL    HW251178   9.020   8.588   6.187 -0.0985 -0.2726  0.1270
16502SOL     OW51179   0.433   0.582   5.756  0.3607 -1.1424  0.4751
16502SOL    HW151180   0.402   0.617   5.673 -0.1157 -0.1046  1.0811
16502SOL    HW251181   0.412   0.488   5.752 -2.3282 -0.6067  0.6089
16503SOL     OW51182   3.209   2.962   4.014 -0.2800  0.4030  0.2866
16503SOL    HW151183   3.181   2.873   3.994 -3.8338  0.8868  2.2401
16503SOL    HW251184   3.245   2.996   3.932 -0.3198 -2.2712 -0.9085
16504SOL     OW51185   4.834   5.061   0.489 -0.3815  0.7197  0.3396
16504SOL    HW151186   4.921   5.025   0.504 -0.4513  0.5007  0.2241
16504SOL    HW251187   4.775   5.006   0.539 -0.6116 -0.0074 -0.6902
16505SOL     OW51188   0.326   8.485   8.455 -0.1703  0.5514  0.0598
16505SOL    HW151189   0.311   8.549   8.385  0.0023  1.4207  0.7884
16505SOL    HW251190   0.272   8.517   8.527 -1.7654 -1.3177 -0.2177
16506SOL     OW51191   0.022   1.749   1.004 -0.4863  0.0643 -0.2990
16506SOL    HW151192   0.080   1.825   0.999 -1.1228  0.6399  0.7331
16506SOL    HW251193  -0.057   1.775   0.958 -0.0187 -0.6525 -1.5385
16507SOL     OW51194   6.398   7.384   6.090  0.0860  0.6324 -0.4849
16507SOL    HW151195   6.385   7.428   6.173  0.2172  0.1656 -0.2100
16507SOL    HW251196   6.359   7.297   6.102 -1.9651  1.3166 -1.6772
16508SOL     OW51197   8.288   4.716   7.905  0.4940  0.0216 -0.2073
16508SOL    HW151198   8.375   4.714   7.865  0.6307  0.5892  0.0480
16508SOL    HW251199   8.299   4.670   7.988 -0.0248 -2.0857 -1.2280
16509SOL     OW51200   3.191   6.445   7.612  0.6226  0.1515 -0.4035
16509SOL    HW151201   3.258   6.459   7.679  0.6386  0.2200 -0.4332
16509SOL    HW251202   3.238   6.451   7.529  0.9827 -1.9088 -0.4020
16510SOL     OW51203   2.887   4.313   2.147 -0.0169 -0.3427 -0.0551
16510SOL    HW151204   2.942   4.381   2.108  0.6537 -0.1509  1.1684
16510SOL    HW251205   2.808   4.312   2.093  0.3380  0.7872 -0.6270
16511SOL     OW51206   0.300   0.192   0.938 -0.5683  0.2896 -0.3500
16511SOL    HW151207   0.380   0.151   0.905 -1.0877 -0.6424 -0.5011
16511SOL    HW251208   0.238   0.187   0.865 -0.7336  1.1194 -0.2815
16512SOL     OW51209   9.139   6.834   7.491  0.5569 -0.0675  0.2200
16512SOL    HW151210   9.072   6.844   7.424  0.3325 -0.9866  0.2884
16512SOL    HW251211   9.207   6.780   7.449  0.3724 -0.7271  0.7522
16513SOL     OW51212   8.751   6.988   6.726 -0.4569  0.2792 -0.3466
16513SOL    HW151213   8.815   6.918   6.737  2.7489  2.9168 -0.7475
16513SOL    HW251214   8.715   6.975   6.639 -0.1925 -1.0439 -0.2731
16514SOL     OW51215   9.485   3.088   0.048 -0.0302 -0.1971  0.3269
16514SOL    HW151216   9.444   3.071   0.133 -1.2297 -2.6239 -0.6232
16514SOL    HW251217   9.577   3.068   0.061  0.0574  0.8225  1.3843
16515SOL     OW51218   9.397   3.114   6.756 -0.4121  0.3073 -0.9294
16515SOL    HW151219   9.355   3.191   6.796  1.3588  1.1387 -0.5717
16515SOL    HW251220   9.343   3.096   6.678 -1.0484  1.7332 -0.8668
16516SOL     OW51221   3.316   1.447   4.952  0.0244 -0.4281 -0.4408
16516SOL    HW151222   3.252   1.383   4.922  0.2008  0.2036 -2.2384
16516SOL    HW251223   3.310   1.519   4.890  1.3786  0.3459  0.2734
16517SOL     OW51224   7.407   6.771   1.115  0.2799  0.2728 -0.4202
16517SOL    HW151225   7.462   6.815   1.050  0.2015 -1.1075 -1.4563
16517SOL    HW251226   7.433   6.679   1.111  0.8911  0.2509  2.1623
16518SOL     OW51227   4.047   7.408   2.428 -0.7227 -0.4683 -0.1520
16518SOL    HW151228   3.985   7.340   2.457 -1.7934 -0.3013 -1.9199
16518SOL    HW251229   4.123   7.395   2.484 -1.6709 -1.8336  0.9150
16519SOL     OW51230   4.214   3.170   0.951 -0.2099 -0.5489  0.2406
16519SOL    HW151231   4.298   3.214   0.937 -1.5249  1.9786 -0.4345
16519SOL    HW251232   4.229   3.111   1.025  2.0137  0.1889  0.4525
16520SOL     OW51233   5.214   8.589   7.318  0.2502 -0.1167  0.2617
16520SOL    HW151234   5.206   8.588   7.414 -1.2414 -0.3004  0.1717
16520SOL    HW251235   5.170   8.508   7.290 -0.4333  0.5464 -0.6338
16521SOL     OW51236   1.853   3.041   3.944  0.1431  0.3123  0.1407
16521SOL    HW151237   1.844   3.052   3.850 -0.5541  1.0182  0.2755
16521SOL    HW251238   1.777   3.087   3.981  0.0647 -0.4971  1.0175
16522SOL     OW51239   7.792   8.322   4.302 -0.7924  0.3157  0.6634
16522SOL    HW151240   7.783   8.414   4.327 -0.2331  0.7294 -0.5966
16522SOL    HW251241   7.708   8.299   4.262  0.3291  1.4801 -2.6443
16523SOL     OW51242   6.596   2.090   1.774 -0.0625 -0.1645 -0.4467
16523SOL    HW151243   6.513   2.136   1.762 -0.3232 -0.5566 -0.1705
16523SOL    HW251244   6.614   2.051   1.689  0.6962  1.2962 -0.9988
16524SOL     OW51245   8.522   5.863   9.675  0.3563 -0.1803 -0.2212
16524SOL    HW151246   8.466   5.789   9.699  1.8533 -2.0121 -1.9499
16524SOL    HW251247   8.595   5.860   9.737 -0.3534  0.8987  0.7086
16525SOL     OW51248   0.262   5.319   1.833 -0.0607  0.2594 -0.0176
16525SOL    HW151249   0.351   5.351   1.818  0.5978 -0.9984  0.9689
16525SOL    HW251250   0.266   5.277   1.919 -1.5078 -0.2065 -0.1438
16526SOL     OW51251   5.555   5.836   4.795  0.0953  0.3008  0.3003
16526SOL    HW151252   5.465   5.805   4.783  0.4969 -0.6737 -0.3405
16526SOL    HW251253   5.608   5.773   4.746  1.3582 -0.5074  2.6034
16527SOL     OW51254   3.772   4.664   4.212 -0.3416  0.2544  0.2367
16527SOL    HW151255   3.820   4.655   4.294 -3.4535  1.6934  2.3952
16527SOL    HW251256   3.747   4.575   4.189  0.3760 -0.1401  0.9273
16528SOL     OW51257   9.140   0.207   2.085  1.2512  0.3158 -0.5188
16528SOL    HW151258   9.136   0.200   1.989 -0.3223  1.8471 -0.6265
16528SOL    HW251259   9.096   0.290   2.104  1.4655 -0.0035  1.5519
16529SOL     OW51260   7.336   1.811   2.026 -0.0846  0.0690  0.1884
16529SOL    HW151261   7.341   1.893   1.976  1.2230 -1.1546 -1.8502
16529SOL    HW251262   7.424   1.775   2.021 -0.2283 -0.7241  2.4352
16530SOL     OW51263   9.093   8.883   4.952  0.2731 -0.2104 -1.2674
16530SOL    HW151264   9.106   8.978   4.946  2.7920 -0.1458  2.2106
16530SOL    HW251265   9.139   8.858   5.032 -2.5749 -4.0256 -0.5674
16531SOL     OW51266   4.276   5.665   3.640 -0.2397  0.0468 -0.2367
16531SOL    HW151267   4.239   5.577   3.651 -0.4748  0.1447 -0.2329
16531SOL    HW251268   4.337   5.675   3.713 -2.1454  0.8811  1.3254
16532SOL     OW51269   8.258   9.549   8.680 -0.2908 -0.2647  0.7885
16532SOL    HW151270   8.247   9.627   8.625 -0.7985 -0.6009  0.4056
16532SOL    HW251271   8.294   9.583   8.762 -0.3463  0.3535  0.5648
16533SOL     OW51272   3.882   5.289   9.226 -0.3456 -0.2879 -0.2451
16533SOL    HW151273   3.903   5.248   9.142  0.3384  0.9822 -0.7136
16533SOL    HW251274   3.909   5.380   9.216 -0.6699 -0.0091  1.2050
16534SOL     OW51275   6.876   5.809   4.714  0.4439  0.2935 -0.4010
16534SOL    HW151276   6.857   5.763   4.796 -1.1852  1.0420 -0.3334
16534SOL    HW251277   6.915   5.892   4.741  0.0628  0.4692 -0.3919
16535SOL     OW51278   3.642   6.617   7.175 -0.4211  0.3398 -0.0624
16535SOL    HW151279   3.681   6.657   7.254  1.3315 -3.1414  1.0418
16535SOL    HW251280   3.556   6.586   7.203  0.7619 -2.1934  1.1013
16536SOL     OW51281   8.680   8.235   3.592  0.1808 -0.5958 -0.1733
16536SOL    HW151282   8.639   8.148   3.595  0.7067 -0.8413 -0.0119
16536SOL    HW251283   8.661   8.268   3.504  0.4634 -1.1089 -0.4271
16537SOL     OW51284   4.672   7.798   2.756  0.2366  0.3920 -0.0384
16537SOL    HW151285   4.593   7.841   2.722 -1.8378 -1.4180  2.1038
16537SOL    HW251286   4.730   7.870   2.779 -2.1276  2.0446  1.2417
16538SOL     OW51287   1.215   2.458   4.218  0.7754 -0.1654 -0.1133
16538SOL    HW151288   1.176   2.419   4.140  0.3044 -1.1004  0.5697
16538SOL    HW251289   1.172   2.413   4.291 -0.5671  2.3455  0.7518
16539SOL     OW51290   3.551   8.248   9.321 -0.0502 -0.1907  0.0279
16539SOL    HW151291   3.575   8.201   9.242  0.1737 -0.8239  0.4661
16539SOL    HW251292   3.609   8.324   9.323 -1.0576  0.6450 -1.1791
16540SOL     OW51293   6.697   1.870   3.294 -0.1192  0.0386  0.2946
16540SOL    HW151294   6.779   1.839   3.255 -0.8178 -1.0820 -0.3360
16540SOL    HW251295   6.714   1.961   3.317  1.3680 -0.2286  0.3571
16541SOL     OW51296   3.044   3.667   8.453 -0.1494  0.0393  0.3357
16541SOL    HW151297   3.110   3.735   8.438  0.7876 -1.1541 -1.3691
16541SOL    HW251298   3.092   3.596   8.496 -0.7465 -0.1402  0.7133
16542SOL     OW51299   0.576   8.203   0.630 -0.9040  0.2408  0.0703
16542SOL    HW151300   0.508   8.151   0.674 -0.2315 -1.3466 -0.6701
16542SOL    HW251301   0.591   8.157   0.548  1.5407  0.1428  0.5106
16543SOL     OW51302   2.503   3.423   0.343  0.1880  0.2664 -0.3303
16543SOL    HW151303   2.483   3.477   0.419 -1.2186 -0.3164 -0.2608
16543SOL    HW251304   2.593   3.446   0.321  0.8308  0.0655  1.8318
16544SOL     OW51305   2.276   6.869   6.356  0.2045 -0.5800 -0.2612
16544SOL    HW151306   2.371   6.869   6.362  0.1259  0.1977  1.2856
16544SOL    HW251307   2.253   6.776   6.350  1.0059 -0.8402  0.4857
16545SOL     OW51308   6.073   3.731   2.109  0.0416  0.6037 -0.6136
16545SOL    HW151309   6.000   3.684   2.148  0.0399  2.6365  2.1441
16545SOL    HW251310   6.040   3.820   2.097  1.1205  0.8184 -2.3461
16546SOL     OW51311   0.896   8.601   4.063  0.2411 -0.4405  0.0311
16546SOL    HW151312   0.858   8.554   3.988  1.0303  0.1118 -0.7337
16546SOL    HW251313   0.840   8.678   4.073 -0.1199 -0.7328  0.2870
16547SOL     OW51314   5.410   8.401   9.605  0.4808 -0.4301 -0.3584
16547SOL    HW151315   5.337   8.373   9.661  0.2157  1.2477  0.1777
16547SOL    HW251316   5.380   8.384   9.516 -0.3609 -0.2474 -0.1181
16548SOL     OW51317   3.408   1.611   7.763  0.4420 -0.0610 -0.5378
16548SOL    HW151318   3.416   1.699   7.800 -0.1254  0.8290 -2.4192
16548SOL    HW251319   3.335   1.572   7.812 -0.2284  1.0445 -0.6154
16549SOL     OW51320   9.364   7.982   3.050  0.6804 -0.1959  0.0709
16549SOL    HW151321   9.375   7.995   3.144  1.0070 -1.1420  0.1686
16549SOL    HW251322   9.406   8.059   3.011  1.7229 -0.4434  0.6658
16550SOL     OW51323   5.646   2.178   2.663  0.0558  0.1519 -0.3742
16550SOL    HW151324   5.621   2.226   2.742 -1.8246  0.4146 -1.0650
16550SOL    HW251325   5.686   2.245   2.607 -0.9172  0.5464 -0.6214
16551SOL     OW51326   2.701   4.767   7.140 -0.5282  0.3867 -0.0590
16551SOL    HW151327   2.760   4.704   7.098  0.5957  0.8139  0.8269
16551SOL    HW251328   2.617   4.721   7.146  0.5830 -1.5760  1.7796
16552SOL     OW51329   1.522   8.733   3.869 -0.6541  0.2572  0.1514
16552SOL    HW151330   1.533   8.657   3.927  1.7405 -0.0901 -0.6497
16552SOL    HW251331   1.554   8.703   3.784  2.3756  2.6804  0.2905
16553SOL     OW51332   9.043   7.462   7.241 -0.4035 -0.0447  0.1731
16553SOL    HW151333   8.955   7.443   7.273 -0.8217  1.3115 -0.1062
16553SOL    HW251334   9.063   7.548   7.276  0.6102 -0.1160 -0.2021
16554SOL     OW51335   5.901   1.224   5.755 -0.7488  0.3142 -0.6040
16554SOL    HW151336   5.908   1.265   5.669 -1.3877  0.1960 -0.7143
16554SOL    HW251337   5.842   1.150   5.742  1.0067 -1.1450 -0.5908
16555SOL     OW51338   6.878   7.154   3.620  0.5825 -0.1556 -0.2277
16555SOL    HW151339   6.856   7.219   3.553  0.4452  1.0809  0.9704
16555SOL    HW251340   6.938   7.201   3.679 -0.1753 -0.8447  1.1243
16556SOL     OW51341   6.689   2.994   8.170  0.1067  0.1229  0.0415
16556SOL    HW151342   6.760   2.930   8.162 -0.1673 -0.2564  0.6340
16556SOL    HW251343   6.692   3.043   8.087 -0.1438 -1.1152 -0.7207
16557SOL     OW51344   1.960   2.152   4.414 -0.3988 -0.2956 -0.1976
16557SOL    HW151345   1.979   2.176   4.323  2.8615  0.4954  0.5837
16557SOL    HW251346   2.042   2.116   4.447 -1.8275 -1.6247  2.1511
16558SOL     OW51347   1.543   9.381   3.852  0.0087  0.0597  0.1204
16558SOL    HW151348   1.530   9.286   3.856  0.5530  0.0123  1.8003
16558SOL    HW251349   1.638   9.392   3.861 -0.2207  0.7947  2.1512
16559SOL     OW51350   1.539   6.789   5.161 -0.0320 -0.5853 -0.0809
16559SOL    HW151351   1.559   6.696   5.148 -0.1342 -0.8369  1.3615
16559SOL    HW251352   1.456   6.802   5.115 -0.6617 -1.5245  0.7368
16560SOL     OW51353   3.699   4.095   2.796  0.5121 -0.4727 -0.1915
16560SOL    HW151354   3.767   4.162   2.797  3.0734 -2.8896  0.0398
16560SOL    HW251355   3.747   4.012   2.793 -2.4350 -2.3604  0.4622
16561SOL     OW51356   5.379   7.544   7.643  0.2900 -0.3216  0.2445
16561SOL    HW151357   5.432   7.477   7.599  1.7878 -0.1245  1.6485
16561SOL    HW251358   5.306   7.496   7.681 -1.0805 -0.4895 -2.4200
16562SOL     OW51359   8.189   6.371   6.341  0.2212  0.1442  0.0705
16562SOL    HW151360   8.144   6.455   6.338  0.9799  0.5385 -0.8785
16562SOL    HW251361   8.120   6.306   6.327 -0.1914  0.6911 -0.4735
16563SOL     OW51362   7.869   5.082   1.687  0.1215  0.0716  0.1287
16563SOL    HW151363   7.912   5.165   1.707 -0.3049  0.6998 -1.4070
16563SOL    HW251364   7.836   5.050   1.772  2.7726 -0.0080  1.2268
16564SOL     OW51365   1.274   4.443   6.624 -0.0250 -0.4771 -0.2038
16564SOL    HW151366   1.256   4.395   6.542 -0.6037 -0.2845 -0.1939
16564SOL    HW251367   1.258   4.535   6.602  0.5181 -0.3478 -0.0650
16565SOL     OW51368   7.128   8.502   6.331  0.0419 -0.5465  0.6513
16565SOL    HW151369   7.169   8.546   6.257  0.3696 -1.3970  0.3293
16565SOL    HW251370   7.194   8.506   6.401  0.4034 -1.2571  0.3617
16566SOL     OW51371   5.712   2.429   4.412  1.0110  0.5858  1.0151
16566SOL    HW151372   5.669   2.376   4.478 -1.0470 -0.5251 -1.0698
16566SOL    HW251373   5.676   2.517   4.424  0.7817  0.4332  1.4544
16567SOL     OW51374   0.015   4.335   0.387 -0.2354  0.3011 -0.4725
16567SOL    HW151375  -0.069   4.306   0.352 -0.3017 -1.2855  0.9267
16567SOL    HW251376   0.073   4.341   0.310 -1.6122  1.5763 -1.4733
16568SOL     OW51377   9.449   9.215   8.673  0.5062 -0.3830 -0.2014
16568SOL    HW151378   9.389   9.286   8.650 -0.3369 -0.9109  0.2893
16568SOL    HW251379   9.420   9.187   8.760  1.3771 -0.7619 -0.0204
16569SOL     OW51380   6.221   0.032   3.869 -0.1641  0.2102 -0.2733
16569SOL    HW151381   6.218   0.050   3.963 -0.9880  1.7218 -0.5458
16569SOL    HW251382   6.142  -0.019   3.851 -0.5999  0.8922 -0.3126
16570SOL     OW51383   7.419   3.619   5.085 -0.4883 -1.0413  0.3674
16570SOL    HW151384   7.499   3.672   5.074  0.8245 -3.0884 -0.5751
16570SOL    HW251385   7.435   3.567   5.163 -1.0933 -1.1846  0.3985
16571SOL     OW51386   3.703   3.223   3.322 -0.1556 -0.2501 -0.4087
16571SOL    HW151387   3.759   3.145   3.314 -1.9153 -1.4066 -2.4143
16571SOL    HW251388   3.763   3.297   3.313  1.3231 -1.3779 -0.2181
16572SOL     OW51389   6.111   5.674   4.825 -0.3258  0.0166 -0.3631
16572SOL    HW151390   6.185   5.727   4.796  0.3126 -0.2285  0.7716
16572SOL    HW251391   6.054   5.735   4.872 -1.7136  0.5700 -2.6031
16573SOL     OW51392   3.609   6.062   6.843  0.3381 -0.3178  0.0451
16573SOL    HW151393   3.574   6.034   6.927  1.8415 -0.6824  0.5861
16573SOL    HW251394   3.532   6.074   6.787 -0.7133  0.3687  1.5903
16574SOL     OW51395   0.316   4.551   8.608 -0.3873 -0.0161 -0.1252
16574SOL    HW151396   0.343   4.488   8.675 -2.5177  2.2360  3.1162
16574SOL    HW251397   0.396   4.600   8.588  0.0142  0.2873  2.0138
16575SOL     OW51398   3.203   6.241   5.951  0.4908 -0.1577  0.0841
16575SOL    HW151399   3.179   6.290   5.873  1.4202 -0.7138 -0.5775
16575SOL    HW251400   3.259   6.301   6.001  0.2561  0.0404  0.1113
16576SOL     OW51401   3.192   0.904   8.793  0.3213 -0.0286 -0.3298
16576SOL    HW151402   3.113   0.958   8.791  0.5366  0.2792 -0.8627
16576SOL    HW251403   3.264   0.968   8.789  0.6087 -0.2686  0.8205
16577SOL     OW51404   4.790   6.705   6.800  0.2781  0.2806 -0.1183
16577SOL    HW151405   4.771   6.635   6.863  0.4431  0.0180 -0.3548
16577SOL    HW251406   4.705   6.726   6.761 -0.1194  1.6023  1.3533
16578SOL     OW51407   0.502   1.079   6.164 -0.6444  0.2503  0.2989
16578SOL    HW151408   0.494   1.039   6.078  1.3824  2.2726 -0.9313
16578SOL    HW251409   0.493   1.173   6.149  2.3105  0.8988  1.8111
16579SOL     OW51410   7.583   2.706   6.986  0.1648  0.4755  0.3819
16579SOL    HW151411   7.564   2.669   6.899 -0.5517 -0.4214  0.8972
16579SOL    HW251412   7.677   2.693   6.997 -0.0104 -0.9296  0.3991
16580SOL     OW51413   0.938   1.743   0.016 -0.1600 -0.1470  0.1716
16580SOL    HW151414   0.938   1.821   0.071 -1.0736  1.9987 -2.6572
16580SOL    HW251415   0.856   1.699   0.037 -1.8308  2.1073 -1.2890
16581SOL     OW51416   9.110   9.659   1.097 -0.4761 -0.4004 -0.5505
16581SOL    HW151417   9.182   9.668   1.034  1.3126  1.5627  1.5552
16581SOL    HW251418   9.122   9.733   1.157 -1.3345 -2.6769  2.7436
16582SOL     OW51419   4.486   3.141   7.300 -0.7296  0.3546 -0.2299
16582SOL    HW151420   4.432   3.208   7.259  0.0190  1.1000 -0.0346
16582SOL    HW251421   4.462   3.145   7.393 -0.1493  0.9043 -0.0896
16583SOL     OW51422   3.660   1.968   3.594  0.2668  0.0754  0.0030
16583SOL    HW151423   3.720   1.894   3.598  0.5425  0.3154  0.2918
16583SOL    HW251424   3.657   2.002   3.683  0.3638  0.5945 -0.1904
16584SOL     OW51425   2.089   2.403   3.085  0.2101 -0.1023 -0.3343
16584SOL    HW151426   2.036   2.328   3.058 -0.2762  0.4791 -1.0221
16584SOL    HW251427   2.162   2.364   3.134 -0.6793 -0.9311  0.3695
16585SOL     OW51428   2.229   9.168   6.135  0.0140 -0.0998  0.1163
16585SOL    HW151429   2.278   9.086   6.143 -0.2637 -0.2885 -0.1088
16585SOL    HW251430   2.153   9.146   6.081  1.1952  0.8711 -2.0788
16586SOL     OW51431   8.050   6.478   8.813  0.4298  0.7280 -0.1560
16586SOL    HW151432   8.140   6.476   8.780  0.3360  1.7717 -0.5196
16586SOL    HW251433   8.051   6.546   8.880  0.0783  0.2039  0.3906
16587SOL     OW51434   0.956   7.232   5.476  0.6436  0.0402 -0.3403
16587SOL    HW151435   1.009   7.183   5.413 -0.6687 -0.8928 -0.7494
16587SOL    HW251436   1.004   7.222   5.559 -0.1085 -3.0055 -0.1243
16588SOL     OW51437   8.121   3.415   8.736  0.5748  0.7421  0.6248
16588SOL    HW151438   8.065   3.488   8.710  1.2809  1.1708  0.2635
16588SOL    HW251439   8.118   3.416   8.832  0.4747  1.1677  0.6211
16589SOL     OW51440   0.725   7.598   8.136 -0.0321  0.2432 -0.4256
16589SOL    HW151441   0.717   7.629   8.226 -3.1750  0.5608 -0.7066
16589SOL    HW251442   0.699   7.673   8.082  0.6570 -0.2928 -1.5386
16590SOL     OW51443   2.119   0.892   1.856 -0.5345  0.0946 -0.0494
16590SOL    HW151444   2.142   0.822   1.917 -0.7200 -0.0231 -0.1151
16590SOL    HW251445   2.198   0.905   1.804 -0.3498  0.2474  0.2657
16591SOL     OW51446   1.871   8.619   4.765  0.2587 -0.0368  0.5515
16591SOL    HW151447   1.961   8.589   4.776 -0.1085 -0.4271  3.0765
16591SOL    HW251448   1.823   8.575   4.835 -1.9438  0.0607 -0.8237
16592SOL     OW51449   4.602   3.733   0.542  0.0232 -0.3143 -0.0359
16592SOL    HW151450   4.610   3.650   0.590 -0.0039  0.7026  1.8433
16592SOL    HW251451   4.678   3.735   0.484  0.0203 -1.6492 -0.1170
16593SOL     OW51452   2.049   9.603   8.616 -0.3988  0.1291 -0.2322
16593SOL    HW151453   2.078   9.685   8.655  1.5157 -1.0506  0.9967
16593SOL    HW251454   1.970   9.580   8.665  1.2156 -0.6421  2.1973
16594SOL     OW51455   1.778   7.336   6.360  0.0601  0.0206  0.9215
16594SOL    HW151456   1.695   7.360   6.319 -0.2968 -0.9762  1.0438
16594SOL    HW251457   1.758   7.259   6.412  1.6109 -1.9213 -1.1810
16595SOL     OW51458   8.556   2.738   3.610 -0.2220  0.2205 -0.1309
16595SOL    HW151459   8.535   2.645   3.617  0.5077  0.0828  0.2126
16595SOL    HW251460   8.477   2.783   3.641 -0.0061 -0.2966  1.2090
16596SOL     OW51461   4.231   3.097   1.888  0.3553 -0.3557  0.1592
16596SOL    HW151462   4.261   3.146   1.964 -0.7143 -0.0423  0.3935
16596SOL    HW251463   4.211   3.164   1.823  0.3087 -0.5664 -0.0446
16597SOL     OW51464   0.553   9.089   1.874 -0.4934  0.5614  0.6826
16597SOL    HW151465   0.465   9.071   1.841 -0.7388 -2.0010  2.4502
16597SOL    HW251466   0.609   9.082   1.797 -1.3882 -2.1469  0.1490
16598SOL     OW51467   3.652   5.759   0.180  0.3463  0.4705 -0.3946
16598SOL    HW151468   3.582   5.698   0.202  0.0094  0.9353 -0.1645
16598SOL    HW251469   3.642   5.831   0.242  0.4275  0.9988 -0.9769
16599SOL     OW51470   5.600   3.939   8.035 -0.3329 -0.6211 -0.1785
16599SOL    HW151471   5.632   4.004   7.972  0.8007 -0.4716  0.5299
16599SOL    HW251472   5.665   3.938   8.104 -0.0505 -2.8919 -0.3934
16600SOL     OW51473   8.942   4.623   0.300 -0.1561  0.6003 -0.0392
16600SOL    HW151474   8.852   4.651   0.318  0.5468  3.5290 -0.5180
16600SOL    HW251475   8.988   4.635   0.383 -0.0697 -0.2515  0.0360
16601SOL     OW51476   7.600   8.626   4.890  0.3084  0.1884  0.2652
16601SOL    HW151477   7.548   8.660   4.962  0.6415 -0.4267  0.8062
16601SOL    HW251478   7.543   8.563   4.846  0.7997 -0.9650  1.2486
16602SOL     OW51479   3.207   5.498   7.369  0.7145 -0.0265  0.1528
16602SOL    HW151480   3.218   5.588   7.340  1.3470 -0.3499 -0.6215
16602SOL    HW251481   3.172   5.506   7.458  2.1001  0.9822  0.6279
16603SOL     OW51482   8.971   3.488   4.200  0.0242  0.1419  0.5716
16603SOL    HW151483   9.013   3.568   4.233  1.9270 -0.8123  0.5971
16603SOL    HW251484   9.038   3.447   4.145 -1.3861 -0.7720 -0.5365
16604SOL     OW51485   4.829   2.207   1.737  0.2612  0.1757 -0.1369
16604SOL    HW151486   4.840   2.302   1.730  1.1000  0.1977  1.0922
16604SOL    HW251487   4.913   2.176   1.771  0.6247 -1.2447 -2.1645
16605SOL     OW51488   4.490   0.742   5.846  0.1472  0.0919 -0.3256
16605SOL    HW151489   4.419   0.796   5.880  0.5369 -0.6732  1.9110
16605SOL    HW251490   4.461   0.717   5.758 -1.2959  1.6179 -0.3379
16606SOL     OW51491   7.179   8.194   2.792 -0.1030 -0.5660 -0.1156
16606SOL    HW151492   7.271   8.220   2.797 -0.1176 -0.5322 -0.0150
16606SOL    HW251493   7.136   8.247   2.859 -0.5519  0.9383 -1.5344
16607SOL     OW51494   0.942   3.804   8.284 -0.0286 -0.6843  0.1329
16607SOL    HW151495   0.884   3.807   8.209 -0.4445 -0.1658  0.4666
16607SOL    HW251496   0.899   3.743   8.345 -0.3908 -0.0629  0.5091
16608SOL     OW51497   1.733   2.435   7.318 -0.1780  0.3066 -0.1481
16608SOL    HW151498   1.752   2.342   7.311 -0.8389 -0.0271  1.9379
16608SOL    HW251499   1.773   2.474   7.240  0.2167 -1.6833 -0.9840
16609SOL     OW51500   8.104   8.915   0.385 -0.2301  0.1311 -0.0959
16609SOL    HW151501   8.038   8.943   0.321  0.0683  3.3158  0.8316
16609SOL    HW251502   8.052   8.881   0.459 -0.8487  1.6824  0.2178
16610SOL     OW51503   9.554   4.135   3.354  0.5902  0.0895  0.2457
16610SOL    HW151504   9.578   4.226   3.375  0.6488 -0.2661  1.8670
16610SOL    HW251505   9.480   4.116   3.411  1.2317 -1.1958  0.6948
16611SOL     OW51506   0.284   6.425   3.692  0.6726 -0.3179 -0.1674
16611SOL    HW151507   0.272   6.513   3.657  2.9355 -0.5031 -1.6944
16611SOL    HW251508   0.332   6.437   3.774  1.5797 -0.1024 -0.7106
16612SOL     OW51509   9.354   2.611   4.955 -0.1483  0.1024 -0.3120
16612SOL    HW151510   9.264   2.590   4.978 -0.9605  0.7943 -2.6087
16612SOL    HW251511   9.379   2.545   4.891  1.1167 -0.2632  0.5175
16613SOL     OW51512   6.722   6.871   1.773  0.8217 -0.5286 -0.0461
16613SOL    HW151513   6.750   6.780   1.760  0.4881 -0.7995  1.0005
16613SOL    HW251514   6.644   6.880   1.718  0.2206 -1.2309  0.6471
16614SOL     OW51515   2.787   6.659   2.521 -0.6904 -0.1735 -0.5020
16614SOL    HW151516   2.711   6.704   2.484 -1.7327 -0.7665  0.8412
16614SOL    HW251517   2.817   6.716   2.591 -0.4590 -0.3808 -0.4313
16615SOL     OW51518   0.713   3.758   1.921  0.2542  0.1825  0.1047
16615SOL    HW151519   0.681   3.817   1.853  1.0843 -0.9464 -1.3480
16615SOL    HW251520   0.778   3.809   1.968  0.1786  0.7714 -0.4083
16616SOL     OW51521   5.055   3.636   4.739 -0.3798  0.6427 -0.3735
16616SOL    HW151522   5.098   3.608   4.658  0.4015  0.4688  0.0947
16616SOL    HW251523   5.110   3.706   4.773 -1.8685  2.2725 -1.0999
16617SOL     OW51524   7.223   5.849   4.866  0.0573  0.2032 -0.1321
16617SOL    HW151525   7.147   5.906   4.873 -0.3169 -0.3669  0.5053
16617SOL    HW251526   7.186   5.762   4.848  0.4846 -0.2878  1.2601
16618SOL     OW51527   1.261   4.951   4.683  0.3824  0.0769 -0.0077
16618SOL    HW151528   1.188   5.011   4.696  0.7509  0.4877  0.2174
16618SOL    HW251529   1.238   4.902   4.604 -0.3752 -0.1738  0.3598
16619SOL     OW51530   7.091   3.444   5.831 -0.2739  0.5320  0.1124
16619SOL    HW151531   7.071   3.435   5.737 -0.9192  0.9107  0.2091
16619SOL    HW251532   7.029   3.510   5.862  1.2669  1.8981  0.3934
16620SOL     OW51533   8.616   1.798   0.625  0.1203  1.0966  0.1015
16620SOL    HW151534   8.667   1.732   0.673  0.6324  1.2730 -0.1847
16620SOL    HW251535   8.551   1.747   0.577  1.7467  0.5709 -1.6583
16621SOL     OW51536   7.961   7.415   3.096  0.1345 -0.5574  0.0247
16621SOL    HW151537   8.006   7.392   3.178  2.1514 -0.8668 -1.0828
16621SOL    HW251538   7.926   7.503   3.112 -1.3010 -1.3854  1.8572
16622SOL     OW51539   6.771   7.397   1.119 -0.0318 -0.3594  0.8234
16622SOL    HW151540   6.678   7.414   1.136 -0.0660  0.0515  0.2477
16622SOL    HW251541   6.781   7.303   1.134 -0.4598 -0.3402  1.2495
16623SOL     OW51542   7.821   8.621   0.820 -0.1705  0.0775  0.2648
16623SOL    HW151543   7.805   8.709   0.787  0.2244  0.3824  0.8677
16623SOL    HW251544   7.892   8.631   0.883 -0.2377 -0.6428  0.4706
16624SOL     OW51545   1.062   1.858   1.589  0.0750 -0.0658 -0.1121
16624SOL    HW151546   1.017   1.938   1.615 -0.6152 -0.5625  0.2613
16624SOL    HW251547   0.991   1.796   1.572  0.5877 -0.4322 -0.9452
16625SOL     OW51548   4.987   6.978   9.237  0.0978  0.0388 -0.0573
16625SOL    HW151549   5.065   6.949   9.190 -0.2756  0.4316 -0.9388
16625SOL    HW251550   4.915   6.964   9.175 -0.5301 -0.2801  0.7320
16626SOL     OW51551   3.334   9.666   3.595  0.0494  0.6294  0.8735
16626SOL    HW151552   3.429   9.675   3.606  0.5533 -1.7125 -0.6859
16626SOL    HW251553   3.322   9.657   3.501 -1.6015 -0.1887  1.1304
16627SOL     OW51554   7.280   2.038   4.761 -0.2248  0.2522 -0.9024
16627SOL    HW151555   7.229   1.962   4.788 -1.3709  0.5681 -2.0963
16627SOL    HW251556   7.363   2.002   4.730 -1.1546 -0.6396 -2.4599
16628SOL     OW51557   2.658   6.024   7.639 -0.2258 -0.7317  0.5756
16628SOL    HW151558   2.628   5.986   7.556  2.8194 -1.0440 -0.5150
16628SOL    HW251559   2.612   5.974   7.706  1.0340 -4.1363 -0.8647
16629SOL     OW51560   4.494   5.108   7.320  0.6489  0.7159  0.1044
16629SOL    HW151561   4.435   5.097   7.395 -0.0669 -0.6598 -0.6194
16629SOL    HW251562   4.460   5.185   7.274  0.4111  0.9050  0.5939
16630SOL     OW51563   5.663   1.490   6.182  0.1249  0.2950 -0.3337
16630SOL    HW151564   5.694   1.545   6.254  0.6254  0.1295 -0.4175
16630SOL    HW251565   5.733   1.493   6.118  1.8404 -3.1907  1.1046
16631SOL     OW51566   5.263   1.384   4.530  0.2111  1.1228  0.1013
16631SOL    HW151567   5.292   1.423   4.612 -0.9655  1.1107  0.5361
16631SOL    HW251568   5.186   1.434   4.505  0.6348  1.2150 -1.0781
16632SOL     OW51569   1.412   1.066   6.843  0.2224 -0.2562 -0.0282
16632SOL    HW151570   1.355   1.052   6.767  0.4633  1.5303 -0.6080
16632SOL    HW251571   1.500   1.076   6.804  0.6654 -1.2780  0.6868
16633SOL     OW51572   8.501   7.870   8.158 -0.6959  0.3490 -0.2630
16633SOL    HW151573   8.535   7.858   8.069 -0.0407  1.0045 -0.1117
16633SOL    HW251574   8.533   7.957   8.184 -0.2599 -0.1338  0.8840
16634SOL     OW51575   3.545   2.711   2.551 -0.0553 -0.0972 -0.4195
16634SOL    HW151576   3.517   2.796   2.584  1.0429  0.4396 -0.7991
16634SOL    HW251577   3.498   2.647   2.604  1.2919  0.7083  1.9124
16635SOL     OW51578   1.678   3.035   2.461  0.8495  0.5125 -0.3394
16635SOL    HW151579   1.709   3.124   2.480  0.1973 -0.0117  4.6729
16635SOL    HW251580   1.753   2.979   2.481  1.1272 -0.2145 -3.0520
16636SOL     OW51581   8.813   1.986   4.742  0.4583  0.3082  0.2124
16636SOL    HW151582   8.737   1.948   4.698 -1.3577  2.6107  1.1810
16636SOL    HW251583   8.822   1.934   4.822 -0.6332  0.5336  0.4939
16637SOL     OW51584   2.153   5.231   8.740 -0.3922  0.0920  0.1788
16637SOL    HW151585   2.194   5.234   8.654  1.0573  0.3360  0.8370
16637SOL    HW251586   2.082   5.294   8.735  0.6665  1.3005 -0.3787
16638SOL     OW51587   1.879   9.087   7.742 -0.6934 -0.0698 -0.7992
16638SOL    HW151588   1.802   9.090   7.685 -0.4683 -0.7191 -1.1395
16638SOL    HW251589   1.930   9.165   7.717 -0.4777 -0.4773 -1.6583
16639SOL     OW51590   6.235   7.554   0.773  0.2067  0.3087 -0.1522
16639SOL    HW151591   6.247   7.625   0.710 -0.3498 -0.3517 -1.0164
16639SOL    HW251592   6.240   7.474   0.721  1.2268 -0.3179  0.8735
16640SOL     OW51593   0.899   4.797   5.395 -0.2700  0.5656 -0.1526
16640SOL    HW151594   0.929   4.857   5.326  0.2329  0.0970 -0.3507
16640SOL    HW251595   0.976   4.744   5.415 -0.9640 -0.6974 -0.6996
16641SOL     OW51596   8.840   2.189   4.440 -0.3647 -0.5398  0.1106
16641SOL    HW151597   8.771   2.123   4.431 -1.5215  0.7980 -1.4284
16641SOL    HW251598   8.920   2.138   4.451 -1.4270 -2.1668  0.7426
16642SOL     OW51599   6.163   7.311   9.407  0.3977 -0.3697  0.1082
16642SOL    HW151600   6.114   7.360   9.340  0.4749 -0.3033  0.1001
16642SOL    HW251601   6.202   7.379   9.461  2.6718 -0.3629 -1.4141
16643SOL     OW51602   7.467   0.072   6.412 -0.4033 -0.6559 -0.4251
16643SOL    HW151603   7.431   0.140   6.469 -1.1606 -1.1770 -0.2704
16643SOL    HW251604   7.561   0.074   6.430 -0.5167 -0.1875  0.1574
16644SOL     OW51605   6.059   1.677   4.283  0.0901 -0.2396 -0.2888
16644SOL    HW151606   6.105   1.608   4.234 -0.3338 -1.0191  0.3891
16644SOL    HW251607   6.017   1.730   4.215 -1.2194 -1.8117 -0.7695
16645SOL     OW51608   8.294   8.650   3.348 -0.1016  0.1021 -0.0035
16645SOL    HW151609   8.236   8.638   3.273  1.7266 -1.6705 -1.2650
16645SOL    HW251610   8.280   8.571   3.402 -0.0255  0.4468  0.5311
16646SOL     OW51611   0.158   6.921   3.114  0.0279 -0.1220 -0.1133
16646SOL    HW151612   0.069   6.953   3.126 -0.6908 -1.8615 -0.4296
16646SOL    HW251613   0.164   6.844   3.172  0.4190 -1.5573 -1.9485
16647SOL     OW51614   2.951   6.330   6.437  1.0108 -0.2441 -0.2051
16647SOL    HW151615   2.890   6.390   6.394 -1.1037 -2.9643 -1.3698
16647SOL    HW251616   2.937   6.343   6.530 -1.2766 -0.5934 -0.4456
16648SOL     OW51617   4.595   8.686   2.459  0.1826  0.2821  0.2696
16648SOL    HW151618   4.524   8.630   2.490 -1.0111  1.7184  0.2802
16648SOL    HW251619   4.646   8.707   2.537 -0.9185  1.2897  0.7525
16649SOL     OW51620   0.769   5.349   0.281  0.2448  0.1588 -0.7808
16649SOL    HW151621   0.837   5.283   0.266  0.8616  0.6598 -0.2453
16649SOL    HW251622   0.773   5.405   0.203  0.8545  0.5232 -0.5015
16650SOL     OW51623   2.495   1.137   3.033  0.4937  0.2498  0.1429
16650SOL    HW151624   2.536   1.130   2.947 -0.3715  0.5483 -0.3038
16650SOL    HW251625   2.567   1.158   3.092  1.3164 -1.2329 -0.2790
16651SOL     OW51626   2.555   3.614   1.968  0.3580  0.6897 -0.6252
16651SOL    HW151627   2.621   3.559   1.926 -1.1786 -1.8680  0.0879
16651SOL    HW251628   2.513   3.661   1.896 -0.0800 -1.1756 -1.6656
16652SOL     OW51629   7.576   6.288   7.360 -0.3698 -0.1183  0.1455
16652SOL    HW151630   7.555   6.294   7.454 -1.7530  1.1993 -0.2105
16652SOL    HW251631   7.503   6.239   7.322 -0.4715  0.4736 -0.4320
16653SOL     OW51632   6.930   5.981   1.626  0.4768  0.1384 -0.2597
16653SOL    HW151633   6.996   5.918   1.655 -1.6152 -2.2142 -0.2644
16653SOL    HW251634   6.910   5.956   1.536 -1.2599  0.0074  0.1314
16654SOL     OW51635   5.576   6.693   5.240 -0.1995  0.2707  0.0255
16654SOL    HW151636   5.511   6.763   5.235  1.4857  1.8360 -2.1938
16654SOL    HW251637   5.645   6.728   5.297  1.2753  1.1227 -2.1380
16655SOL     OW51638   5.102   9.644   1.629  0.2381 -0.1892 -0.1748
16655SOL    HW151639   5.123   9.567   1.577  0.1483  0.0700 -0.5959
16655SOL    HW251640   5.170   9.707   1.607  1.1233 -0.6152  1.2093
16656SOL     OW51641   9.404   8.677   9.500 -0.1852 -0.3876 -0.2263
16656SOL    HW151642   9.434   8.686   9.410  0.3947 -1.9589 -0.2212
16656SOL    HW251643   9.465   8.614   9.540 -0.7056 -0.0669  1.1242
16657SOL     OW51644   5.210   6.422   3.535  0.0767  0.3245 -0.2132
16657SOL    HW151645   5.299   6.448   3.556 -0.5884  2.0914  0.6651
16657SOL    HW251646   5.202   6.436   3.441  0.0890  2.3813  0.0503
16658SOL     OW51647   6.619   8.481   4.752 -0.2602  0.3680 -0.0108
16658SOL    HW151648   6.612   8.386   4.763  2.7215 -0.0777 -1.1344
16658SOL    HW251649   6.703   8.504   4.789 -0.0325  2.2443 -1.5144
16659SOL     OW51650   8.937   5.705   7.691 -0.4805  0.3394 -0.1611
16659SOL    HW151651   8.941   5.625   7.639  3.3355 -1.1023  1.9509
16659SOL    HW251652   8.960   5.775   7.629 -2.8151 -0.2091 -1.7859
16660SOL     OW51653   8.208   5.308   0.998  0.4700 -0.0715 -0.1966
16660SOL    HW151654   8.220   5.290   1.092 -1.7230 -0.3982  0.0794
16660SOL    HW251655   8.141   5.246   0.970 -1.2585  2.0919 -1.1900
16661SOL     OW51656   4.163   4.513   0.558 -0.3090  0.2997 -0.2935
16661SOL    HW151657   4.245   4.534   0.602 -0.4700  1.0712 -0.3453
16661SOL    HW251658   4.108   4.589   0.573 -1.5514 -0.7861  0.9808
16662SOL     OW51659   0.950   3.353   8.383 -0.1283 -0.0858  0.4094
16662SOL    HW151660   0.906   3.356   8.468  0.8575  1.3063  0.9104
16662SOL    HW251661   0.881   3.331   8.321 -1.6014  2.0865  1.1520
16663SOL     OW51662   4.655   3.978   3.529  0.3323 -0.1025  0.0963
16663SOL    HW151663   4.656   3.987   3.625  1.7693  1.7751 -0.0471
16663SOL    HW251664   4.732   3.925   3.509 -0.1148 -0.7197 -0.0335
16664SOL     OW51665   0.969   2.765   9.178  0.1957 -0.3362 -0.1547
16664SOL    HW151666   0.977   2.687   9.124 -0.2859  0.1877 -1.0128
16664SOL    HW251667   1.042   2.760   9.240  1.1568 -0.6373 -1.2802
16665SOL     OW51668   2.375   0.754   6.351  0.0439 -0.3271 -0.1536
16665SOL    HW151669   2.378   0.794   6.264 -0.6408  1.6843  0.6757
16665SOL    HW251670   2.467   0.747   6.377  0.2017  0.3588 -0.4961
16666SOL     OW51671   0.452   7.751   3.932 -0.0463 -0.1247  0.0351
16666SOL    HW151672   0.541   7.728   3.907  0.7551  1.7764  0.9309
16666SOL    HW251673   0.415   7.670   3.968  1.1092 -1.0809 -0.8638
16667SOL     OW51674   4.087   8.284   7.159  0.3698  0.1598 -0.4415
16667SOL    HW151675   4.068   8.191   7.169  1.3338 -0.1606 -1.4790
16667SOL    HW251676   4.113   8.312   7.247  0.7208 -0.7085 -0.2526
16668SOL     OW51677   0.257   1.035   5.822  0.3874 -0.1754  0.1428
16668SOL    HW151678   0.270   1.000   5.910 -0.6728  0.6848  0.6642
16668SOL    HW251679   0.333   1.090   5.806  1.3104 -1.4727 -0.0784
16669SOL     OW51680   2.976   9.408   5.781 -0.3093 -0.3179  0.2625
16669SOL    HW151681   2.929   9.332   5.814  0.0696 -0.0614  1.4693
16669SOL    HW251682   2.909   9.460   5.736 -0.9008 -0.6105  0.7883
16670SOL     OW51683   2.168   9.103   3.426 -0.9428  0.0090  0.5363
16670SOL    HW151684   2.244   9.112   3.367 -0.1499 -2.3591  1.1235
16670SOL    HW251685   2.095   9.080   3.368 -1.3003  2.2937 -0.0309
16671SOL     OW51686   6.552   4.593   0.958 -0.1354 -0.7007 -0.0284
16671SOL    HW151687   6.632   4.541   0.949 -0.3055 -0.8878 -0.4877
16671SOL    HW251688   6.482   4.532   0.934 -0.4585 -0.6805  0.8325
16672SOL     OW51689   8.548   8.480   2.096 -0.1933 -0.0079 -0.4692
16672SOL    HW151690   8.551   8.449   2.186 -0.2552  1.2035 -0.0411
16672SOL    HW251691   8.564   8.401   2.043 -0.0295 -0.7008  0.5907
16673SOL     OW51692   3.546   0.972   1.616  0.1506  0.0146 -0.1140
16673SOL    HW151693   3.572   1.064   1.615 -0.1464  0.0935 -1.0786
16673SOL    HW251694   3.589   0.933   1.540 -1.1614 -0.2328 -0.7587
16674SOL     OW51695   4.667   4.481   1.462  0.5056  0.4647 -0.1541
16674SOL    HW151696   4.640   4.562   1.420  0.7657  0.6901  0.1063
16674SOL    HW251697   4.669   4.502   1.556  1.2312  0.3596 -0.1361
16675SOL     OW51698   4.906   8.209   5.640 -0.0453  0.1461 -0.3238
16675SOL    HW151699   4.961   8.235   5.714  0.4131  0.5717 -0.8058
16675SOL    HW251700   4.958   8.144   5.593 -0.2414  0.0465 -0.4070
16676SOL     OW51701   8.625   5.557   3.697  0.4553  0.0687  0.3068
16676SOL    HW151702   8.640   5.650   3.683  2.4176 -0.0247  1.4077
16676SOL    HW251703   8.698   5.514   3.652 -0.2486 -0.9215  0.0855
16677SOL     OW51704   6.692   1.799   5.679  0.6037  0.5516 -0.5717
16677SOL    HW151705   6.601   1.828   5.676  0.3683 -0.1693 -0.6782
16677SOL    HW251706   6.687   1.704   5.694  1.3238  0.4265 -1.0198
16678SOL     OW51707   7.939   5.900   3.376  0.5600 -0.2128 -0.7034
16678SOL    HW151708   7.928   5.839   3.449  2.6695  0.4384  0.2560
16678SOL    HW251709   7.858   5.951   3.374  1.1216  1.0577  2.5141
16679SOL     OW51710   7.415   4.029   1.715 -0.0706  0.0294  0.4917
16679SOL    HW151711   7.372   4.068   1.791  1.0813 -0.7450  1.5974
16679SOL    HW251712   7.394   3.936   1.721  0.6629 -0.1563  0.3179
16680SOL     OW51713   3.106   7.972   2.388  0.3322 -0.1841  0.0292
16680SOL    HW151714   3.060   7.896   2.426  0.4308  0.0054  0.5352
16680SOL    HW251715   3.077   8.046   2.442  1.5382 -0.1195  0.6162
16681SOL     OW51716   3.080   5.295   8.801  0.0379 -0.1529 -0.1043
16681SOL    HW151717   3.025   5.372   8.814 -0.1922 -0.6923  2.9573
16681SOL    HW251718   3.020   5.227   8.769  0.0196  0.5663 -1.6919
16682SOL     OW51719   6.708   0.391   3.914  0.2177  0.3800 -0.8136
16682SOL    HW151720   6.758   0.382   3.995 -0.2714 -0.8247 -0.6291
16682SOL    HW251721   6.667   0.477   3.920  0.6480  0.5372 -0.0477
16683SOL     OW51722   8.849   5.976   0.537 -0.4377 -0.1193 -0.8307
16683SOL    HW151723   8.836   5.881   0.541  1.5790 -0.4052  0.0659
16683SOL    HW251724   8.850   5.996   0.443 -0.6634 -1.0213 -1.0309
16684SOL     OW51725   8.330   4.126   7.239  0.0492  1.2043  0.1055
16684SOL    HW151726   8.249   4.172   7.260 -1.1540  0.0338 -1.6806
16684SOL    HW251727   8.358   4.088   7.323 -2.7437 -0.6058  0.3553
16685SOL     OW51728   5.032   3.680   6.686 -0.0498 -0.4361  0.0575
16685SOL    HW151729   4.963   3.670   6.621 -0.4486  1.5473  0.1230
16685SOL    HW251730   5.040   3.774   6.699  0.8876 -0.7250  1.9733
16686SOL     OW51731   3.430   1.778   8.475  0.3370 -0.0583 -0.1799
16686SOL    HW151732   3.433   1.821   8.390  0.4556 -0.6464 -0.4730
16686SOL    HW251733   3.503   1.817   8.524  1.4933 -1.1120 -1.0199
16687SOL     OW51734   3.980   2.394   6.646 -0.5911 -0.3377  0.1295
16687SOL    HW151735   3.902   2.341   6.661 -0.1008 -0.8111  1.0846
16687SOL    HW251736   3.968   2.470   6.704 -0.6392 -0.0928 -0.1990
16688SOL     OW51737   5.862   4.689   0.180  0.1256 -0.1237  0.0392
16688SOL    HW151738   5.870   4.730   0.094  0.6883  0.9745  0.5883
16688SOL    HW251739   5.792   4.738   0.223 -0.5292 -1.0240  0.0284
16689SOL     OW51740   3.469   3.593   3.263  0.3117 -0.1623  0.1800
16689SOL    HW151741   3.474   3.581   3.358  1.1094  1.3944  0.3663
16689SOL    HW251742   3.552   3.635   3.239  0.1892 -0.6547 -1.2411
16690SOL     OW51743   7.701   4.825   1.028 -0.2699  0.0765  0.0863
16690SOL    HW151744   7.776   4.778   0.992 -2.8870 -3.1870 -1.6233
16690SOL    HW251745   7.687   4.787   1.114 -0.2198  0.4056  0.2425
16691SOL     OW51746   2.936   4.128   0.627  0.1813 -0.6532 -0.0841
16691SOL    HW151747   3.014   4.184   0.626  0.1366 -0.5887 -0.9152
16691SOL    HW251748   2.938   4.086   0.713  0.7538 -0.1286  0.1704
16692SOL     OW51749   1.141   2.957   7.509 -0.7125 -0.0347 -0.1437
16692SOL    HW151750   1.080   3.019   7.469 -1.9649 -1.0435  0.1354
16692SOL    HW251751   1.087   2.881   7.530  0.5266 -0.7093  0.7033
16693SOL     OW51752   7.307   1.304   4.506 -0.1118  0.5355 -0.1921
16693SOL    HW151753   7.273   1.344   4.586  1.1806 -0.4222  0.8816
16693SOL    HW251754   7.276   1.213   4.510  0.7795  0.2236 -0.2659
16694SOL     OW51755   7.259   6.710   7.306  0.2698  0.4443  0.4820
16694SOL    HW151756   7.234   6.739   7.218  0.2927 -1.2800 -0.1410
16694SOL    HW251757   7.185   6.655   7.335  0.9156 -0.2226  0.9029
16695SOL     OW51758   3.180   8.687   1.683 -0.0013  0.0954 -0.6201
16695SOL    HW151759   3.210   8.770   1.721  0.2888  0.5364 -1.7772
16695SOL    HW251760   3.253   8.627   1.697 -0.4472 -0.1613  0.7682
16696SOL     OW51761   4.393   7.410   9.211 -0.1824 -0.0502  0.3993
16696SOL    HW151762   4.454   7.361   9.266 -0.9145 -0.1649  1.1304
16696SOL    HW251763   4.446   7.481   9.174  0.4076 -0.1726  0.9866
16697SOL     OW51764   0.754   2.107   2.172 -0.1472  0.3794 -0.6051
16697SOL    HW151765   0.690   2.044   2.139  0.5279 -0.7445  0.1816
16697SOL    HW251766   0.790   2.066   2.250  0.6943  1.5218 -0.3706
16698SOL     OW51767   5.579   0.607   4.831  0.3497  0.4187 -0.2649
16698SOL    HW151768   5.528   0.662   4.890  0.3877 -0.4887  0.6612
16698SOL    HW251769   5.514   0.570   4.771  0.2683  1.1301 -0.6214
16699SOL     OW51770   8.528   1.992   9.361  0.2290 -0.1901 -0.1013
16699SOL    HW151771   8.463   2.038   9.413  0.4523  0.1468 -0.1178
16699SOL    HW251772   8.503   2.011   9.270  2.4545  3.0867 -0.2082
16700SOL     OW51773   0.531   5.627   3.418 -0.4287  0.3280 -0.4317
16700SOL    HW151774   0.569   5.578   3.491 -0.1332  1.2963  0.0827
16700SOL    HW251775   0.606   5.667   3.374 -0.3903 -1.7659 -2.4679
16701SOL     OW51776   2.393   7.669   6.170  0.1843 -0.5980 -0.9582
16701SOL    HW151777   2.389   7.620   6.252 -1.3037  0.0069 -0.6241
16701SOL    HW251778   2.328   7.627   6.113  2.6530 -2.3550 -2.6658
16702SOL     OW51779   7.978   9.314   6.775  0.3181  0.0917 -0.2728
16702SOL    HW151780   7.947   9.394   6.818 -0.4588  0.1349 -0.8985
16702SOL    HW251781   8.052   9.343   6.722  1.6405 -0.0472  1.3961
16703SOL     OW51782   9.455   8.793   3.006 -0.0972 -0.0311  0.2075
16703SOL    HW151783   9.362   8.807   3.022  0.0197  1.2472 -0.1638
16703SOL    HW251784   9.479   8.721   3.066 -0.5197  1.9976  3.0228
16704SOL     OW51785   1.755   2.688   9.554  0.3244 -0.7665  0.9078
16704SOL    HW151786   1.697   2.644   9.492  0.3589  0.7906 -0.2923
16704SOL    HW251787   1.837   2.640   9.549  0.7604  0.0712 -1.2985
16705SOL     OW51788   0.850   3.542   1.735 -0.6085 -0.0360  0.6229
16705SOL    HW151789   0.804   3.612   1.783 -0.6631 -1.2606  2.4458
16705SOL    HW251790   0.910   3.505   1.799 -1.2375 -2.2644  0.0045
16706SOL     OW51791   1.152   7.974   4.852 -0.6668 -0.7282  0.3213
16706SOL    HW151792   1.231   7.955   4.902 -0.4657 -2.5926 -0.6197
16706SOL    HW251793   1.140   8.068   4.861  1.7685 -0.3460  0.3373
16707SOL     OW51794   1.938   5.445   3.202  0.6222  0.1973 -0.1650
16707SOL    HW151795   2.004   5.448   3.271  0.1350  1.7148  0.2655
16707SOL    HW251796   1.963   5.370   3.148  1.0163 -1.0507  1.6479
16708SOL     OW51797   5.766   6.660   4.271 -0.1731  0.0826 -0.0266
16708SOL    HW151798   5.775   6.642   4.177 -0.2187 -0.1492  0.0131
16708SOL    HW251799   5.778   6.575   4.313  0.3629  0.2748  0.2131
16709SOL     OW51800   7.274   3.023   8.624  0.1918  0.3835  0.4934
16709SOL    HW151801   7.216   2.991   8.693 -0.5144  0.2258 -0.1666
16709SOL    HW251802   7.361   3.023   8.664 -0.3404  1.2298  1.6950
16710SOL     OW51803   7.952   1.782   0.823  0.1534 -0.2190 -0.2446
16710SOL    HW151804   7.897   1.818   0.892 -0.6062 -1.2419 -0.2924
16710SOL    HW251805   7.901   1.792   0.743  0.1010 -0.9924 -0.3197
16711SOL     OW51806   0.852   4.397   5.201  0.9376 -0.5740  0.8431
16711SOL    HW151807   0.766   4.375   5.236  0.5448 -0.9532 -0.3308
16711SOL    HW251808   0.837   4.475   5.148  1.1268 -1.2049 -0.1498
16712SOL     OW51809   0.753   0.274   2.669 -0.1679 -0.2614 -0.3537
16712SOL    HW151810   0.688   0.343   2.686 -0.5308 -0.1215 -2.0891
16712SOL    HW251811   0.836   0.321   2.660 -0.2871 -0.1259 -0.7770
16713SOL     OW51812   2.784   6.727   9.054  0.9487  0.3351  0.5871
16713SOL    HW151813   2.762   6.816   9.028  1.1517  0.4026  0.6432
16713SOL    HW251814   2.828   6.690   8.977 -1.8455 -0.7540 -0.6350
16714SOL     OW51815   2.469   6.590   0.914 -0.0047  0.5233  0.1422
16714SOL    HW151816   2.563   6.570   0.915 -0.1766 -0.6109 -1.6149
16714SOL    HW251817   2.433   6.530   0.849 -1.6788  2.1357 -0.4925
16715SOL     OW51818   6.150   6.417   7.234 -0.1250  0.6351 -0.3241
16715SOL    HW151819   6.078   6.479   7.235 -0.8224 -0.1175 -1.6036
16715SOL    HW251820   6.153   6.382   7.323  0.0379  2.1917  0.3034
16716SOL     OW51821   1.600   1.030   4.605 -0.2114 -0.8145  0.2429
16716SOL    HW151822   1.525   0.997   4.656  0.0367  0.6535  1.6393
16716SOL    HW251823   1.677   1.006   4.658  0.1981 -0.9823 -0.4235
16717SOL     OW51824   5.382   5.902   0.520  0.5502 -0.7698 -0.1716
16717SOL    HW151825   5.348   5.984   0.483 -0.3842  0.2112  2.5925
16717SOL    HW251826   5.472   5.921   0.544 -0.0731  0.0482  1.7930
16718SOL     OW51827   0.925   5.598   1.818 -0.5631 -0.2268  0.2550
16718SOL    HW151828   0.975   5.673   1.786 -1.8069  0.6886  0.3919
16718SOL    HW251829   0.839   5.634   1.839 -0.8565 -1.4945  1.3303
16719SOL     OW51830   7.835   0.837   1.378 -0.4740  0.6865  0.4020
16719SOL    HW151831   7.751   0.881   1.368 -2.0301 -2.1499  0.1009
16719SOL    HW251832   7.813   0.744   1.383  2.5452 -0.0618  1.7944
16720SOL     OW51833   9.142   8.802   9.479  0.5014  0.0231  0.4422
16720SOL    HW151834   9.225   8.764   9.449 -0.8362 -2.6526 -0.1258
16720SOL    HW251835   9.113   8.744   9.549 -0.7485  1.0901  0.8465
16721SOL     OW51836   7.651   2.703   9.046 -0.8548  0.3483 -0.0934
16721SOL    HW151837   7.712   2.634   9.074 -2.0022 -0.7389 -0.1942
16721SOL    HW251838   7.707   2.770   9.008  0.1798 -1.3377 -1.6975
16722SOL     OW51839   4.183   5.714   5.056 -0.5544  0.4049 -0.0893
16722SOL    HW151840   4.192   5.619   5.057 -1.5998  0.2962  0.4970
16722SOL    HW251841   4.101   5.731   5.103 -0.1514  1.6209  0.2147
16723SOL     OW51842   0.419   2.991   3.655  0.1487 -0.4148 -0.7098
16723SOL    HW151843   0.385   3.067   3.703 -0.9660 -0.5296 -1.2726
16723SOL    HW251844   0.464   2.938   3.721  0.0773  0.2510 -0.1235
16724SOL     OW51845   3.746   0.399   6.171  0.3289  0.1187 -0.0487
16724SOL    HW151846   3.722   0.314   6.206  0.7682  0.3513  0.8466
16724SOL    HW251847   3.826   0.423   6.218  1.8815 -0.2660 -2.3136
16725SOL     OW51848   9.152   5.223   4.675 -0.6945  0.0198 -0.4567
16725SOL    HW151849   9.206   5.148   4.647 -0.5236 -0.7267  1.6790
16725SOL    HW251850   9.182   5.241   4.765 -1.8781  1.6083 -0.3497
16726SOL     OW51851   3.430   0.965   2.852  0.0986  0.0594  0.0574
16726SOL    HW151852   3.506   0.935   2.803 -0.5306  0.2651 -1.0593
16726SOL    HW251853   3.411   0.894   2.913 -0.9097 -1.5089 -2.0155
16727SOL     OW51854   8.759   9.611   5.493 -0.4426  0.1000 -0.2625
16727SOL    HW151855   8.706   9.536   5.464 -1.0365  0.3282  0.2093
16727SOL    HW251856   8.707   9.688   5.469  0.4196  0.3955 -1.2573
16728SOL     OW51857   8.676   9.072   6.627 -0.2379 -0.1446  0.3635
16728SOL    HW151858   8.693   8.981   6.652 -0.2420  0.1276  1.4244
16728SOL    HW251859   8.680   9.072   6.532  1.5342 -0.9140  0.3934
16729SOL     OW51860   0.579   3.967   6.158 -0.4498 -0.1600  0.0293
16729SOL    HW151861   0.574   4.044   6.214  0.7783 -0.6066  0.8171
16729SOL    HW251862   0.587   4.002   6.069  1.7778  0.7380  0.4940
16730SOL     OW51863   5.582   5.862   5.265 -0.3583  0.1680 -0.0188
16730SOL    HW151864   5.557   5.944   5.305 -1.8396 -0.5022  0.4866
16730SOL    HW251865   5.678   5.865   5.261 -0.3326  1.3658  1.1389
16731SOL     OW51866   4.418   0.309   9.498  0.1722 -0.1917 -0.4241
16731SOL    HW151867   4.400   0.263   9.580 -1.5719  0.6731 -0.2772
16731SOL    HW251868   4.454   0.241   9.440  0.1570 -1.1170  0.6112
16732SOL     OW51869   4.040   1.686   4.854 -0.1626 -0.1713 -0.1190
16732SOL    HW151870   4.033   1.781   4.847 -0.2379 -0.1949 -0.3739
16732SOL    HW251871   3.959   1.659   4.898  0.3003 -0.0252  0.8534
16733SOL     OW51872   9.575   4.462   8.186  0.6122 -0.1117  0.4908
16733SOL    HW151873   9.518   4.394   8.149 -1.2352  2.5213 -1.9529
16733SOL    HW251874   9.526   4.497   8.260  0.5329  0.0540  0.3589
16734SOL     OW51875   7.045   7.194   6.940 -0.1071 -0.1741  0.0471
16734SOL    HW151876   6.966   7.230   6.980 -1.0060  0.3161 -2.0384
16734SOL    HW251877   7.064   7.254   6.867  1.0160 -1.4063 -0.7069
16735SOL     OW51878   8.147   3.182   4.395 -0.6571  0.3501  0.0194
16735SOL    HW151879   8.157   3.090   4.421 -0.0502  0.3998 -0.0292
16735SOL    HW251880   8.054   3.190   4.372 -0.7707 -0.1859  0.2727
16736SOL     OW51881   9.484   4.192   4.685  0.9690 -0.4347  0.0380
16736SOL    HW151882   9.527   4.171   4.768 -0.2560 -1.5224  0.4350
16736SOL    HW251883   9.462   4.285   4.692  0.4812 -0.6101  1.1391
16737SOL     OW51884   3.602   2.423   0.563 -0.0577  0.2772 -0.3998
16737SOL    HW151885   3.566   2.397   0.648 -0.4377 -1.7278 -1.1216
16737SOL    HW251886   3.660   2.497   0.584 -1.6915  1.1675  1.2886
16738SOL     OW51887   0.489   2.442   6.026  0.1700 -0.1677 -0.0618
16738SOL    HW151888   0.397   2.466   6.016  0.3658  0.2499 -0.9788
16738SOL    HW251889   0.510   2.467   6.116 -0.3069  0.8121 -0.2035
16739SOL     OW51890   5.421   2.609   3.799 -0.1004  0.2501  0.6350
16739SOL    HW151891   5.327   2.600   3.816  0.1197  0.5354  2.1053
16739SOL    HW251892   5.445   2.528   3.753 -1.5374  1.2719 -2.1995
16740SOL     OW51893   1.372   7.164   6.447 -0.1907 -0.3916 -0.2594
16740SOL    HW151894   1.331   7.219   6.381 -1.5547 -1.2216 -0.1374
16740SOL    HW251895   1.335   7.077   6.432 -1.7867 -0.3086  2.5490
16741SOL     OW51896   0.063   0.889   2.686 -0.3975 -0.0703  0.5957
16741SOL    HW151897   0.105   0.920   2.766 -0.7034 -0.3481  0.8651
16741SOL    HW251898   0.122   0.821   2.653 -0.0111  0.4002  0.3059
16742SOL     OW51899   5.582   7.813   8.411  0.2002  0.5228  0.2091
16742SOL    HW151900   5.639   7.737   8.421 -0.6988 -0.2426 -0.2699
16742SOL    HW251901   5.555   7.835   8.499  0.6693  0.4462  0.3754
16743SOL     OW51902   3.463   5.048   5.229  0.0328  0.0410  0.1515
16743SOL    HW151903   3.493   4.995   5.156  1.0827  2.9266 -1.6545
16743SOL    HW251904   3.380   5.086   5.199  0.8448  1.8573  0.0490
16744SOL     OW51905   7.250   7.909   5.393  0.3988  0.2658  0.5392
16744SOL    HW151906   7.340   7.905   5.360  0.4754  0.1508  0.7633
16744SOL    HW251907   7.259   7.928   5.487  0.1697  1.2127  0.3863
16745SOL     OW51908   2.162   1.642   6.511  0.1397  0.4470 -0.4296
16745SOL    HW151909   2.070   1.649   6.537 -0.1575 -2.0680 -0.6288
16745SOL    HW251910   2.205   1.600   6.585  0.9065  0.5162 -0.8234
16746SOL     OW51911   4.037   1.259   0.679  0.6465 -0.2755 -0.2414
16746SOL    HW151912   4.064   1.336   0.729  0.9077 -0.2530 -0.4158
16746SOL    HW251913   3.942   1.255   0.691  0.4714  0.7268 -1.1562
16747SOL     OW51914   5.548   2.469   6.158  0.1874 -0.2879  0.7129
16747SOL    HW151915   5.497   2.550   6.150  2.9400  1.8854  2.9647
16747SOL    HW251916   5.486   2.404   6.190 -1.6654  1.5000  0.9441
16748SOL     OW51917   7.657   5.600   6.970  0.2348 -0.3580  0.1628
16748SOL    HW151918   7.672   5.598   7.065  0.3856 -2.5556  0.1532
16748SOL    HW251919   7.566   5.628   6.961  0.5990  1.1387  0.8642
16749SOL     OW51920   0.601   3.720   9.160 -0.0647  0.0738  0.0926
16749SOL    HW151921   0.561   3.776   9.226 -0.2555 -2.2223  2.0657
16749SOL    HW251922   0.560   3.746   9.077 -1.4652  1.5532  1.1923
16750SOL     OW51923   1.284   9.649   1.060  0.1389 -0.1169 -0.3319
16750SOL    HW151924   1.322   9.658   1.147 -1.0155 -1.9969  0.4292
16750SOL    HW251925   1.350   9.686   1.001  1.9031 -0.7654  1.1567
16751SOL     OW51926   6.106   3.575   7.452  0.1061 -0.7220  0.0458
16751SOL    HW151927   6.138   3.578   7.362  0.9341  3.1732  0.2729
16751SOL    HW251928   6.017   3.542   7.444 -0.7335  1.7378 -2.6387
16752SOL     OW51929   8.701   8.925   3.117 -0.2294  0.4880 -0.1488
16752SOL    HW151930   8.641   8.981   3.166  1.2128  1.6787  0.3638
16752SOL    HW251931   8.645   8.865   3.069 -1.7536  0.3178  1.7329
16753SOL     OW51932   1.543   1.374   6.820 -0.2109 -0.0522 -0.3221
16753SOL    HW151933   1.492   1.300   6.849 -0.7422  0.7309  0.8200
16753SOL    HW251934   1.552   1.362   6.725 -1.2027 -0.9890 -0.3125
16754SOL     OW51935   7.400   5.312   1.066  0.2974  0.1263  0.2002
16754SOL    HW151936   7.452   5.232   1.065  1.1891  0.6922 -0.4009
16754SOL    HW251937   7.312   5.283   1.088  0.9507 -0.7926  1.7449
16755SOL     OW51938   3.195   5.372   2.781 -0.0049  0.4936 -0.1688
16755SOL    HW151939   3.240   5.375   2.866 -0.0618  0.6323 -0.1423
16755SOL    HW251940   3.120   5.431   2.792 -1.0386 -0.8341  0.2753
16756SOL     OW51941   4.214   6.983   8.653  0.7148 -0.0963  0.1101
16756SOL    HW151942   4.226   6.888   8.651  1.1614 -0.0596  0.7049
16756SOL    HW251943   4.190   7.006   8.564  1.3242 -0.6794 -0.2187
16757SOL     OW51944   7.639   2.604   5.010 -0.0719 -0.6948  0.3330
16757SOL    HW151945   7.614   2.550   4.935  0.6640  1.1907 -1.3487
16757SOL    HW251946   7.675   2.542   5.074  0.3600 -2.2295 -1.3315
16758SOL     OW51947   1.887   4.017   9.565  0.0373 -0.5880  0.4632
16758SOL    HW151948   1.894   3.926   9.535  0.0806 -0.6034  0.5197
16758SOL    HW251949   1.794   4.037   9.560  0.2789  0.4313 -2.8198
16759SOL     OW51950   7.594   7.157   3.515 -0.7300 -0.2446  0.2801
16759SOL    HW151951   7.673   7.104   3.519 -1.2145 -0.9838  0.1285
16759SOL    HW251952   7.607   7.213   3.438 -0.7727 -1.0504 -0.3234
16760SOL     OW51953   4.666   6.563   0.415 -0.0082  0.0254 -0.0124
16760SOL    HW151954   4.636   6.614   0.340  0.3531  0.3937  0.0900
16760SOL    HW251955   4.761   6.564   0.408  0.0293  0.1026  0.4718
16761SOL     OW51956   1.863   3.511   4.071 -0.6396 -0.3630  0.1472
16761SOL    HW151957   1.903   3.489   3.987 -0.3923 -1.5066  0.5476
16761SOL    HW251958   1.830   3.428   4.105 -0.3822  0.0055  1.3600
16762SOL     OW51959   7.195   6.634   4.365  0.7633  0.1837  0.0108
16762SOL    HW151960   7.208   6.583   4.445 -0.9737  0.9388  0.8368
16762SOL    HW251961   7.100   6.643   4.358  0.7379 -1.1302 -2.9893
16763SOL     OW51962   4.811   4.930   4.110 -0.4855  0.2836  0.5682
16763SOL    HW151963   4.735   4.879   4.139 -0.7659  0.0250 -0.5823
16763SOL    HW251964   4.820   4.909   4.017  2.0251 -1.0059  1.0224
16764SOL     OW51965   8.114   0.004   3.453 -0.1057  0.3272  0.1593
16764SOL    HW151966   8.098   0.083   3.505 -1.0174  0.6891 -0.6174
16764SOL    HW251967   8.120   0.037   3.363 -2.0425 -0.6171 -0.3705
16765SOL     OW51968   4.566   9.451   6.065  0.3271 -0.0064 -0.4061
16765SOL    HW151969   4.535   9.372   6.109 -2.1134  1.0593 -0.0620
16765SOL    HW251970   4.515   9.454   5.984 -0.8978  2.0752  0.3867
16766SOL     OW51971   0.485   2.451   7.275  0.0653 -0.4328 -0.2377
16766SOL    HW151972   0.411   2.408   7.318 -0.4524  0.9179  0.2734
16766SOL    HW251973   0.535   2.490   7.347  1.3950 -1.4597 -0.5552
16767SOL     OW51974   6.482   7.371   0.950  0.3518 -0.2958  0.3456
16767SOL    HW151975   6.448   7.316   0.880 -0.7419  0.4917  0.2214
16767SOL    HW251976   6.507   7.453   0.907  0.5665 -0.1509  0.7340
16768SOL     OW51977   5.935   3.738   5.727  0.1177  0.1388 -0.0012
16768SOL    HW151978   5.986   3.816   5.706  1.1754 -1.0737 -2.3007
16768SOL    HW251979   5.961   3.716   5.817  2.4976  0.4768 -0.5362
16769SOL     OW51980   0.495   8.547   0.289  0.0953  0.3233  0.3641
16769SOL    HW151981   0.422   8.486   0.279  0.7549 -0.6051  1.0486
16769SOL    HW251982   0.465   8.628   0.248 -0.1990 -0.9351 -2.1061
16770SOL     OW51983   2.417   5.705   9.521  0.1573 -0.0133 -0.2376
16770SOL    HW151984   2.471   5.779   9.549  0.8603 -0.5775 -0.0705
16770SOL    HW251985   2.443   5.690   9.430  0.5044 -0.4690 -0.0695
16771SOL     OW51986   8.208   6.924   4.188 -0.3313 -0.1601  0.0874
16771SOL    HW151987   8.227   6.937   4.280 -0.7758  0.0211  0.1553
16771SOL    HW251988   8.171   7.007   4.158  1.0655  0.2535 -0.5914
16772SOL     OW51989   9.118   5.174   2.749  0.0240  0.9238  0.0458
16772SOL    HW151990   9.036   5.176   2.702  0.0830 -0.3812 -0.1402
16772SOL    HW251991   9.154   5.087   2.732  0.6340  0.8598  1.4782
16773SOL     OW51992   3.435   1.485   6.286 -0.2160  0.4137  0.3450
16773SOL    HW151993   3.353   1.438   6.301  0.6998 -1.2133  0.4813
16773SOL    HW251994   3.491   1.423   6.241  0.3602  2.0978 -1.3968
16774SOL     OW51995   8.937   7.177   5.158 -0.2785  0.4171 -0.2231
16774SOL    HW151996   8.918   7.221   5.075  2.0964  1.3262 -0.3359
16774SOL    HW251997   8.977   7.244   5.213 -0.3754 -0.5804  1.1215
16775SOL     OW51998   3.675   7.579   2.385 -0.7394  0.3405  0.0137
16775SOL    HW151999   3.689   7.485   2.370  0.3478  0.3034  1.1355
16775SOL    HW252000   3.585   7.594   2.357 -1.3134 -1.2667  0.8597
16776SOL     OW52001   0.401   5.086   7.022 -0.2398  0.5243 -0.2834
16776SOL    HW152002   0.400   4.995   7.052  1.5978  0.1989 -1.0566
16776SOL    HW252003   0.492   5.100   6.994 -0.8662  2.1233 -1.6223
16777SOL     OW52004   9.573   0.662   7.485 -0.2121  0.3446 -0.2191
16777SOL    HW152005   9.632   0.617   7.425 -1.1210 -1.6395  0.2903
16777SOL    HW252006   9.629   0.725   7.531  1.0046  0.1241 -1.3470
16778SOL     OW52007   0.307   2.474   5.107  0.3136  0.5289 -0.8814
16778SOL    HW152008   0.392   2.456   5.147 -0.4268 -0.1068  0.4768
16778SOL    HW252009   0.247   2.412   5.149 -1.2866  2.5195 -0.0659
16779SOL     OW52010   6.012   4.924   9.390 -0.6692  0.2890 -0.7578
16779SOL    HW152011   6.105   4.930   9.367 -0.5301  1.1567 -0.0274
16779SOL    HW252012   5.970   4.885   9.314  0.7439 -3.0849  0.0103
16780SOL     OW52013   9.360   7.497   7.589  0.3362  0.3620 -0.3196
16780SOL    HW152014   9.347   7.523   7.680  2.2240 -0.1728  0.1499
16780SOL    HW252015   9.419   7.422   7.594 -1.9863 -1.6952 -1.8507
16781SOL     OW52016   1.757   0.928   9.243 -0.0992  0.8853 -0.8179
16781SOL    HW152017   1.826   0.878   9.199 -0.1650  0.9349 -0.9794
16781SOL    HW252018   1.803   0.977   9.312 -0.4053 -1.5746  1.2820
16782SOL     OW52019   4.539   4.072   7.774  0.1752  0.1691 -0.3893
16782SOL    HW152020   4.553   4.023   7.693  1.3579 -1.4771  0.7238
16782SOL    HW252021   4.627   4.085   7.809 -0.2849  1.2449  0.4191
16783SOL     OW52022   0.968   0.171   8.128 -0.1547  0.3904  0.2294
16783SOL    HW152023   0.910   0.098   8.103 -0.6873  0.5010  1.1021
16783SOL    HW252024   0.926   0.248   8.091 -0.0727  0.3619  0.0764
16784SOL     OW52025   0.713   6.158   6.535 -0.1519  0.6633 -0.1236
16784SOL    HW152026   0.664   6.177   6.614  1.7923  0.6365  1.1582
16784SOL    HW252027   0.763   6.238   6.517  1.4815 -0.2175  0.2929
16785SOL     OW52028   3.059   2.085   4.357 -0.0370  0.1950 -0.2057
16785SOL    HW152029   3.020   2.019   4.415 -0.5799  1.3986  0.8433
16785SOL    HW252030   3.086   2.155   4.416 -2.2098  2.2554 -1.5176
16786SOL     OW52031   6.906   4.897   7.357 -0.2557  0.0192 -0.1771
16786SOL    HW152032   6.926   4.971   7.299 -0.0573 -0.7665 -1.1366
16786SOL    HW252033   6.824   4.861   7.322 -0.8507  0.3380  0.8522
16787SOL     OW52034   0.702   3.841   1.243 -0.4796 -0.1144 -0.6414
16787SOL    HW152035   0.616   3.814   1.277  0.0235  2.3804  3.1800
16787SOL    HW252036   0.761   3.772   1.274 -0.7163 -0.5365 -1.0985
16788SOL     OW52037   5.859   2.332   0.191 -0.4393  0.1044  0.2931
16788SOL    HW152038   5.878   2.426   0.186 -0.1405 -0.0397 -2.0339
16788SOL    HW252039   5.932   2.296   0.242  0.2810  0.9207 -0.1291
16789SOL     OW52040   2.788   4.241   3.165 -0.4584 -0.2959 -0.5080
16789SOL    HW152041   2.713   4.248   3.224 -0.5094 -1.0076 -0.4848
16789SOL    HW252042   2.838   4.167   3.199  1.3474  1.3663  0.7114
16790SOL     OW52043   4.488   0.983   1.886 -0.0238  0.2210  0.3540
16790SOL    HW152044   4.555   0.989   1.954 -0.7040  0.4128  1.0196
16790SOL    HW252045   4.444   0.899   1.902  0.3573 -0.1262 -0.3683
16791SOL     OW52046   8.032   7.931   2.239 -0.4486  0.2885 -0.4908
16791SOL    HW152047   7.960   7.989   2.264 -2.0034 -1.7765  0.0368
16791SOL    HW252048   8.026   7.857   2.299  1.9875 -0.0961 -0.6017
16792SOL     OW52049   3.536   2.130   4.707  0.4436  0.3411 -0.0613
16792SOL    HW152050   3.451   2.141   4.750  0.5879 -0.2889  0.3866
16792SOL    HW252051   3.592   2.196   4.749  0.5465 -0.1740  0.6464
16793SOL     OW52052   7.461   1.947   7.651  0.6538  0.1757 -0.2819
16793SOL    HW152053   7.467   2.015   7.585  0.9291 -0.0684 -0.5146
16793SOL    HW252054   7.397   1.885   7.617  0.5349  0.2287 -0.1549
16794SOL     OW52055   2.368   3.601   2.501  0.2497  0.2589 -0.5731
16794SOL    HW152056   2.407   3.605   2.414  1.1872 -0.9001 -0.2307
16794SOL    HW252057   2.426   3.544   2.551 -0.9965 -0.1759  0.4402
16795SOL     OW52058   8.821   5.350   3.054 -0.2165 -0.2096 -0.0178
16795SOL    HW152059   8.866   5.374   2.973 -1.3304  1.0524 -0.2958
16795SOL    HW252060   8.760   5.281   3.028  1.1958 -1.5995  0.2705
16796SOL     OW52061   2.497   3.048   5.223 -0.1067 -0.1801  0.0684
16796SOL    HW152062   2.532   3.125   5.176 -2.5298  1.1535  0.2763
16796SOL    HW252063   2.554   3.039   5.300 -0.4478  2.1972  0.6811
16797SOL     OW52064   0.398   4.484   4.474 -0.0083 -0.2051 -0.3041
16797SOL    HW152065   0.391   4.397   4.514  1.9120 -0.0512  0.4554
16797SOL    HW252066   0.313   4.525   4.491  0.1388 -0.7778  2.1673
16798SOL     OW52067   3.079   0.711   2.850  0.3955  0.5425  0.0872
16798SOL    HW152068   3.088   0.697   2.945  0.1958  1.7852  0.3050
16798SOL    HW252069   3.103   0.803   2.837 -0.9086  0.7736 -0.8797
16799SOL     OW52070   4.075   5.029   3.166 -0.6627  0.4574  0.3086
16799SOL    HW152071   4.097   5.081   3.242  1.2333 -3.1240  2.4894
16799SOL    HW252072   4.147   5.043   3.105  0.6189 -0.5720  1.5070
16800SOL     OW52073   8.467   0.225   7.441  0.0152  0.6215  0.7393
16800SOL    HW152074   8.379   0.201   7.471 -0.4076  0.4425 -0.5649
16800SOL    HW252075   8.457   0.238   7.347  1.7819 -1.3933  0.1772
16801SOL     OW52076   7.153   3.013   2.854  0.2142 -0.3575 -0.1787
16801SOL    HW152077   7.207   2.961   2.913  0.7115  0.2854 -0.0543
16801SOL    HW252078   7.121   3.085   2.909 -0.8353 -0.7573 -0.2306
16802SOL     OW52079   7.777   3.018   7.807 -0.5915 -0.3234  0.0261
16802SOL    HW152080   7.840   2.948   7.794 -1.2161 -0.9505  0.3192
16802SOL    HW252081   7.714   3.007   7.735 -0.4051  0.2605 -0.2326
16803SOL     OW52082   0.434   4.219   4.138 -0.4743  0.1079  0.0964
16803SOL    HW152083   0.451   4.133   4.097 -0.6736  0.3235 -0.4506
16803SOL    HW252084   0.511   4.271   4.115 -0.1899 -0.0265  0.7270
16804SOL     OW52085   2.627   5.259   4.907 -0.3325  0.0405  0.2399
16804SOL    HW152086   2.611   5.348   4.877  1.6797 -0.1239 -1.5350
16804SOL    HW252087   2.540   5.222   4.920 -1.2982  1.2088 -2.2804
16805SOL     OW52088   4.794   5.095   5.218 -0.1942  0.0064  0.3771
16805SOL    HW152089   4.780   5.040   5.294 -0.4564  0.6858  0.8311
16805SOL    HW252090   4.842   5.171   5.251  1.7474 -0.7454 -0.5652
16806SOL     OW52091   9.003   4.264   7.064  0.0766 -0.1006 -0.0964
16806SOL    HW152092   9.045   4.207   7.128  0.6392  1.3145  0.8604
16806SOL    HW252093   9.067   4.272   6.993  0.5923  0.4151  0.4117
16807SOL     OW52094   4.150   0.241   6.508  0.6253 -0.1023  0.1471
16807SOL    HW152095   4.171   0.148   6.497  0.0614 -0.2776  0.5015
16807SOL    HW252096   4.141   0.253   6.602 -0.4733  0.0388  0.0410
16808SOL     OW52097   1.873   1.115   1.174  0.3418 -0.2851  0.0433
16808SOL    HW152098   1.843   1.131   1.263  1.6108 -0.1318  0.4542
16808SOL    HW252099   1.794   1.127   1.120 -0.1384  0.9806  0.9879
16809SOL     OW52100   2.489   1.212   9.383 -0.3218  0.4044  0.0600
16809SOL    HW152101   2.522   1.122   9.390 -0.0219  0.5712  0.9052
16809SOL    HW252102   2.510   1.251   9.467 -2.4961  0.5867  0.5743
16810SOL     OW52103   7.158   2.952   0.342 -0.2557 -0.0891 -0.4612
16810SOL    HW152104   7.173   2.924   0.252  1.1880 -0.2014 -0.2094
16810SOL    HW252105   7.088   2.894   0.374 -0.0134 -0.7913 -1.1638
16811SOL     OW52106   2.464   8.272   8.389 -0.0586  0.3196  0.0313
16811SOL    HW152107   2.405   8.197   8.383 -0.1756  0.4053  0.1189
16811SOL    HW252108   2.537   8.250   8.331 -1.4294  1.3566 -2.2413
16812SOL     OW52109   1.870   4.875   3.642 -0.4073  0.6663 -0.0727
16812SOL    HW152110   1.957   4.863   3.682 -0.1317  1.2241 -0.4907
16812SOL    HW252111   1.887   4.930   3.566 -1.0210  0.1185 -0.6106
16813SOL     OW52112   6.050   1.325   2.392  0.0014 -0.1191  0.6327
16813SOL    HW152113   5.998   1.255   2.431 -0.0035  0.7410  2.2513
16813SOL    HW252114   6.124   1.280   2.351 -0.1535 -1.0856  1.3795
16814SOL     OW52115   2.390   8.130   1.950  0.6997 -0.1002 -0.0064
16814SOL    HW152116   2.361   8.216   1.982  2.7266  0.4634  0.5011
16814SOL    HW252117   2.334   8.067   1.995  0.8666  0.8621  1.6452
16815SOL     OW52118   9.599   6.047   2.112  0.4266  0.0138 -0.2558
16815SOL    HW152119   9.680   6.078   2.152  0.0219  0.6380  0.1073
16815SOL    HW252120   9.619   5.958   2.082  0.2835 -1.2133  2.8690
16816SOL     OW52121   8.903   5.139   7.391  0.2996 -0.4585 -0.6493
16816SOL    HW152122   8.925   5.183   7.308  0.5233 -0.0809 -0.3947
16816SOL    HW252123   8.807   5.138   7.392  0.2821  0.5197 -0.4136
16817SOL     OW52124   4.699   4.088   4.266  0.2054 -0.1730 -0.0818
16817SOL    HW152125   4.756   4.117   4.195 -0.3514  0.2032 -0.3779
16817SOL    HW252126   4.698   4.162   4.327  0.7989 -0.5494  0.4016
16818SOL     OW52127   4.223   8.324   3.432 -0.0181  0.0839  0.4994
16818SOL    HW152128   4.292   8.258   3.426  0.6826  0.8287  0.1484
16818SOL    HW252129   4.260   8.401   3.388 -0.4103  1.0531  1.8256
16819SOL     OW52130   9.016   8.228   8.055  0.1456 -0.2074  0.2758
16819SOL    HW152131   9.002   8.232   8.150 -1.2035  0.2305  0.0920
16819SOL    HW252132   8.973   8.147   8.028  0.3898 -0.2506  0.0149
16820SOL     OW52133   1.249   9.514   8.023  0.1151 -0.2908  0.8419
16820SOL    HW152134   1.264   9.532   8.116  0.0386  1.1168  0.6039
16820SOL    HW252135   1.193   9.437   8.022 -1.0684  0.5112  2.0117
16821SOL     OW52136   2.328   5.541   2.483  0.2908  0.1878  0.0283
16821SOL    HW152137   2.326   5.510   2.392 -0.6686 -0.4416  0.2576
16821SOL    HW252138   2.419   5.531   2.510  0.1953 -1.5763 -0.2017
16822SOL     OW52139   3.063   8.920   9.528  0.0244  0.3345  0.1932
16822SOL    HW152140   3.149   8.916   9.570 -0.1212  0.3226  0.4940
16822SOL    HW252141   3.000   8.921   9.601 -0.2006  1.3373  0.0097
16823SOL     OW52142   9.295   7.994   4.233 -0.8368  0.0473  0.0761
16823SOL    HW152143   9.367   8.032   4.283  0.3994 -2.3027  0.2006
16823SOL    HW252144   9.236   7.958   4.299 -1.0978  0.1567 -0.0933
16824SOL     OW52145   5.761   9.616   7.635 -0.1541  0.5265 -0.2682
16824SOL    HW152146   5.780   9.655   7.720 -0.7657  1.3819 -0.5144
16824SOL    HW252147   5.847   9.587   7.603 -0.2304 -2.6981  1.9720
16825SOL     OW52148   5.698   4.144   4.590 -0.5154  0.4594 -0.8308
16825SOL    HW152149   5.674   4.075   4.528  0.4046 -0.5465 -0.0974
16825SOL    HW252150   5.794   4.140   4.595 -0.6133 -0.3177  1.5775
16826SOL     OW52151   2.430   9.431   9.323  0.5283 -0.2663 -0.2239
16826SOL    HW152152   2.407   9.447   9.415  1.3873  0.6153 -0.1544
16826SOL    HW252153   2.448   9.337   9.320 -2.2368 -0.8878 -0.1211
16827SOL     OW52154   5.059   7.748   6.075  0.6183 -0.5384 -0.1077
16827SOL    HW152155   5.040   7.659   6.046 -1.5510 -0.3744  0.6876
16827SOL    HW252156   5.062   7.743   6.170  0.3735  0.2635 -0.0497
16828SOL     OW52157   6.770   4.270   6.670 -0.1211  0.1000  0.0199
16828SOL    HW152158   6.773   4.262   6.575  0.0543 -1.7643  0.1579
16828SOL    HW252159   6.851   4.316   6.693  0.6134 -0.8547 -0.6062
16829SOL     OW52160   7.705   9.609   1.099 -0.2368  0.1099  0.4611
16829SOL    HW152161   7.613   9.602   1.074  0.4397 -2.9412 -1.7861
16829SOL    HW252162   7.736   9.688   1.056 -1.4642  0.4155  0.1028
16830SOL     OW52163   4.132   4.813   4.130 -0.1987 -0.0396 -0.3765
16830SOL    HW152164   4.074   4.785   4.201  0.6586 -0.4059  0.1976
16830SOL    HW252165   4.118   4.907   4.124  0.8287  0.2794  1.3518
16831SOL     OW52166   7.780   3.184   2.866 -0.1669  0.2091  0.4650
16831SOL    HW152167   7.825   3.158   2.786 -1.5973 -0.4897 -0.1496
16831SOL    HW252168   7.780   3.279   2.864  1.8602  0.2712  0.8533
16832SOL     OW52169   6.239   1.398   1.228  0.4122  0.0025 -0.0094
16832SOL    HW152170   6.168   1.375   1.288 -0.3532 -0.1772 -0.9487
16832SOL    HW252171   6.210   1.481   1.189  1.2321  0.4796  0.3731
16833SOL     OW52172   3.533   2.425   7.260  0.4059  0.0854 -0.4004
16833SOL    HW152173   3.468   2.459   7.199 -1.5271  0.7537  1.8850
16833SOL    HW252174   3.543   2.493   7.326 -0.0511 -1.8142  1.7705
16834SOL     OW52175   9.443   4.995   1.566 -0.2304  0.0074 -0.1989
16834SOL    HW152176   9.357   5.023   1.597 -0.7883 -1.7080 -0.1392
16834SOL    HW252177   9.444   5.017   1.473 -0.4019  0.7800 -0.0229
16835SOL     OW52178   6.698   3.599   2.084  0.0593 -0.0742 -0.5263
16835SOL    HW152179   6.728   3.589   2.174  0.8220  1.1013 -0.6268
16835SOL    HW252180   6.620   3.544   2.078  0.0030 -0.1646  0.8500
16836SOL     OW52181   6.001   2.120   6.738  0.3860 -0.1745  0.2236
16836SOL    HW152182   6.018   2.047   6.798  1.8792 -0.3654 -0.3768
16836SOL    HW252183   5.983   2.194   6.794 -0.2293 -0.8006  0.8669
16837SOL     OW52184   5.863   2.467   7.368  0.4826  0.1265 -0.6544
16837SOL    HW152185   5.791   2.530   7.373  0.2246 -0.2442  2.4424
16837SOL    HW252186   5.941   2.520   7.357  0.0323  0.8095 -0.6485
16838SOL     OW52187   2.860   8.983   4.373  0.2074 -0.5664  0.0324
16838SOL    HW152188   2.908   9.063   4.396  0.1195 -0.7995  1.0831
16838SOL    HW252189   2.803   9.010   4.301  0.9173  0.0609 -0.3045
16839SOL     OW52190   1.250   2.373   5.933 -0.1357 -0.3931  0.1335
16839SOL    HW152191   1.157   2.370   5.954 -0.1778 -1.1806 -0.1412
16839SOL    HW252192   1.258   2.444   5.869  0.0175  2.1413  2.7943
16840SOL     OW52193   5.305   4.968   4.301  0.3402  0.0851  0.4703
16840SOL    HW152194   5.357   5.049   4.296  1.1494 -0.3555  1.4728
16840SOL    HW252195   5.340   4.914   4.230  0.8060  0.0463  0.7269
16841SOL     OW52196   6.086   6.655   6.610 -0.3990 -0.1511 -0.1516
16841SOL    HW152197   6.160   6.633   6.667 -0.3626  0.5493  0.0829
16841SOL    HW252198   6.122   6.656   6.522 -0.1463  0.0858 -0.0468
16842SOL     OW52199   6.195   0.849   8.469 -0.1796  0.2825 -0.2146
16842SOL    HW152200   6.133   0.903   8.420 -0.0524  0.9003  0.2985
16842SOL    HW252201   6.181   0.760   8.435  1.1754  0.9083 -2.7311
16843SOL     OW52202   0.705   8.852   1.890  0.2731  0.8907  0.2551
16843SOL    HW152203   0.699   8.832   1.983 -0.0212  0.0219  0.0613
16843SOL    HW252204   0.618   8.830   1.855  0.0066  2.3086 -0.0312
16844SOL     OW52205   3.816   6.459   7.045  0.0026 -0.2604 -0.0946
16844SOL    HW152206   3.740   6.497   7.088 -0.5295 -0.3895 -0.8992
16844SOL    HW252207   3.847   6.529   6.986  1.8539  0.6192  1.7874
16845SOL     OW52208   7.701   5.250   9.504  0.1077 -0.1744  0.3168
16845SOL    HW152209   7.647   5.179   9.468 -0.2510  0.7978 -1.1963
16845SOL    HW252210   7.776   5.255   9.445  1.1830 -0.5892  1.5948
16846SOL     OW52211   3.308   1.341   0.355 -0.2925 -0.1889  0.7397
16846SOL    HW152212   3.378   1.389   0.399  0.0663  0.1353 -0.1594
16846SOL    HW252213   3.300   1.383   0.269 -0.4610 -1.2752  0.2046
16847SOL     OW52214   4.452   1.932   5.820 -0.1314 -0.0783  0.6316
16847SOL    HW152215   4.441   2.018   5.779 -2.9239 -1.3520 -1.6706
16847SOL    HW252216   4.379   1.924   5.881 -0.4611 -1.1116  0.1403
16848SOL     OW52217   2.287   3.866   3.932  0.7188 -0.3203  0.5108
16848SOL    HW152218   2.365   3.823   3.967  1.5594 -0.1792 -1.1129
16848SOL    HW252219   2.230   3.794   3.906  0.6258 -0.4280  1.0032
16849SOL     OW52220   4.304   2.514   6.512 -0.1670  0.3680 -0.2311
16849SOL    HW152221   4.372   2.527   6.447  1.2358  0.9893  1.2747
16849SOL    HW252222   4.285   2.602   6.544 -0.9448  0.0958  0.0754
16850SOL     OW52223   9.654   2.471   2.774 -0.3118 -0.3393 -0.2812
16850SOL    HW152224   9.639   2.453   2.681 -1.6718  2.1158 -0.6508
16850SOL    HW252225   9.568   2.496   2.807  0.1385 -1.2499  1.6977
16851SOL     OW52226   8.046   8.793   7.894  0.2705 -0.3859 -0.6118
16851SOL    HW152227   8.117   8.820   7.835  0.7895 -1.8688 -0.7098
16851SOL    HW252228   8.089   8.735   7.957 -0.7499 -0.8339 -0.3197
16852SOL     OW52229   6.734   9.195   4.157 -0.0005 -0.1407 -0.3043
16852SOL    HW152230   6.797   9.225   4.091 -0.6485 -1.0189 -1.3551
16852SOL    HW252231   6.652   9.183   4.109 -0.1649 -2.0388  0.3643
16853SOL     OW52232   9.666   0.698   1.182  0.1609 -0.4650 -0.0720
16853SOL    HW152233   9.751   0.693   1.226  0.9271  1.3573 -1.2262
16853SOL    HW252234   9.620   0.769   1.226 -0.0306 -0.2356 -0.6369
16854SOL     OW52235   1.624   3.813   6.875 -0.6123  0.3268  0.1975
16854SOL    HW152236   1.560   3.781   6.811  1.5195 -0.0428 -1.8704
16854SOL    HW252237   1.654   3.733   6.920 -0.5962  0.3268  0.1869
16855SOL     OW52238   2.769   4.952   0.037 -0.1734 -0.2091 -0.0327
16855SOL    HW152239   2.751   4.981  -0.052  0.3286 -0.6718 -0.2869
16855SOL    HW252240   2.824   5.021   0.074 -0.4236  0.0070 -0.0607
16856SOL     OW52241   1.259   6.696   6.813 -0.1754 -0.2824 -0.3911
16856SOL    HW152242   1.270   6.614   6.862  1.0394 -1.0224 -1.8476
16856SOL    HW252243   1.214   6.754   6.875 -1.8866 -2.2900  0.3996
16857SOL     OW52244   4.098   9.380   6.395  0.5593 -0.2910  0.6162
16857SOL    HW152245   4.012   9.341   6.409 -0.5299  1.6415 -0.3211
16857SOL    HW252246   4.149   9.353   6.472 -0.8497 -1.4760  1.1966
16858SOL     OW52247   2.224   0.337   7.160  0.7021  0.1005 -0.3753
16858SOL    HW152248   2.159   0.269   7.179 -0.4124  1.3840  0.6425
16858SOL    HW252249   2.241   0.328   7.067 -1.2298 -0.0598 -0.7546
16859SOL     OW52250   4.954   7.837   2.614  0.1712  0.2893 -0.2053
16859SOL    HW152251   4.982   7.880   2.534  1.4939 -0.7421 -0.3356
16859SOL    HW252252   4.931   7.909   2.673  0.1730  1.0886 -1.1471
16860SOL     OW52253   5.577   2.530   2.000 -0.1007 -0.5691  0.5812
16860SOL    HW152254   5.646   2.467   1.977  0.5440  0.6139 -0.8774
16860SOL    HW252255   5.625   2.605   2.035 -0.5385  0.5829 -1.1825
16861SOL     OW52256   5.578   0.483   6.078 -0.2475  0.1093 -0.2998
16861SOL    HW152257   5.624   0.503   6.160 -2.5612 -0.1717  1.1603
16861SOL    HW252258   5.637   0.516   6.010  1.3214  1.2989  1.4919
16862SOL     OW52259   7.877   1.732   1.447 -0.7297  0.0560 -0.3745
16862SOL    HW152260   7.959   1.777   1.425 -1.6347  2.3236  0.6491
16862SOL    HW252261   7.905   1.646   1.477  1.0195 -0.5238 -3.2990
16863SOL     OW52262   0.333   9.302   6.336  0.4226  0.0191  0.0663
16863SOL    HW152263   0.274   9.291   6.411 -0.4801  0.3618 -0.5790
16863SOL    HW252264   0.421   9.295   6.374 -0.0089 -1.4891  0.9001
16864SOL     OW52265   0.175   7.888   7.571  0.3728  0.1326 -0.0889
16864SOL    HW152266   0.202   7.875   7.662 -0.0249  1.2383  0.1966
16864SOL    HW252267   0.182   7.982   7.557 -2.9437  0.4762 -0.0931
16865SOL     OW52268   5.058   9.506   2.841 -0.2907  0.0404 -0.3357
16865SOL    HW152269   4.995   9.469   2.904  1.2146 -1.8538  0.1683
16865SOL    HW252270   5.073   9.435   2.778  1.4652  0.3547 -0.3173
16866SOL     OW52271   4.004   6.764   4.462  0.0542 -0.4403 -0.1553
16866SOL    HW152272   4.055   6.801   4.534 -1.7089  1.5460  0.1677
16866SOL    HW252273   3.988   6.838   4.403 -2.2669 -1.0059 -0.3139
16867SOL     OW52274   9.443   4.854   6.008  0.3748 -0.6193 -0.2298
16867SOL    HW152275   9.382   4.902   6.063 -0.6831 -1.6792 -0.4506
16867SOL    HW252276   9.389   4.789   5.962  1.6906 -1.7450 -0.2541
16868SOL     OW52277   3.122   1.645   0.390 -0.4575 -0.0987  0.0100
16868SOL    HW152278   3.217   1.648   0.385 -0.3883 -0.2859  0.9470
16868SOL    HW252279   3.094   1.598   0.312  0.2536 -0.4658 -0.0248
16869SOL     OW52280   6.486   2.664   2.767  0.3663 -0.2668 -0.6618
16869SOL    HW152281   6.568   2.637   2.810  0.1503  1.4461  0.9267
16869SOL    HW252282   6.512   2.732   2.706  0.0664  0.9605  0.5267
16870SOL     OW52283   5.057   1.976   5.327  0.4052 -0.3745 -0.2452
16870SOL    HW152284   5.010   1.904   5.370  1.2085 -1.4268 -1.0616
16870SOL    HW252285   5.134   1.934   5.288  0.6812  0.8662 -1.0969
16871SOL     OW52286   5.321   9.528   2.970 -0.1380  0.1546  0.7276
16871SOL    HW152287   5.239   9.512   2.923 -0.8130 -3.4981  2.7981
16871SOL    HW252288   5.295   9.577   3.047  0.0860  1.2041  0.1556
16872SOL     OW52289   2.569   3.295   1.928  0.4699 -0.3690  0.4221
16872SOL    HW152290   2.640   3.307   1.864  0.4215 -1.1794  0.2010
16872SOL    HW252291   2.490   3.313   1.878  0.5520  1.9199  1.0182
16873SOL     OW52292   1.828   3.879   5.737  0.4054  0.6155  0.4800
16873SOL    HW152293   1.877   3.806   5.775 -1.8886 -2.0443 -1.2815
16873SOL    HW252294   1.772   3.910   5.808  0.5758 -0.1402  0.9534
16874SOL     OW52295   0.195   9.339   9.422 -0.1697 -0.1253 -0.0553
16874SOL    HW152296   0.124   9.279   9.445  0.2100  0.0333  1.6468
16874SOL    HW252297   0.171   9.422   9.465 -0.5443  0.9239 -2.1255
16875SOL     OW52298   2.685   2.082   0.443  0.5779  0.2035  0.1897
16875SOL    HW152299   2.646   2.167   0.423  3.0956  1.2418 -0.6336
16875SOL    HW252300   2.740   2.098   0.519 -0.0343 -1.0636  0.9261
16876SOL     OW52301   4.515   2.650   3.917  0.3646 -0.2261 -0.4186
16876SOL    HW152302   4.456   2.595   3.969 -1.4803  1.1113 -1.0047
16876SOL    HW252303   4.570   2.694   3.981 -1.5619  1.0415  0.4472
16877SOL     OW52304   7.591   9.198   0.091  0.4964  0.0479  0.5611
16877SOL    HW152305   7.504   9.163   0.072  0.5939  0.4189 -0.6685
16877SOL    HW252306   7.652   9.131   0.059  0.6792 -0.2901  1.5759
16878SOL     OW52307   3.390   3.724   5.716  0.1229  0.3112 -0.3114
16878SOL    HW152308   3.395   3.783   5.791  1.6773  0.0457 -0.1841
16878SOL    HW252309   3.298   3.727   5.690 -0.7601 -0.6364  2.4019
16879SOL     OW52310   7.479   8.845   8.042  0.0632  0.7645  0.4052
16879SOL    HW152311   7.519   8.921   7.999 -0.0353  0.9598  0.6561
16879SOL    HW252312   7.552   8.802   8.087  0.2235  0.3802 -0.2154
16880SOL     OW52313   1.749   0.345   7.388  0.8046  0.1342  0.1133
16880SOL    HW152314   1.843   0.359   7.395  0.9104  1.1201 -2.1396
16880SOL    HW252315   1.710   0.414   7.441  1.3052 -0.6688  1.5816
16881SOL     OW52316   6.912   2.781   7.269 -0.2315 -0.0206  0.2595
16881SOL    HW152317   6.894   2.869   7.304 -0.2335  0.8007 -1.6726
16881SOL    HW252318   6.826   2.745   7.249 -0.1626  0.6133 -1.3411
16882SOL     OW52319   4.963   4.858   1.674 -0.0554  0.2683 -0.0365
16882SOL    HW152320   5.051   4.879   1.705 -0.5618  0.6854  1.1876
16882SOL    HW252321   4.921   4.943   1.660 -0.5739  0.0825  0.3407
16883SOL     OW52322   5.644   3.504   2.934  0.4849 -0.4108  0.1555
16883SOL    HW152323   5.724   3.545   2.966  0.9459 -0.8419 -0.4369
16883SOL    HW252324   5.652   3.412   2.959  1.0165 -0.8309 -1.4831
16884SOL     OW52325   3.568   3.160   7.145 -0.1388 -0.1675  0.2034
16884SOL    HW152326   3.594   3.074   7.111  0.8495  0.1260  0.1801
16884SOL    HW252327   3.609   3.165   7.232 -2.1211 -0.6519  1.2228
16885SOL     OW52328   7.921   1.646   1.128 -0.6276  0.6118 -0.0599
16885SOL    HW152329   7.994   1.601   1.084 -1.2051  1.7115 -2.2678
16885SOL    HW252330   7.927   1.737   1.098 -1.9313  1.0937  1.0477
16886SOL     OW52331   5.175   8.816   4.377  0.0082  0.0657  0.5683
16886SOL    HW152332   5.211   8.775   4.298 -1.0207 -0.3607  0.2960
16886SOL    HW252333   5.179   8.910   4.360  1.7753  0.0863  0.9153
16887SOL     OW52334   1.162   6.620   9.136  0.2208  0.2096 -0.5050
16887SOL    HW152335   1.228   6.594   9.071 -1.1488 -0.7353 -1.5670
16887SOL    HW252336   1.104   6.679   9.088 -0.3194  0.1921  0.1167
16888SOL     OW52337   8.747   5.849   0.180  0.1487  0.0539 -0.0664
16888SOL    HW152338   8.801   5.926   0.196  0.8882 -0.5755  0.5117
16888SOL    HW252339   8.805   5.788   0.134 -0.3465 -0.2753 -0.2679
16889SOL     OW52340   3.375   1.384   1.532 -0.1481 -0.3655  0.1414
16889SOL    HW152341   3.316   1.343   1.469 -2.3724  0.9599  1.2326
16889SOL    HW252342   3.346   1.349   1.617 -0.2359  1.2670  0.8177
16890SOL     OW52343   3.292   0.183   1.503 -0.2377 -0.4274  0.4259
16890SOL    HW152344   3.292   0.267   1.458  0.5880 -0.2379  0.7538
16890SOL    HW252345   3.315   0.204   1.593  0.0682 -1.0056  0.4912
16891SOL     OW52346   1.592   7.340   7.518 -0.0483  0.3580  0.5498
16891SOL    HW152347   1.595   7.296   7.603  1.2929  0.9477  0.8287
16891SOL    HW252348   1.678   7.324   7.479 -0.3626  0.7720 -0.3494
16892SOL     OW52349   1.119   2.481   7.980  0.4143 -0.2712 -0.0879
16892SOL    HW152350   1.155   2.428   7.909 -0.6767 -1.0808 -0.0611
16892SOL    HW252351   1.043   2.431   8.011  1.6918 -0.7090  2.6394
16893SOL     OW52352   4.552   6.792   2.940 -0.2574  0.2675 -0.0851
16893SOL    HW152353   4.590   6.747   2.864 -1.6134 -2.2878  0.6222
16893SOL    HW252354   4.462   6.811   2.913 -0.8679 -0.9898  0.9175
16894SOL     OW52355   4.226   2.178   9.570 -0.7864 -0.2586 -0.1612
16894SOL    HW152356   4.290   2.245   9.592  0.3595 -1.5999  0.7828
16894SOL    HW252357   4.184   2.157   9.653 -0.5322 -1.2835 -0.2754
16895SOL     OW52358   0.846   8.225   7.630  0.0099 -0.4584 -0.1120
16895SOL    HW152359   0.813   8.244   7.717  3.1949 -0.3042  1.2263
16895SOL    HW252360   0.775   8.180   7.585 -1.7698 -0.4492  2.5253
16896SOL     OW52361   4.464   2.014   2.938  0.0886 -0.0790  0.2855
16896SOL    HW152362   4.537   2.036   2.995  0.1978 -2.0310  0.9943
16896SOL    HW252363   4.398   2.081   2.956  0.8206  0.3862  1.3409
16897SOL     OW52364   1.740   1.729   3.165  0.1039  0.1988  0.3288
16897SOL    HW152365   1.810   1.664   3.173 -0.0584  0.0799  0.7771
16897SOL    HW252366   1.736   1.771   3.250  0.6991  1.3125 -0.1682
16898SOL     OW52367   8.327   3.666   3.002  0.2267 -0.6679 -0.4394
16898SOL    HW152368   8.384   3.593   2.977 -0.1386 -1.6636  1.5027
16898SOL    HW252369   8.246   3.625   3.030 -0.2242  0.5297  0.0797
16899SOL     OW52370   1.002   4.674   3.743 -0.0046 -0.2586  0.1234
16899SOL    HW152371   0.987   4.737   3.813  1.0802  0.5344 -0.3466
16899SOL    HW252372   0.919   4.671   3.695 -0.1113  0.6778  0.2446
16900SOL     OW52373   4.389   7.155   3.427  0.4223 -0.1536 -0.4564
16900SOL    HW152374   4.368   7.195   3.343  1.1415  0.5668 -0.3036
16900SOL    HW252375   4.409   7.064   3.405  0.4251 -0.0181 -1.0466
16901SOL     OW52376   5.931   5.359   1.183  0.3596 -0.4704  0.0728
16901SOL    HW152377   5.845   5.372   1.223  0.8351 -0.1088  0.9950
16901SOL    HW252378   5.926   5.403   1.098  0.1738  1.0175  0.8341
16902SOL     OW52379   3.365   2.232   1.351  0.2743  0.1835  0.3398
16902SOL    HW152380   3.316   2.175   1.292  0.2115  1.5860 -1.0526
16902SOL    HW252381   3.385   2.309   1.298 -0.2931  1.7857  2.3126
16903SOL     OW52382   8.238   1.616   9.623 -0.3040 -0.1204 -0.0375
16903SOL    HW152383   8.263   1.708   9.626 -0.5699  0.0359 -1.7237
16903SOL    HW252384   8.283   1.581   9.546 -1.2730 -1.0441 -0.2076
16904SOL     OW52385   3.728   2.162   1.629  0.0190  0.6242  0.5872
16904SOL    HW152386   3.792   2.204   1.571 -0.0779 -0.1880 -0.1298
16904SOL    HW252387   3.763   2.074   1.643 -1.5395 -0.2578 -0.8193
16905SOL     OW52388   4.625   2.438   4.877 -0.5040 -0.0792  0.1103
16905SOL    HW152389   4.633   2.489   4.797  1.5501  1.0609  0.9588
16905SOL    HW252390   4.558   2.484   4.928  0.9207  1.5363  0.6211
16906SOL     OW52391   9.457   5.197   6.659  0.1049  0.4034  0.1634
16906SOL    HW152392   9.466   5.118   6.606  0.0985  0.0522  0.6778
16906SOL    HW252393   9.362   5.212   6.664  0.1628  1.4409 -1.3739
16907SOL     OW52394   5.706   4.958   0.907 -0.5246  0.3155  0.3554
16907SOL    HW152395   5.686   5.001   0.824 -2.0856 -1.6637 -0.3788
16907SOL    HW252396   5.643   4.997   0.969 -2.3233 -1.1808 -0.4317
16908SOL     OW52397   1.848   0.608   4.439 -0.0210  0.2410 -0.3001
16908SOL    HW152398   1.874   0.579   4.352  1.1923  2.0111 -0.5924
16908SOL    HW252399   1.763   0.567   4.454 -0.6879  0.6098 -2.6810
16909SOL     OW52400   7.451   3.606   2.503 -0.5878 -0.6820 -0.4720
16909SOL    HW152401   7.363   3.570   2.514 -0.0519 -2.5766 -1.7088
16909SOL    HW252402   7.473   3.644   2.588 -2.9721  0.7948 -0.4484
16910SOL     OW52403   0.036   5.247   1.697  0.1750 -0.4072  0.5577
16910SOL    HW152404  -0.041   5.292   1.733  0.1196  0.2186 -0.3338
16910SOL    HW252405   0.106   5.267   1.759  0.3087  1.4640 -0.1500
16911SOL     OW52406   2.967   1.434   8.382  0.2473  0.8270 -0.1973
16911SOL    HW152407   2.909   1.473   8.447  1.7710  1.5213  0.8023
16911SOL    HW252408   3.013   1.364   8.428  0.0259  0.1055 -1.0436
16912SOL     OW52409   2.711   3.924   6.517  0.2289  0.1875  0.0678
16912SOL    HW152410   2.758   3.887   6.592  0.6549  0.7468  0.0768
16912SOL    HW252411   2.746   3.877   6.442  0.3318  0.1474  0.1405
16913SOL     OW52412   5.716   7.229   2.609  0.2230  0.0258  0.3708
16913SOL    HW152413   5.631   7.270   2.592 -0.8147 -1.8677  0.6695
16913SOL    HW252414   5.757   7.222   2.523 -0.7148 -0.6131 -0.0487
16914SOL     OW52415   7.995   2.896   0.622  0.2681  0.1550 -0.0234
16914SOL    HW152416   8.033   2.907   0.709 -0.6263 -2.0830  0.7077
16914SOL    HW252417   8.068   2.869   0.567  0.8787  1.7735 -0.0818
16915SOL     OW52418   5.763   7.178   1.899 -0.0973  0.0764 -0.1494
16915SOL    HW152419   5.749   7.223   1.816 -1.3133 -1.3998 -0.8012
16915SOL    HW252420   5.675   7.170   1.937  0.1962 -0.9080  0.3685
16916SOL     OW52421   0.761   8.041   5.075  0.3645 -0.5580  0.2388
16916SOL    HW152422   0.769   7.947   5.092  1.4177 -0.6086 -0.4329
16916SOL    HW252423   0.672   8.063   5.101  0.2074 -1.6845  0.6877
16917SOL     OW52424   1.801   9.618   4.014  0.5362 -0.0171 -0.3814
16917SOL    HW152425   1.857   9.655   3.945 -0.7752  0.0359 -1.4563
16917SOL    HW252426   1.780   9.530   3.982  0.2471 -0.1416  0.1460
16918SOL     OW52427   9.168   7.578   8.128 -0.3506  0.3333 -0.0179
16918SOL    HW152428   9.139   7.514   8.193 -1.4674 -1.8814 -2.4976
16918SOL    HW252429   9.253   7.608   8.160 -0.4624 -1.2595  2.0114
16919SOL     OW52430   2.366   7.831   8.906 -0.2415 -0.1246 -0.6267
16919SOL    HW152431   2.349   7.774   8.831  0.8172 -0.6494 -0.4814
16919SOL    HW252432   2.298   7.898   8.900 -0.4672 -0.4226 -1.7848
16920SOL     OW52433   4.672   6.018   4.658  0.2753  0.8464  0.0542
16920SOL    HW152434   4.728   6.073   4.713 -2.1017  2.3044  1.1947
16920SOL    HW252435   4.660   5.938   4.709  1.3366  0.4934 -0.2301
16921SOL     OW52436   1.058   9.081   8.738  0.2783 -0.5543 -0.2660
16921SOL    HW152437   1.088   9.171   8.730 -0.9576 -0.1621 -0.6031
16921SOL    HW252438   1.108   9.046   8.812  0.2559  0.6116  0.3121
16922SOL     OW52439   9.013   4.084   9.649 -0.4899 -0.3647  0.0378
16922SOL    HW152440   9.062   4.106   9.570 -1.1801 -0.2831 -0.3774
16922SOL    HW252441   9.045   3.998   9.675 -0.2301 -0.3723 -0.3047
16923SOL     OW52442   8.014   7.699   4.410 -0.5186  1.2500 -0.4622
16923SOL    HW152443   8.074   7.717   4.338 -1.4789  1.5451 -1.2080
16923SOL    HW252444   7.970   7.617   4.385  2.0840 -1.0654  1.7706
16924SOL     OW52445   5.054   7.386   0.054 -0.2468 -0.1900 -0.6050
16924SOL    HW152446   4.968   7.344   0.044 -0.2056 -0.0497 -1.6272
16924SOL    HW252447   5.053   7.420   0.143 -1.5294  0.3929 -0.8166
16925SOL     OW52448   2.844   4.503   7.209 -0.1690 -0.6278  0.1113
16925SOL    HW152449   2.823   4.411   7.224 -2.2831 -0.4120 -1.1943
16925SOL    HW252450   2.792   4.550   7.273  0.0245 -0.2693  0.0080
16926SOL     OW52451   8.246   0.772   4.306  0.2692 -0.1309 -0.6405
16926SOL    HW152452   8.178   0.768   4.373 -0.0878 -0.2937 -1.0135
16926SOL    HW252453   8.305   0.699   4.327  0.7245  0.4346  0.1008
16927SOL     OW52454   7.494   2.173   9.020 -0.2725  0.1389 -0.1888
16927SOL    HW152455   7.577   2.184   8.974 -0.2605  0.4778 -0.0927
16927SOL    HW252456   7.451   2.258   9.010 -0.0714  0.3667  0.8081
16928SOL     OW52457   6.639   2.229   4.432 -0.1732  0.0360  0.6302
16928SOL    HW152458   6.724   2.225   4.475  1.0064  1.3134 -1.4323
16928SOL    HW252459   6.632   2.146   4.385  1.2151  0.9469 -1.3215
16929SOL     OW52460   5.312   2.198   3.519  0.1370 -0.2875 -0.1421
16929SOL    HW152461   5.390   2.155   3.484 -0.3450  0.9121 -2.9459
16929SOL    HW252462   5.274   2.134   3.579  2.0727 -1.7491 -0.3871
16930SOL     OW52463   6.251   7.036   1.529 -0.2509 -0.4555 -0.3239
16930SOL    HW152464   6.277   6.996   1.446 -0.0039  1.9793 -1.5007
16930SOL    HW252465   6.156   7.042   1.523 -0.0924  2.3391 -1.8487
16931SOL     OW52466   6.168   4.424   3.428 -0.5149 -0.3164 -0.1389
16931SOL    HW152467   6.131   4.512   3.439  1.5669  0.7769 -1.2574
16931SOL    HW252468   6.218   4.409   3.508 -2.0515 -1.1584  0.7066
16932SOL     OW52469   5.853   3.682   9.216  0.4933 -0.0062  0.3892
16932SOL    HW152470   5.776   3.692   9.160  0.6999 -0.1899  0.0692
16932SOL    HW252471   5.824   3.623   9.285  0.9783 -1.9310 -0.9617
16933SOL     OW52472   1.429   2.586   6.519  0.3526 -0.1575 -0.1609
16933SOL    HW152473   1.339   2.559   6.501  0.3130 -0.2525  0.1607
16933SOL    HW252474   1.420   2.652   6.589  0.5560 -0.4375  0.1335
16934SOL     OW52475   4.330   7.789   3.223  0.1433  0.3868 -0.0021
16934SOL    HW152476   4.366   7.858   3.167  0.4225 -0.4269 -0.8386
16934SOL    HW252477   4.404   7.763   3.278 -0.1625  1.2739  0.8793
16935SOL     OW52478   4.018   3.569   6.794  0.9008 -0.0150  0.1525
16935SOL    HW152479   4.086   3.520   6.748  0.8411 -0.8104  0.8883
16935SOL    HW252480   4.051   3.659   6.795  1.1198 -0.0681 -1.0097
16936SOL     OW52481   3.357   4.746   8.992  0.2397  0.0345  0.8769
16936SOL    HW152482   3.310   4.763   8.911 -0.9843  0.9252  1.7272
16936SOL    HW252483   3.389   4.832   9.021  4.4387 -0.7424 -0.7594
16937SOL     OW52484   6.692   1.696   6.012  0.6732 -0.6369 -0.0723
16937SOL    HW152485   6.699   1.790   5.996  0.8065 -0.8098 -1.1077
16937SOL    HW252486   6.653   1.661   5.932  0.8427 -1.4919  0.2077
16938SOL     OW52487   1.653   3.054   6.007  0.2293 -0.3975 -0.1324
16938SOL    HW152488   1.700   2.991   5.952 -0.8324 -2.3276  1.0697
16938SOL    HW252489   1.583   3.087   5.951  0.2572 -0.9771 -0.5189
16939SOL     OW52490   3.579   5.337   2.810  0.1405 -0.1904 -0.0977
16939SOL    HW152491   3.511   5.294   2.862 -1.1653 -0.6601 -2.0821
16939SOL    HW252492   3.611   5.268   2.751 -0.5240  0.9957 -1.9088
16940SOL     OW52493   0.611   5.904   3.496 -0.4719  0.6333 -0.0754
16940SOL    HW152494   0.524   5.865   3.511 -1.2632  2.2976 -0.1495
16940SOL    HW252495   0.594   5.980   3.441  1.1080  0.7342 -0.4688
16941SOL     OW52496   7.759   6.786   5.189  0.8991  0.4542  0.0917
16941SOL    HW152497   7.832   6.847   5.203  1.0302  0.1527  0.7390
16941SOL    HW252498   7.723   6.771   5.276 -1.1821  2.0863 -0.4233
16942SOL     OW52499   8.846   4.127   9.124  0.3199 -0.5203  0.1704
16942SOL    HW152500   8.753   4.106   9.132  0.7257 -2.5198 -0.0364
16942SOL    HW252501   8.879   4.068   9.057  2.1112 -1.1511  1.5214
16943SOL     OW52502   8.785   4.209   0.295 -0.2510 -0.1786 -0.1378
16943SOL    HW152503   8.707   4.202   0.239  0.4459 -0.9379 -1.0416
16943SOL    HW252504   8.847   4.260   0.243 -0.3459  0.9625  0.8300
16944SOL     OW52505   5.818   4.034   5.536 -0.3753  0.0872  0.0308
16944SOL    HW152506   5.891   4.038   5.597 -0.2184  1.4249 -0.2172
16944SOL    HW252507   5.741   4.059   5.588 -1.0776 -3.1797  0.7999
16945SOL     OW52508   2.395   4.074   1.976 -0.3364 -0.0096  0.5761
16945SOL    HW152509   2.335   4.043   2.044 -2.7779 -0.8980 -1.8068
16945SOL    HW252510   2.367   4.165   1.960 -0.3441 -0.0741  0.2105
16946SOL     OW52511   5.582   1.710   9.604  0.1064 -0.2584 -0.0830
16946SOL    HW152512   5.491   1.706   9.634 -0.4051 -0.4179 -1.5569
16946SOL    HW252513   5.611   1.619   9.602  0.5792 -0.1446  1.1612
16947SOL     OW52514   6.367   4.331   4.400 -0.0056 -0.2478 -0.6624
16947SOL    HW152515   6.328   4.255   4.358  1.3387 -0.6131 -1.3033
16947SOL    HW252516   6.461   4.319   4.390  0.2542  1.4823 -0.7442
16948SOL     OW52517   9.119   2.991   1.340 -0.2204  0.2784 -0.0439
16948SOL    HW152518   9.051   3.058   1.337  0.5285  1.0791  0.1682
16948SOL    HW252519   9.153   2.996   1.429  2.0749  1.9473 -0.9226
16949SOL     OW52520   7.045   9.092   7.001 -0.2436  0.1348  0.3585
16949SOL    HW152521   6.973   9.066   6.944  0.4765 -0.1433 -0.4551
16949SOL    HW252522   7.120   9.102   6.942  0.6159 -0.4862  1.2994
16950SOL     OW52523   8.370   4.417   3.718 -0.1381  0.0041 -0.0688
16950SOL    HW152524   8.394   4.509   3.733 -0.7843  0.1524  0.0912
16950SOL    HW252525   8.357   4.411   3.623  2.3849 -0.5485 -0.4335
16951SOL     OW52526   8.033   2.954   6.792 -0.0227  0.5992  0.1778
16951SOL    HW152527   8.005   3.039   6.826  0.3049  0.3893  1.0136
16951SOL    HW252528   8.128   2.961   6.785  0.1321 -0.0571  1.3435
16952SOL     OW52529   4.757   0.146   2.470  0.3155 -0.2650 -0.2642
16952SOL    HW152530   4.700   0.114   2.400 -0.8011 -0.6716  0.8170
16952SOL    HW252531   4.812   0.071   2.493  1.2551  0.0918 -1.2172
16953SOL     OW52532   3.392   2.677   4.497  0.0479 -0.1095  0.3788
16953SOL    HW152533   3.378   2.583   4.494 -2.8998  0.2470 -0.2671
16953SOL    HW252534   3.446   2.696   4.421  0.1320 -1.1916  0.1552
16954SOL     OW52535   9.347   7.525   7.852 -0.2402  0.1342  0.7533
16954SOL    HW152536   9.325   7.447   7.902  0.4170  0.0859  0.9774
16954SOL    HW252537   9.305   7.597   7.900 -1.3507 -0.1390  0.2111
16955SOL     OW52538   4.202   3.201   5.460  0.1559  0.5422 -0.8968
16955SOL    HW152539   4.114   3.204   5.498  0.4318  0.0382 -0.2018
16955SOL    HW252540   4.241   3.286   5.483 -0.4281  1.1028 -1.9176
16956SOL     OW52541   5.286   6.174   8.915  0.1270 -0.0763  0.0093
16956SOL    HW152542   5.365   6.120   8.925 -0.9206 -1.8447 -0.8698
16956SOL    HW252543   5.281   6.191   8.821 -1.3239 -1.2720 -0.1664
16957SOL     OW52544   4.553   7.165   1.336  0.0755 -0.2779  0.1135
16957SOL    HW152545   4.478   7.121   1.376 -0.8277  0.5120 -0.6484
16957SOL    HW252546   4.629   7.123   1.375 -0.7516 -1.6935  0.2895
16958SOL     OW52547   3.354   1.907   3.599 -0.0822  0.2187 -0.0388
16958SOL    HW152548   3.445   1.896   3.624  0.3130  1.0434 -1.0307
16958SOL    HW252549   3.317   1.965   3.665  0.4415  0.8535 -0.2944
16959SOL     OW52550   6.598   1.985   4.343 -0.0005  0.5448  0.2172
16959SOL    HW152551   6.597   1.892   4.366  1.0307  0.3323 -0.5097
16959SOL    HW252552   6.562   1.988   4.255 -1.8175  1.0840  0.9442
16960SOL     OW52553   0.392   3.333   5.380 -0.0584 -0.4650  0.5597
16960SOL    HW152554   0.355   3.415   5.347 -1.1208 -1.2391 -0.1978
16960SOL    HW252555   0.334   3.307   5.451  0.3512 -0.5145  0.8823
16961SOL     OW52556   6.441   3.846   1.795 -0.4406 -0.2932 -0.7212
16961SOL    HW152557   6.419   3.792   1.871 -1.3262  1.3345  0.2449
16961SOL    HW252558   6.533   3.829   1.779 -0.3656 -1.0715  0.4006
16962SOL     OW52559   7.721   8.543   2.771 -0.3544 -0.1239  0.3956
16962SOL    HW152560   7.648   8.539   2.709  0.1228  0.1192 -0.1944
16962SOL    HW252561   7.726   8.456   2.809 -0.6184 -0.2947  0.0419
16963SOL     OW52562   9.592   5.084   4.322  0.5234  0.2819 -0.3747
16963SOL    HW152563   9.561   5.018   4.384 -0.9039  1.4409  0.1972
16963SOL    HW252564   9.544   5.064   4.241  0.8685 -0.0010 -0.5123
16964SOL     OW52565   1.318   0.604   7.419 -0.5630 -0.6278 -0.0622
16964SOL    HW152566   1.337   0.513   7.443 -1.0878 -0.4111  1.2262
16964SOL    HW252567   1.352   0.656   7.492  0.0723  0.2521 -0.9660
16965SOL     OW52568   6.163   2.559   6.654  0.1282 -0.1718 -0.3123
16965SOL    HW152569   6.241   2.534   6.605 -0.9625 -1.8224 -1.2934
16965SOL    HW252570   6.103   2.486   6.643 -1.7514  1.2379  0.0349
16966SOL     OW52571   0.719   2.416   9.204  0.2655 -0.0889 -0.0954
16966SOL    HW152572   0.813   2.428   9.194  0.2254 -1.1384 -2.2694
16966SOL    HW252573   0.690   2.494   9.253  2.0466  0.9593 -0.6241
16967SOL     OW52574   6.559   0.358   1.119 -0.0143  0.4225  0.1153
16967SOL    HW152575   6.489   0.323   1.064  0.2056 -0.5769  0.4483
16967SOL    HW252576   6.640   0.334   1.074  0.1387  1.9544 -0.4945
16968SOL     OW52577   6.540   5.221   8.043  0.2150  0.2698 -0.3469
16968SOL    HW152578   6.522   5.238   7.950 -0.1039 -0.4337 -0.4185
16968SOL    HW252579   6.635   5.224   8.049  0.1871  3.0407 -0.1556
16969SOL     OW52580   9.542   6.869   3.735  0.2379 -0.7162 -0.2516
16969SOL    HW152581   9.606   6.939   3.722 -0.4061  0.0917  0.7998
16969SOL    HW252582   9.458   6.910   3.719 -0.2644 -0.8217  1.7963
16970SOL     OW52583   9.355   4.597   8.063  0.5647  0.4703  0.4461
16970SOL    HW152584   9.371   4.593   7.968 -0.9397  0.8621  0.1407
16970SOL    HW252585   9.376   4.509   8.095 -0.4886 -0.1873 -0.5588
16971SOL     OW52586   5.909   5.563   4.098 -0.6373  0.1178 -0.4435
16971SOL    HW152587   5.903   5.635   4.161 -2.1938 -0.5580  0.2247
16971SOL    HW252588   5.956   5.494   4.145  0.9841  0.7040 -1.1336
16972SOL     OW52589   4.889   6.055   6.650 -0.0227  0.3279 -0.1218
16972SOL    HW152590   4.910   6.121   6.717 -1.3582  1.3001 -0.6085
16972SOL    HW252591   4.934   5.976   6.679  1.0453  1.2612  0.8711
16973SOL     OW52592   0.603   0.028   8.396  0.0357  0.3737  0.3336
16973SOL    HW152593   0.545   0.082   8.342  0.2857  1.3207  0.9979
16973SOL    HW252594   0.596  -0.059   8.357  1.4552  1.3150 -2.2758
16974SOL     OW52595   1.665   7.651   1.370 -0.3242 -0.2062  0.8501
16974SOL    HW152596   1.716   7.583   1.325 -0.1921 -0.2715  1.0965
16974SOL    HW252597   1.721   7.728   1.367 -0.2763 -0.2356  0.9827
16975SOL     OW52598   4.541   7.368   2.938  0.6250 -0.2477 -0.1160
16975SOL    HW152599   4.562   7.415   2.858  0.7586  1.5142  0.9111
16975SOL    HW252600   4.445   7.368   2.942  0.6148 -0.5231 -0.3812
16976SOL     OW52601   2.442   0.955   1.799 -0.3468  0.2047  0.4513
16976SOL    HW152602   2.481   1.018   1.738 -0.3707 -0.4911 -0.3124
16976SOL    HW252603   2.516   0.903   1.831 -0.3935  0.2536  0.6408
16977SOL     OW52604   9.342   9.441   0.454  0.7700  0.8711  0.2388
16977SOL    HW152605   9.393   9.443   0.373 -0.0628  1.1198 -0.2892
16977SOL    HW252606   9.277   9.510   0.443 -0.1685  0.0553  0.5807
16978SOL     OW52607   0.404   8.879   8.601 -0.3609  0.0865  0.0721
16978SOL    HW152608   0.311   8.886   8.623 -0.4130 -1.9176  0.6487
16978SOL    HW252609   0.405   8.859   8.507 -0.4973  0.1167  0.0634
16979SOL     OW52610   2.303   8.456   0.297 -0.1375  0.1829 -0.4477
16979SOL    HW152611   2.296   8.458   0.393 -0.6066 -0.1177 -0.4708
16979SOL    HW252612   2.254   8.533   0.268  1.8302  1.5395 -0.3729
16980SOL     OW52613   7.038   6.514   2.758 -0.4895 -0.1705  0.7305
16980SOL    HW152614   7.106   6.514   2.691  0.8311 -1.0658  1.9993
16980SOL    HW252615   6.986   6.592   2.739  0.2699 -0.0084 -0.8911
16981SOL     OW52616   5.621   3.257   3.074  0.1770  0.1304  0.1280
16981SOL    HW152617   5.584   3.254   3.162 -0.2796  0.9308 -0.0253
16981SOL    HW252618   5.565   3.200   3.022  0.7468 -0.7410  0.4547
16982SOL     OW52619   0.080   2.950   3.735  0.1769 -0.2136  0.5517
16982SOL    HW152620   0.110   2.869   3.774 -2.7704 -1.2263  0.9381
16982SOL    HW252621   0.081   2.934   3.641  1.3307  0.0102  0.5068
16983SOL     OW52622   8.202   8.287   3.980  0.1366  0.0605  0.1731
16983SOL    HW152623   8.171   8.228   3.911  2.0936 -1.4575  0.5172
16983SOL    HW252624   8.218   8.229   4.054  0.9037  1.2342  0.9359
16984SOL     OW52625   8.576   1.708   4.338  0.0362 -0.5178  0.2174
16984SOL    HW152626   8.563   1.614   4.332  0.3341 -0.6147  0.9994
16984SOL    HW252627   8.603   1.734   4.250  1.5392 -1.4124  0.3750
16985SOL     OW52628   7.847   3.894   4.735  0.1417  0.0391 -0.0255
16985SOL    HW152629   7.812   3.983   4.737  0.2149  0.0566  0.8588
16985SOL    HW252630   7.777   3.841   4.696 -1.0074  0.0283  1.9536
16986SOL     OW52631   1.462   8.248   7.397  0.1352  0.0403  0.1645
16986SOL    HW152632   1.556   8.248   7.413  0.0388  0.0810  0.7541
16986SOL    HW252633   1.451   8.195   7.318  0.6891  0.3802 -0.1516
16987SOL     OW52634   0.338   3.078   5.685 -0.0033  0.1048  0.0171
16987SOL    HW152635   0.316   3.166   5.655  0.6759  0.0266 -0.7444
16987SOL    HW252636   0.348   3.026   5.605  0.4481 -0.4555  0.4216
16988SOL     OW52637   7.575   3.005   3.280  0.0010  0.1139  0.3846
16988SOL    HW152638   7.527   2.936   3.234  0.4461 -0.0978  0.2361
16988SOL    HW252639   7.596   2.967   3.365  1.5666 -0.5005 -0.2463
16989SOL     OW52640   6.434   8.643   2.270  0.1869 -0.3983  0.1797
16989SOL    HW152641   6.467   8.645   2.360 -1.8460  0.2267  0.9569
16989SOL    HW252642   6.382   8.563   2.265  1.8988 -1.5011 -1.1071
16990SOL     OW52643   6.510   4.278   0.500 -0.1999  0.7292  0.0092
16990SOL    HW152644   6.510   4.221   0.577 -0.3462  0.6007 -0.0842
16990SOL    HW252645   6.539   4.222   0.428  0.6837  1.0501  0.1122
16991SOL     OW52646   2.679   5.624   8.753 -0.2079  0.6194 -0.1832
16991SOL    HW152647   2.642   5.684   8.817 -0.1241  1.2326 -0.6896
16991SOL    HW252648   2.603   5.586   8.708 -0.2535  0.6688 -0.1465
16992SOL     OW52649   8.585   4.334   5.064 -0.3409  0.0137  0.2338
16992SOL    HW152650   8.524   4.302   5.131  0.6346  0.0440  1.1531
16992SOL    HW252651   8.592   4.428   5.081  0.7033 -0.1461  0.7631
16993SOL     OW52652   4.975   3.339   9.237  0.1258  0.1016 -0.5141
16993SOL    HW152653   4.908   3.403   9.260 -0.7570 -0.0937 -2.3593
16993SOL    HW252654   4.937   3.254   9.260  1.2497  0.1435  1.8198
16994SOL     OW52655   2.250   7.782   3.559  0.5617  0.3253  0.0076
16994SOL    HW152656   2.288   7.727   3.627  1.1109 -0.0177 -0.5658
16994SOL    HW252657   2.316   7.849   3.543  0.1645  0.7879  0.2513
16995SOL     OW52658   5.171   2.082   8.590 -0.1961  0.1045  0.5642
16995SOL    HW152659   5.123   2.049   8.514 -0.9734 -0.0764  1.1210
16995SOL    HW252660   5.125   2.162   8.614  0.3328  0.4118  0.5719
16996SOL     OW52661   3.686   4.555   9.599 -0.2181 -0.3556  0.1413
16996SOL    HW152662   3.762   4.503   9.570  1.2324  1.7840 -0.0894
16996SOL    HW252663   3.668   4.522   9.687  0.6190 -1.2996 -0.0145
16997SOL     OW52664   9.371   0.271   4.294  0.0390 -0.1776 -0.2780
16997SOL    HW152665   9.459   0.304   4.311  0.7039 -1.9561 -0.0386
16997SOL    HW252666   9.353   0.297   4.204  0.1172  1.6035  0.1816
16998SOL     OW52667   5.761   0.712   1.880  0.4617 -0.2783 -0.3070
16998SOL    HW152668   5.755   0.643   1.814  1.4916 -0.3662 -0.3316
16998SOL    HW252669   5.817   0.675   1.948  1.8887  0.8696 -0.7983
16999SOL     OW52670   2.235   2.777   0.132  0.1492 -0.6585  0.0563
16999SOL    HW152671   2.176   2.703   0.144  0.6306 -0.7436  2.5435
16999SOL    HW252672   2.225   2.802   0.040 -0.4072 -3.4696 -0.7386
17000SOL     OW52673   4.756   5.947   5.647 -0.2687 -0.1609 -0.3035
17000SOL    HW152674   4.753   5.992   5.732 -0.7600 -0.6699 -0.0442
17000SOL    HW252675   4.848   5.922   5.637 -0.2854 -0.4907  0.2941
17001SOL     OW52676   5.156   7.705   2.202 -0.1222  0.0254 -0.1642
17001SOL    HW152677   5.201   7.789   2.196 -2.9118  1.5454 -2.2050
17001SOL    HW252678   5.064   7.728   2.215 -0.9773 -2.7244 -0.6562
17002SOL     OW52679   5.339   0.878   6.435 -0.5172  0.5547 -0.0137
17002SOL    HW152680   5.356   0.829   6.354 -1.0678  0.0015  0.2013
17002SOL    HW252681   5.245   0.893   6.434 -0.4189  1.1852  0.1710
17003SOL     OW52682   8.242   8.881   6.619 -0.5635 -0.4584  0.3980
17003SOL    HW152683   8.186   8.808   6.642  0.2529 -1.0191  0.6343
17003SOL    HW252684   8.276   8.914   6.702 -0.1708 -0.4302  0.2326
17004SOL     OW52685   4.264   8.300   2.530  0.4459  0.6768 -0.2762
17004SOL    HW152686   4.246   8.206   2.526  0.7514  0.6634 -2.0468
17004SOL    HW252687   4.226   8.328   2.613  0.8906 -1.1122  0.5845
17005SOL     OW52688   3.213   9.537   7.813 -0.2933  0.0866  0.1935
17005SOL    HW152689   3.182   9.618   7.771 -1.4861 -0.4540  0.0090
17005SOL    HW252690   3.284   9.507   7.756  1.1465  1.7236  1.0120
17006SOL     OW52691   8.277   2.419   0.442 -0.4138  0.1293 -0.3462
17006SOL    HW152692   8.269   2.456   0.354  0.8348  1.3329  0.0169
17006SOL    HW252693   8.371   2.408   0.455 -0.6193 -0.5470  0.6395
17007SOL     OW52694   2.068   0.369   6.069  0.5593  0.5317  0.0361
17007SOL    HW152695   2.044   0.413   6.151  1.5845 -1.3943  1.4397
17007SOL    HW252696   2.131   0.428   6.028 -0.3639  1.7801  0.3349
17008SOL     OW52697   1.702   1.262   3.534  0.1048 -0.3455 -0.5218
17008SOL    HW152698   1.748   1.264   3.618 -1.0756 -0.4865  0.1431
17008SOL    HW252699   1.719   1.348   3.495 -2.0539  1.0526  1.3751
17009SOL     OW52700   7.661   4.838   0.384  0.7316 -0.3305 -0.1566
17009SOL    HW152701   7.653   4.744   0.402  1.1012  0.0198  2.1748
17009SOL    HW252702   7.752   4.858   0.405  1.1964  0.2327 -2.5056
17010SOL     OW52703   5.478   2.192   5.434  0.1340  0.4244  0.6422
17010SOL    HW152704   5.415   2.140   5.485 -1.3330  1.5993  0.0912
17010SOL    HW252705   5.445   2.282   5.439  0.4449  0.7225 -1.6010
17011SOL     OW52706   4.597   5.932   3.984  0.1655 -0.2964 -0.6847
17011SOL    HW152707   4.655   5.986   3.931  1.2477  0.2594  0.9801
17011SOL    HW252708   4.640   5.847   3.987 -0.2974 -0.5624 -1.3066
17012SOL     OW52709   7.166   3.922   7.805 -0.6751 -0.1120  0.3126
17012SOL    HW152710   7.192   3.868   7.731 -1.7858 -0.7017  0.3322
17012SOL    HW252711   7.119   3.862   7.864 -0.7285  0.5709  0.9891
17013SOL     OW52712   9.206   6.004   6.128 -0.0763  0.1907 -0.1511
17013SOL    HW152713   9.159   6.072   6.081 -1.7460 -2.0284 -1.8939
17013SOL    HW252714   9.292   6.000   6.086 -0.6642 -0.0614 -1.3566
17014SOL     OW52715   6.302   3.344   7.809  0.4957 -0.3975  0.4590
17014SOL    HW152716   6.304   3.281   7.737  1.4011  0.4858 -0.3311
17014SOL    HW252717   6.280   3.427   7.767 -1.7808 -0.3344  1.6368
17015SOL     OW52718   6.432   9.267   1.350  0.1194  0.1882 -0.1547
17015SOL    HW152719   6.444   9.296   1.440 -0.3425 -0.6656  0.1932
17015SOL    HW252720   6.489   9.324   1.299  0.4720  0.6127  0.6901
17016SOL     OW52721   1.321   8.535   7.292 -0.0395 -0.4339  0.4153
17016SOL    HW152722   1.231   8.507   7.307  0.4347 -2.1292  0.2361
17016SOL    HW252723   1.374   8.469   7.335  1.1575 -0.2620 -0.7457
17017SOL     OW52724   0.789   5.254   4.377  0.3177 -0.1649  0.3331
17017SOL    HW152725   0.695   5.273   4.369  0.6920  1.9497  0.3863
17017SOL    HW252726   0.831   5.339   4.367  2.1548 -0.8482  1.7409
17018SOL     OW52727   8.082   8.282   1.852 -0.4270 -0.1136 -0.2721
17018SOL    HW152728   7.995   8.247   1.872 -0.8153  0.9409 -0.0409
17018SOL    HW252729   8.104   8.336   1.927  0.4690 -0.4187 -0.3034
17019SOL     OW52730   3.866   7.843   5.147  0.1720  0.1180 -0.4413
17019SOL    HW152731   3.871   7.758   5.191  0.9021  0.1412 -0.4682
17019SOL    HW252732   3.918   7.832   5.067 -2.0307 -0.2667 -1.8896
17020SOL     OW52733   3.110   4.315   7.031  0.3849  0.7560 -0.1783
17020SOL    HW152734   3.155   4.374   6.970 -0.0680  1.3289  0.0318
17020SOL    HW252735   3.022   4.306   6.995 -0.8003  3.3200  1.7905
17021SOL     OW52736   8.195   7.279   7.544  0.7309  0.0661 -0.0281
17021SOL    HW152737   8.207   7.355   7.486  3.8843 -1.0784 -1.0851
17021SOL    HW252738   8.182   7.206   7.485 -1.3689 -0.4119  0.9607
17022SOL     OW52739   7.882   5.709   5.158 -0.0678  0.0097 -0.1445
17022SOL    HW152740   7.833   5.784   5.125 -2.0597 -1.2973 -0.3424
17022SOL    HW252741   7.930   5.676   5.081 -2.0551 -1.0226 -1.0323
17023SOL     OW52742   8.324   6.733   4.703  0.5045 -0.0783 -0.1489
17023SOL    HW152743   8.382   6.657   4.709  0.2658 -0.1428  2.9211
17023SOL    HW252744   8.237   6.697   4.719 -0.0305  0.4633 -1.6993
17024SOL     OW52745   6.147   4.095   1.437  0.3299 -0.6617  0.1262
17024SOL    HW152746   6.116   4.106   1.527 -1.3147 -1.1080 -0.3586
17024SOL    HW252747   6.230   4.144   1.434  0.7040 -1.0952  2.0130
17025SOL     OW52748   4.173   0.519   3.548  0.3185 -0.3950 -0.6893
17025SOL    HW152749   4.157   0.613   3.533  1.5304  0.8842  4.3266
17025SOL    HW252750   4.264   0.506   3.521  0.9029  0.5532  0.6841
17026SOL     OW52751   7.032   3.767   2.168  0.2805 -0.6510 -0.0779
17026SOL    HW152752   6.950   3.794   2.125  0.1555 -0.6167  0.1813
17026SOL    HW252753   7.052   3.682   2.129 -1.2536 -1.8933  1.6964
17027SOL     OW52754   3.344   6.299   5.149 -0.0133  0.3116  0.5291
17027SOL    HW152755   3.357   6.214   5.192 -2.4036 -0.8819 -0.9066
17027SOL    HW252756   3.304   6.353   5.217  1.4938  0.3375  1.4479
17028SOL     OW52757   4.074   1.821   7.804  0.6085  0.4516  0.2049
17028SOL    HW152758   3.989   1.856   7.777  0.0494 -0.5525  0.6025
17028SOL    HW252759   4.086   1.743   7.750  1.5920  0.9308 -0.3044
17029SOL     OW52760   6.130   1.108   2.205  0.3287  0.5798 -0.3602
17029SOL    HW152761   6.081   1.026   2.206 -0.5044  1.0538 -0.8979
17029SOL    HW252762   6.214   1.087   2.246 -0.2055 -0.3202  0.2993
17030SOL     OW52763   1.991   3.718   5.886 -0.8245 -0.3662  0.1499
17030SOL    HW152764   2.060   3.784   5.876  0.3369 -1.1605  2.1603
17030SOL    HW252765   2.034   3.635   5.866 -2.0288 -0.6644 -1.4514
17031SOL     OW52766   1.469   2.333   2.179 -0.2847 -0.4527 -0.5878
17031SOL    HW152767   1.551   2.295   2.211 -0.5020 -1.0634 -0.7409
17031SOL    HW252768   1.407   2.260   2.179 -1.3034  0.3368  1.0950
17032SOL     OW52769   1.113   6.770   3.168 -0.3909 -0.1256  0.1852
17032SOL    HW152770   1.173   6.696   3.163  0.3387  0.4156  0.6096
17032SOL    HW252771   1.101   6.798   3.078  1.1289  0.6182  0.1678
17033SOL     OW52772   1.507   6.451   9.628 -0.3908  0.4429  0.2610
17033SOL    HW152773   1.447   6.404   9.571 -0.0569 -1.1129  1.1638
17033SOL    HW252774   1.505   6.541   9.595 -0.9729 -0.1960 -1.5578
17034SOL     OW52775   2.283   2.450   5.554  0.4777  0.4035 -0.3953
17034SOL    HW152776   2.200   2.404   5.543  0.8262 -0.6712  1.1657
17034SOL    HW252777   2.259   2.543   5.561 -0.5156  0.1653 -0.5962
17035SOL     OW52778   3.324   5.384   5.373  0.4470 -0.2315  0.3797
17035SOL    HW152779   3.289   5.296   5.389 -1.6031  0.5564  0.5314
17035SOL    HW252780   3.379   5.402   5.449 -0.0377 -0.9384  0.9085
17036SOL     OW52781   7.675   8.333   9.240 -0.1150  0.5307  0.1247
17036SOL    HW152782   7.639   8.407   9.289 -1.8583 -1.0458  1.3480
17036SOL    HW252783   7.760   8.317   9.280  0.4498  2.0721 -0.3992
17037SOL     OW52784   4.845   6.192   8.401 -0.1169 -0.0182 -0.2204
17037SOL    HW152785   4.914   6.246   8.439 -0.2462 -0.0795  0.1124
17037SOL    HW252786   4.811   6.141   8.475  3.1098 -4.1083 -1.1645
17038SOL     OW52787   2.537   7.100   8.038  0.1756 -0.5201  0.6529
17038SOL    HW152788   2.620   7.070   8.002  0.6870  0.9065  0.5749
17038SOL    HW252789   2.547   7.088   8.133  2.5878  4.1214  1.3180
17039SOL     OW52790   6.343   8.493   3.890 -0.4358  0.1309 -0.4181
17039SOL    HW152791   6.412   8.493   3.824  1.1463  1.1667  1.1271
17039SOL    HW252792   6.294   8.413   3.874 -0.6008  0.6908 -3.2538
17040SOL     OW52793   2.541   3.357   9.051 -0.0259  0.1037  0.7554
17040SOL    HW152794   2.557   3.263   9.038 -0.9087  0.1163 -0.5522
17040SOL    HW252795   2.587   3.377   9.133  0.6420 -1.3426  0.7757
17041SOL     OW52796   3.241   5.303   0.369 -0.0046  0.5281 -0.0298
17041SOL    HW152797   3.305   5.232   0.364  1.4934  1.8253 -0.1564
17041SOL    HW252798   3.227   5.317   0.463 -1.7581 -1.1263  0.0111
17042SOL     OW52799   2.755   6.531   0.907 -0.2777 -0.2956 -0.0308
17042SOL    HW152800   2.836   6.560   0.865  1.9994 -2.2436  2.6603
17042SOL    HW252801   2.744   6.440   0.877 -1.1340 -0.2598  0.1446
17043SOL     OW52802   0.599   3.522   2.024  0.0048 -0.2475 -0.4194
17043SOL    HW152803   0.516   3.561   2.050 -0.1411 -0.3819 -0.6824
17043SOL    HW252804   0.643   3.590   1.973 -0.6135 -0.7172 -1.5950
17044SOL     OW52805   2.625   3.971   8.406 -0.1719 -0.2957 -0.2122
17044SOL    HW152806   2.624   3.986   8.501 -1.7614 -0.1911 -0.2171
17044SOL    HW252807   2.562   4.034   8.372 -1.2194 -1.7739 -1.0975
17045SOL     OW52808   0.795   0.237   4.096 -0.0583 -0.3358 -0.7858
17045SOL    HW152809   0.706   0.273   4.089 -0.8924 -2.5703 -3.2000
17045SOL    HW252810   0.852   0.314   4.093 -1.8297  1.1535  0.7265
17046SOL     OW52811   0.543   0.175   3.659  0.8421  0.6020  0.2855
17046SOL    HW152812   0.598   0.111   3.705  0.3351  0.6178  0.9068
17046SOL    HW252813   0.601   0.210   3.591  0.7440 -1.5154 -0.9990
17047SOL     OW52814   1.779   8.981   2.995  0.2339 -0.2322 -0.1676
17047SOL    HW152815   1.832   9.060   2.986 -1.1788  1.2464  2.7392
17047SOL    HW252816   1.750   8.983   3.086 -0.0614 -4.0600 -0.0190
17048SOL     OW52817   3.316   8.912   9.673 -0.6832  0.3352 -0.2531
17048SOL    HW152818   3.298   8.958   9.755 -0.9495  0.3671 -0.3270
17048SOL    HW252819   3.402   8.944   9.646 -0.8426  0.7509 -0.2746
17049SOL     OW52820   3.829   4.254   0.452  0.4285  0.2939 -0.2605
17049SOL    HW152821   3.766   4.190   0.484  1.3554 -0.8476 -0.6520
17049SOL    HW252822   3.890   4.266   0.525 -0.3450  1.5769  0.2058
17050SOL     OW52823   2.809   2.643   6.897  0.3909  0.2081 -0.8116
17050SOL    HW152824   2.749   2.716   6.881 -0.0049  0.3469  1.1031
17050SOL    HW252825   2.774   2.572   6.843 -1.6545  0.2391  0.3408
17051SOL     OW52826   1.226   1.121   8.538 -0.0476  0.2326  0.1913
17051SOL    HW152827   1.292   1.130   8.607 -1.3379 -0.0474  1.5120
17051SOL    HW252828   1.268   1.157   8.460  1.1157  1.4886  1.3402
17052SOL     OW52829   5.743   7.699   3.685  0.2011 -0.2912  0.2237
17052SOL    HW152830   5.825   7.660   3.716  0.3839 -1.2612 -1.3752
17052SOL    HW252831   5.718   7.646   3.609 -1.9608 -0.0601  0.7163
17053SOL     OW52832   9.134   6.800   8.082 -0.0668 -0.4696 -0.0735
17053SOL    HW152833   9.217   6.779   8.040  0.2055  2.0726 -1.0167
17053SOL    HW252834   9.145   6.774   8.173  1.9322  0.1796 -0.0877
17054SOL     OW52835   3.094   4.965   1.444  0.3498  0.4313 -0.3100
17054SOL    HW152836   3.030   4.960   1.515  1.6366  1.7902  1.0137
17054SOL    HW252837   3.055   4.913   1.373 -1.7326  0.3899  0.7832
17055SOL     OW52838   3.620   0.589   8.812 -0.0209  0.3415 -0.2927
17055SOL    HW152839   3.658   0.658   8.756 -0.3545 -1.4373 -2.9062
17055SOL    HW252840   3.533   0.575   8.776 -0.5248 -0.4045  1.1698
17056SOL     OW52841   2.229   8.393   8.654  0.6206 -0.4387 -0.3596
17056SOL    HW152842   2.168   8.438   8.595 -0.2161 -1.7323 -0.5083
17056SOL    HW252843   2.178   8.376   8.733  0.7260 -1.6639 -0.5395
17057SOL     OW52844   9.210   1.881   4.828 -0.0043 -0.3323  0.3342
17057SOL    HW152845   9.174   1.849   4.911  0.3431 -1.0639  0.2088
17057SOL    HW252846   9.270   1.812   4.799 -0.8056 -0.5143 -0.9828
17058SOL     OW52847   6.002   0.233   1.028  0.3002 -0.0053 -0.3074
17058SOL    HW152848   6.019   0.327   1.017  1.1727 -0.1575 -0.3696
17058SOL    HW252849   5.984   0.222   1.121 -1.1378  0.4063 -0.5063
17059SOL     OW52850   2.380   8.171   3.411 -0.2835  0.1981 -0.2871
17059SOL    HW152851   2.301   8.208   3.370 -0.4980  1.2958  1.0375
17059SOL    HW252852   2.452   8.221   3.373 -0.3706  0.3404 -0.2673
17060SOL     OW52853   6.317   5.129   3.026 -0.3553  0.8201  0.2133
17060SOL    HW152854   6.258   5.108   3.098 -1.3361  0.8421 -0.5542
17060SOL    HW252855   6.331   5.044   2.983 -0.6853  0.9821 -0.2224
17061SOL     OW52856   3.005   8.858   5.823  0.2785  0.4282 -0.0123
17061SOL    HW152857   2.911   8.841   5.831  0.6197 -2.7574 -1.2016
17061SOL    HW252858   3.043   8.822   5.904  0.7741 -2.5524 -1.4285
17062SOL     OW52859   4.235   0.403   6.046 -0.2071 -0.1347  0.2977
17062SOL    HW152860   4.230   0.409   6.142 -0.8424 -0.3776  0.2902
17062SOL    HW252861   4.326   0.422   6.025  0.3446 -1.6744  1.0774
17063SOL     OW52862   5.700   0.193   6.046 -0.0692 -0.1196  0.1530
17063SOL    HW152863   5.743   0.154   6.122  1.5802  2.6500  0.7873
17063SOL    HW252864   5.607   0.184   6.064  0.2667 -1.4230  1.4488
17064SOL     OW52865   5.666   2.683   8.879  0.0786  0.2814 -0.1688
17064SOL    HW152866   5.758   2.702   8.896  0.3196  0.4692 -1.5892
17064SOL    HW252867   5.660   2.587   8.885  0.2784  0.2987  0.3291
17065SOL     OW52868   1.771   7.342   8.726 -0.0137 -0.1604  0.1352
17065SOL    HW152869   1.827   7.316   8.799 -0.3965 -1.1782  0.0792
17065SOL    HW252870   1.723   7.418   8.758  0.2384 -0.2494  0.7341
17066SOL     OW52871   9.271   5.916   6.511  0.3000  0.6117 -0.6473
17066SOL    HW152872   9.354   5.947   6.548 -0.0744 -0.7897  1.5585
17066SOL    HW252873   9.206   5.979   6.542  0.2981  0.7410 -0.9119
17067SOL     OW52874   7.904   7.639   5.446 -0.7721 -0.1578 -0.0666
17067SOL    HW152875   7.981   7.613   5.495  0.1627  0.0121 -1.3834
17067SOL    HW252876   7.911   7.734   5.439 -1.9042  0.0318  1.0688
17068SOL     OW52877   7.842   2.496   0.334  0.0640  0.4619  0.3719
17068SOL    HW152878   7.770   2.485   0.273 -1.3043 -0.1537  2.0204
17068SOL    HW252879   7.831   2.585   0.368 -0.5665  0.0219  1.3694
17069SOL     OW52880   7.289   2.133   5.403 -0.0083 -0.2528 -0.7650
17069SOL    HW152881   7.324   2.131   5.314 -1.1976  0.9688 -1.2818
17069SOL    HW252882   7.228   2.206   5.404 -1.3622 -1.3248  0.5527
17070SOL     OW52883   8.331   5.411   8.701  0.3899  0.0413  0.0825
17070SOL    HW152884   8.270   5.347   8.736 -0.2193 -0.1179 -1.2285
17070SOL    HW252885   8.335   5.479   8.768 -0.6377 -0.3219  0.5290
17071SOL     OW52886   5.697   4.163   7.013 -0.5944  0.0932  0.2275
17071SOL    HW152887   5.771   4.103   6.996 -0.5275  0.8516 -2.5475
17071SOL    HW252888   5.710   4.235   6.952 -3.0069  0.8576  0.5340
17072SOL     OW52889   1.376   5.107   1.540 -0.2388 -0.1578  0.2981
17072SOL    HW152890   1.386   5.199   1.515  0.1546 -0.3659 -0.3363
17072SOL    HW252891   1.418   5.101   1.626 -1.7054  0.5880  1.1018
17073SOL     OW52892   2.337   3.318   3.350  0.3536  0.2700  0.5777
17073SOL    HW152893   2.339   3.282   3.439 -0.2072 -0.3521  0.3510
17073SOL    HW252894   2.331   3.413   3.362 -1.8824  0.1000  1.2555
17074SOL     OW52895   0.076   1.742   1.860 -0.0252 -0.3146  0.0863
17074SOL    HW152896   0.136   1.789   1.802 -0.2612  0.8999  0.7789
17074SOL    HW252897   0.062   1.802   1.934 -1.0237 -1.1309  0.5935
17075SOL     OW52898   2.152   1.313   8.253  0.3913  0.4867 -0.8616
17075SOL    HW152899   2.109   1.230   8.273  0.0973  0.1692 -2.6847
17075SOL    HW252900   2.240   1.288   8.223  0.7416  0.9268 -0.2187
17076SOL     OW52901   2.485   8.150   6.150 -0.5235  0.3866  1.0543
17076SOL    HW152902   2.473   8.109   6.064 -1.4585  1.0905  0.8396
17076SOL    HW252903   2.489   8.076   6.211 -1.9662 -0.0667  0.6500
17077SOL     OW52904   0.961   9.329   2.001 -0.1527  0.4043 -0.0999
17077SOL    HW152905   1.033   9.355   2.059  1.6494  0.9912 -2.4718
17077SOL    HW252906   0.986   9.243   1.968 -1.4822 -0.2224  0.4219
17078SOL     OW52907   6.111   2.204   1.761  0.2481 -0.3653 -0.2423
17078SOL    HW152908   6.168   2.127   1.773 -1.5256 -1.9470 -1.2967
17078SOL    HW252909   6.081   2.197   1.671  2.3311  3.3110 -1.4057
17079SOL     OW52910   9.212   6.772   3.406 -0.0551 -0.3171 -0.0734
17079SOL    HW152911   9.240   6.831   3.335  1.2904 -0.6605  0.1425
17079SOL    HW252912   9.270   6.696   3.398 -0.7356 -0.9258  0.6164
17080SOL     OW52913   3.624   7.792   5.463 -0.3645  0.0523 -0.2072
17080SOL    HW152914   3.715   7.761   5.460 -0.2216  0.3656  0.6475
17080SOL    HW252915   3.617   7.853   5.389 -0.1508 -0.6671 -0.8339
17081SOL     OW52916   4.080   5.195   3.383 -0.2563 -0.0622 -0.4288
17081SOL    HW152917   4.136   5.272   3.394  0.3899 -0.5685 -0.0576
17081SOL    HW252918   3.994   5.230   3.361 -0.4897  0.8848  1.7057
17082SOL     OW52919   4.558   7.960   7.719  0.1376  0.2209  0.1969
17082SOL    HW152920   4.639   7.948   7.768  0.6317  3.6298  0.4216
17082SOL    HW252921   4.562   8.049   7.686 -2.0683 -0.5689 -2.6351
17083SOL     OW52922   5.331   7.332   6.431 -0.2692 -0.5661  0.1858
17083SOL    HW152923   5.323   7.296   6.520  1.6451 -2.0708 -0.1906
17083SOL    HW252924   5.411   7.293   6.396  0.6129  2.2189 -1.1904
17084SOL     OW52925   2.445   9.016   0.994 -0.5826 -0.5241  0.1209
17084SOL    HW152926   2.396   8.953   0.942 -1.6343 -0.4024  0.9395
17084SOL    HW252927   2.379   9.060   1.047  0.1423  1.1332 -0.2834
17085SOL     OW52928   9.197   7.237   6.747 -0.3754  0.1869  0.3594
17085SOL    HW152929   9.162   7.323   6.769 -3.2085  0.2398 -3.3537
17085SOL    HW252930   9.266   7.255   6.684 -0.4036 -0.2125  0.2103
17086SOL     OW52931   6.403   0.148   6.101  0.4533  0.8443  0.2886
17086SOL    HW152932   6.316   0.142   6.061  0.5343  1.2220  0.0484
17086SOL    HW252933   6.409   0.238   6.130 -0.1146  0.2622  2.3689
17087SOL     OW52934   3.856   2.685   9.321 -0.2659 -0.0599  0.2478
17087SOL    HW152935   3.803   2.718   9.394 -0.0993  1.2352 -0.1916
17087SOL    HW252936   3.945   2.682   9.355 -0.2192  0.3551  0.1715
17088SOL     OW52937   2.122   5.258   0.526  0.2419  0.2981  0.1282
17088SOL    HW152938   2.078   5.281   0.608 -0.1457 -0.0290  0.0155
17088SOL    HW252939   2.073   5.304   0.458 -1.5497 -2.0375 -0.2784
17089SOL     OW52940   6.392   3.749   4.094 -0.6144 -0.2980  0.1216
17089SOL    HW152941   6.388   3.802   4.173 -0.7163  1.9354 -1.3096
17089SOL    HW252942   6.483   3.722   4.087 -0.3809  0.4075  0.4229
17090SOL     OW52943   7.217   7.908   2.948  0.6476 -0.8071 -0.1751
17090SOL    HW152944   7.214   8.002   2.927 -1.4830 -0.2519  2.1527
17090SOL    HW252945   7.191   7.865   2.866  2.1095  0.5661 -1.4212
17091SOL     OW52946   3.215   6.744   1.749  0.0081 -0.0222  0.1840
17091SOL    HW152947   3.236   6.663   1.701  1.1599  1.3781 -1.8471
17091SOL    HW252948   3.184   6.804   1.681 -0.9920  1.2105  1.6721
17092SOL     OW52949   0.371   8.035   0.763  0.0533  0.1167  0.0058
17092SOL    HW152950   0.325   7.951   0.774  0.3130  0.0406  0.5580
17092SOL    HW252951   0.399   8.058   0.852  1.1689  0.1100 -0.3338
17093SOL     OW52952   5.043   4.989   3.888  0.4189 -0.2082 -0.2120
17093SOL    HW152953   5.119   5.034   3.851  1.0212 -1.7262 -0.9171
17093SOL    HW252954   5.077   4.904   3.916 -1.1362 -1.2016 -1.1625
17094SOL     OW52955   8.208   7.453   0.428 -0.1524 -0.2870  0.2949
17094SOL    HW152956   8.299   7.424   0.423 -0.0396 -0.1373  1.2285
17094SOL    HW252957   8.214   7.547   0.445 -0.4879 -0.2094 -0.0024
17095SOL     OW52958   9.300   8.947   1.535 -0.1747  0.3459  0.0762
17095SOL    HW152959   9.280   8.879   1.471  0.7435  0.6160 -0.5353
17095SOL    HW252960   9.373   8.911   1.586  1.4521  1.4607 -1.3343
17096SOL     OW52961   7.885   1.655   8.500  1.2476  0.3317 -0.1107
17096SOL    HW152962   7.881   1.585   8.434  1.4863  0.9394 -0.7828
17096SOL    HW252963   7.957   1.711   8.471  0.3506  1.4703 -0.2096
17097SOL     OW52964   1.151   1.521   7.295 -0.0872 -1.0136 -0.6814
17097SOL    HW152965   1.184   1.432   7.290 -1.9011 -1.7711  0.0230
17097SOL    HW252966   1.155   1.554   7.205  0.4103 -1.8800 -0.9801
17098SOL     OW52967   2.803   1.048   7.402  0.8601  0.7920 -0.5786
17098SOL    HW152968   2.822   1.020   7.491  0.3975 -0.0506 -0.7355
17098SOL    HW252969   2.850   1.130   7.392 -0.2583  1.6536  0.9187
17099SOL     OW52970   7.815   5.412   6.864 -0.2536  0.5084 -0.3563
17099SOL    HW152971   7.861   5.451   6.789  2.2231  0.5119  1.0796
17099SOL    HW252972   7.754   5.481   6.892  0.4276  1.3923 -0.9774
17100SOL     OW52973   6.976   9.362   4.919 -0.0706  0.1109 -0.7129
17100SOL    HW152974   6.902   9.376   4.860 -0.4251  0.0905 -0.2793
17100SOL    HW252975   6.936   9.354   5.006  0.5000  1.0341 -0.3446
17101SOL     OW52976   8.165   4.821   3.005 -0.0358 -0.4065  0.9938
17101SOL    HW152977   8.166   4.917   3.011 -1.6025 -0.4038  2.0774
17101SOL    HW252978   8.240   4.793   3.058 -1.6876  0.2114  3.8841
17102SOL     OW52979   4.518   5.106   7.862 -0.3831  0.2128 -0.2064
17102SOL    HW152980   4.505   5.023   7.908  0.5004 -0.5859 -1.3168
17102SOL    HW252981   4.612   5.107   7.841 -0.4395  1.3445 -0.4912
17103SOL     OW52982   1.215   2.715   1.687  0.4766  0.1639  0.0246
17103SOL    HW152983   1.294   2.709   1.633 -0.3736 -1.7709 -1.1088
17103SOL    HW252984   1.185   2.805   1.675  0.8105  0.0447 -2.0676
17104SOL     OW52985   0.513   5.750   4.390 -0.1807  0.2981 -0.6481
17104SOL    HW152986   0.453   5.678   4.408 -0.6222  0.4290 -1.5503
17104SOL    HW252987   0.523   5.750   4.295  1.9956 -0.3132 -0.4598
17105SOL     OW52988   0.977   8.538   5.045  0.2652  0.0421 -0.3994
17105SOL    HW152989   1.011   8.560   4.958 -2.7158  1.1937 -1.4167
17105SOL    HW252990   0.958   8.444   5.040  1.4225 -0.1996 -0.4697
17106SOL     OW52991   9.208   8.082   2.206  0.0925 -0.0602  0.1313
17106SOL    HW152992   9.239   8.171   2.219  0.0109  0.1904 -1.2986
17106SOL    HW252993   9.257   8.049   2.131  1.8213 -2.0667  1.9927
17107SOL     OW52994   3.673   5.016   1.903 -0.5526  0.7708  0.7258
17107SOL    HW152995   3.740   5.061   1.954  0.3029 -0.3236  0.6081
17107SOL    HW252996   3.590   5.041   1.945  0.1162 -0.2583  2.8277
17108SOL     OW52997   1.627   4.247   2.261  0.6387  0.6011 -0.3886
17108SOL    HW152998   1.660   4.184   2.197 -0.4503 -1.0136  0.5566
17108SOL    HW252999   1.705   4.293   2.291  1.7881 -1.5223  0.1317
17109SOL     OW53000   1.583   7.314   5.848  0.2491  0.3740  0.1773
17109SOL    HW153001   1.596   7.360   5.930  0.5552  0.6232 -0.0087
17109SOL    HW253002   1.671   7.288   5.821  0.1057 -0.0818  0.1451
17110SOL     OW53003   1.518   4.249   9.201  0.2532  0.2983 -0.4631
17110SOL    HW153004   1.552   4.337   9.188 -0.4529  0.7555  0.6088
17110SOL    HW253005   1.451   4.239   9.132 -0.2083  0.9071 -0.1161
17111SOL     OW53006   8.786   7.462   6.028 -0.1596 -0.8702  0.2826
17111SOL    HW153007   8.730   7.415   5.966 -0.6499  1.4368 -1.1723
17111SOL    HW253008   8.859   7.402   6.044 -1.6023 -2.8079 -0.0245
17112SOL     OW53009   8.795   3.164   1.517  0.2828  0.0212 -0.2176
17112SOL    HW153010   8.825   3.165   1.426  1.4218 -0.0510  0.1428
17112SOL    HW253011   8.866   3.206   1.566 -0.6200  0.6959  0.5600
17113SOL     OW53012   8.896   3.255   6.580  0.6765 -0.0811 -0.2093
17113SOL    HW153013   8.900   3.242   6.485  0.1506  0.3048 -0.2861
17113SOL    HW253014   8.890   3.349   6.592  0.9703 -0.1116  0.2214
17114SOL     OW53015   6.262   1.293   3.345  0.1854 -0.2697 -0.3464
17114SOL    HW153016   6.348   1.295   3.303 -0.2613 -0.8844 -1.3434
17114SOL    HW253017   6.276   1.247   3.428  0.6231 -1.3963 -1.0198
17115SOL     OW53018   0.502   4.216   2.156  0.5701 -0.3809 -0.5328
17115SOL    HW153019   0.470   4.292   2.106  0.8849  0.3538  0.3511
17115SOL    HW253020   0.453   4.142   2.121 -0.2492  0.3332 -0.9432
17116SOL     OW53021   0.474   0.311   2.215 -0.2684  0.4398  0.1338
17116SOL    HW153022   0.514   0.301   2.301  0.1508  0.2266 -0.0852
17116SOL    HW253023   0.522   0.251   2.158 -0.2849  0.8620 -0.3348
17117SOL     OW53024   5.504   2.469   8.642 -0.1699  0.1663 -0.1183
17117SOL    HW153025   5.541   2.545   8.599  0.6612 -0.4421 -0.5131
17117SOL    HW253026   5.538   2.472   8.732 -1.6468  1.2611  0.4394
17118SOL     OW53027   8.875   7.361   9.558 -0.4219  0.1665 -0.3687
17118SOL    HW153028   8.896   7.454   9.551 -0.5800  0.1237 -1.6778
17118SOL    HW253029   8.952   7.315   9.524 -0.4383 -0.1727  0.0438
17119SOL     OW53030   1.507   4.301   8.731  0.3510 -0.3614 -0.7183
17119SOL    HW153031   1.554   4.248   8.667 -0.2585 -1.3393 -0.3787
17119SOL    HW253032   1.416   4.299   8.700  0.0798 -0.7137  0.0791
17120SOL     OW53033   0.552   5.900   6.811 -0.3228 -0.5383  0.0500
17120SOL    HW153034   0.471   5.856   6.839 -0.7714  0.3549  0.1703
17120SOL    HW253035   0.590   5.840   6.747 -0.3919 -1.5923  0.9630
17121SOL     OW53036   6.773   6.960   0.548  0.0929 -0.5190  0.0440
17121SOL    HW153037   6.798   7.052   0.535 -1.1436 -0.2732 -0.7983
17121SOL    HW253038   6.692   6.964   0.598  0.1648 -1.1727  0.2189
17122SOL     OW53039   5.342   8.268   5.956 -0.3814  0.2342  0.0828
17122SOL    HW153040   5.371   8.182   5.924  1.2756  0.8666 -0.2464
17122SOL    HW253041   5.294   8.306   5.882  1.1284  0.6008 -0.7683
17123SOL     OW53042   9.247   9.601   8.062 -0.1670 -0.0171 -0.4133
17123SOL    HW153043   9.244   9.520   8.113 -1.2845  1.5535  2.2085
17123SOL    HW253044   9.156   9.632   8.061  0.2495  1.2632 -1.3170
17124SOL     OW53045   6.742   4.349   6.158  0.2327 -0.2698 -0.3550
17124SOL    HW153046   6.687   4.272   6.141  1.4304 -1.2330 -0.0057
17124SOL    HW253047   6.786   4.366   6.074  0.7827 -0.6422 -0.1466
17125SOL     OW53048   3.336   2.796   9.430  0.4518 -0.0695  0.1604
17125SOL    HW153049   3.396   2.730   9.466  2.4048  1.3791 -0.2672
17125SOL    HW253050   3.344   2.870   9.490 -0.9664  0.1586  0.0916
17126SOL     OW53051   4.436   3.433   0.234 -0.0871 -0.7386 -0.2479
17126SOL    HW153052   4.409   3.357   0.286  0.2389 -0.8893 -0.2942
17126SOL    HW253053   4.531   3.428   0.233 -0.0241  0.1174  0.4074
17127SOL     OW53054   0.942   0.111   0.337  0.4626 -0.1497 -0.4779
17127SOL    HW153055   0.916   0.151   0.420  2.0806  2.7659 -1.2592
17127SOL    HW253056   0.864   0.062   0.309 -0.7442  0.3067  1.8415
17128SOL     OW53057   4.686   6.389   8.718 -0.1574  0.2519 -0.1128
17128SOL    HW153058   4.745   6.456   8.683  0.6096  0.0033  0.6727
17128SOL    HW253059   4.669   6.416   8.808 -0.2111 -0.3551  0.0680
17129SOL     OW53060   4.917   8.635   0.174  0.2870  0.0287  0.0820
17129SOL    HW153061   4.903   8.586   0.093 -1.4072 -0.2918  0.5329
17129SOL    HW253062   4.917   8.569   0.243 -0.8803  0.5219  0.5821
17130SOL     OW53063   7.283   0.820   1.597 -0.5535 -0.7651 -0.7627
17130SOL    HW153064   7.229   0.897   1.615 -0.6170 -0.8454 -0.6064
17130SOL    HW253065   7.267   0.800   1.505  0.5624  0.2675 -1.2009
17131SOL     OW53066   2.968   5.157   2.877  0.4429 -0.2530  0.0052
17131SOL    HW153067   2.912   5.175   2.953  1.2272  0.2784  0.4668
17131SOL    HW253068   3.025   5.234   2.870 -1.5620  1.2050 -2.9472
17132SOL     OW53069   5.329   2.738   8.111  0.1734  0.1595 -0.1194
17132SOL    HW153070   5.259   2.738   8.177 -0.5008  1.7964 -0.7767
17132SOL    HW253071   5.286   2.709   8.030 -0.1640  2.5062 -0.8596
17133SOL     OW53072   2.358   5.825   1.292 -0.0401 -0.1597  0.8447
17133SOL    HW153073   2.305   5.903   1.310 -0.8106 -0.3232 -0.5787
17133SOL    HW253074   2.331   5.798   1.204  1.4713 -1.0196  0.6185
17134SOL     OW53075   4.601   7.081   0.698  0.0750  0.2570  0.1761
17134SOL    HW153076   4.677   7.122   0.656  0.2647  0.5584  0.7989
17134SOL    HW253077   4.531   7.146   0.689  0.2514  0.5309  0.7612
17135SOL     OW53078   2.432   6.183   5.175 -0.1081  0.2411 -1.0707
17135SOL    HW153079   2.506   6.124   5.191  0.5822  0.8792 -1.8472
17135SOL    HW253080   2.401   6.159   5.088 -2.0781 -1.3211 -0.0367
17136SOL     OW53081   9.324   7.281   8.019 -0.0491  0.0006  0.0561
17136SOL    HW153082   9.268   7.297   8.095 -2.1999 -0.0817 -1.4238
17136SOL    HW253083   9.321   7.186   8.007  1.0035 -0.0847  0.3526
17137SOL     OW53084   9.525   4.506   2.486  0.1775  0.2175  0.2426
17137SOL    HW153085   9.598   4.521   2.547  0.5393  0.2810 -0.1935
17137SOL    HW253086   9.537   4.574   2.420  1.1268 -1.2067 -1.1219
17138SOL     OW53087   5.958   7.549   5.135  0.4415  0.2688  0.1321
17138SOL    HW153088   6.007   7.604   5.196  0.5332 -0.7223  0.9834
17138SOL    HW253089   5.983   7.459   5.159 -0.3233 -0.1709 -0.6792
17139SOL     OW53090   9.659   6.112   6.212  0.5502 -0.0077 -0.3469
17139SOL    HW153091   9.594   6.175   6.243  1.5589  1.0004 -0.1916
17139SOL    HW253092   9.625   6.027   6.240 -0.1958  0.5834  0.6172
17140SOL     OW53093   7.782   3.283   8.946 -0.3224  0.1778  0.5329
17140SOL    HW153094   7.761   3.200   8.904 -1.2825  0.7164 -0.0800
17140SOL    HW253095   7.874   3.275   8.969 -0.6837 -1.5329  1.6021
17141SOL     OW53096   5.163   2.672   9.378  0.0158 -0.6407 -0.0332
17141SOL    HW153097   5.198   2.606   9.318 -2.7734 -1.5307 -0.8281
17141SOL    HW253098   5.229   2.741   9.378  2.8469 -3.1103  0.4458
17142SOL     OW53099   8.948   7.134   9.105  0.1168  0.3016 -0.3252
17142SOL    HW153100   8.983   7.046   9.122  0.5379  0.1460 -1.8048
17142SOL    HW253101   8.867   7.138   9.155 -1.0710 -1.7703 -1.8920
17143SOL     OW53102   8.630   3.733   5.985 -0.2098  0.1977  0.1017
17143SOL    HW153103   8.722   3.712   6.000 -0.1579 -0.1128 -0.6179
17143SOL    HW253104   8.596   3.755   6.072  0.3025 -0.6280  0.5231
17144SOL     OW53105   1.295   6.098   8.126  0.8822 -0.0800 -0.3004
17144SOL    HW153106   1.345   6.092   8.207 -0.7912 -0.3609  0.7661
17144SOL    HW253107   1.216   6.148   8.150  0.3339 -0.1964 -1.7378
17145SOL     OW53108   0.302   2.412   0.222  0.7893 -0.4312 -0.1013
17145SOL    HW153109   0.318   2.332   0.171  2.6124  1.2718 -2.3886
17145SOL    HW253110   0.209   2.406   0.247  0.4012 -2.4026 -1.7715
17146SOL     OW53111   4.476   4.541   0.759  0.0388 -0.3259 -0.8381
17146SOL    HW153112   4.478   4.616   0.700  0.6515  0.1201 -0.2565
17146SOL    HW253113   4.532   4.566   0.832 -1.1202 -0.6690  0.1979
17147SOL     OW53114   4.205   8.406   1.890  0.1709 -0.7668  0.4041
17147SOL    HW153115   4.248   8.322   1.878 -1.5597 -1.5652 -0.5367
17147SOL    HW253116   4.133   8.388   1.951 -1.1198 -0.3212 -0.9448
17148SOL     OW53117   5.498   8.340   6.558  0.3614 -0.0689 -0.3452
17148SOL    HW153118   5.516   8.384   6.475 -1.0875 -0.9432 -1.1800
17148SOL    HW253119   5.404   8.321   6.555 -0.1279  1.4703  2.3138
17149SOL     OW53120   7.965   0.290   6.449  0.3980  0.2529  0.4421
17149SOL    HW153121   8.022   0.364   6.430  1.1293  0.0235  1.6594
17149SOL    HW253122   7.877   0.321   6.426  0.7834  1.2461  0.2791
17150SOL     OW53123   8.882   7.771   1.698 -0.3549  0.4446 -0.3747
17150SOL    HW153124   8.820   7.834   1.662  0.7446  1.0005 -1.3864
17150SOL    HW253125   8.885   7.791   1.791 -2.3160 -0.1708 -0.1421
17151SOL     OW53126   5.690   8.382   0.485  0.2675 -0.5151  0.1067
17151SOL    HW153127   5.678   8.360   0.577 -0.7158 -0.8818 -0.0920
17151SOL    HW253128   5.714   8.474   0.485 -0.3810 -0.3384  0.6988
17152SOL     OW53129   7.535   3.199   3.525 -0.3439  0.2932 -0.2756
17152SOL    HW153130   7.515   3.113   3.489 -0.2040  0.4009 -0.6150
17152SOL    HW253131   7.612   3.184   3.580 -0.7265  0.0754  0.2112
17153SOL     OW53132   0.394   4.841   1.363 -0.2223  0.2878 -0.2389
17153SOL    HW153133   0.395   4.866   1.270  2.4914  2.3998  0.2417
17153SOL    HW253134   0.485   4.847   1.391 -0.4916 -3.0556  1.9620
17154SOL     OW53135   7.678   0.019   9.497  0.2971 -0.2141 -0.0792
17154SOL    HW153136   7.613  -0.002   9.430  1.6173 -0.2559 -1.3774
17154SOL    HW253137   7.689  -0.062   9.547  0.1708 -0.5294 -0.5623
17155SOL     OW53138   4.742   7.789   4.442 -0.0323 -0.2383  0.0134
17155SOL    HW153139   4.751   7.771   4.348  0.1670 -2.6395  0.4191
17155SOL    HW253140   4.722   7.704   4.480 -1.5262  0.9269  2.0158
17156SOL     OW53141   8.121   7.182   7.263 -0.2315  0.2887 -0.1614
17156SOL    HW153142   8.117   7.089   7.281 -1.4076  0.2409 -0.5937
17156SOL    HW253143   8.036   7.216   7.291 -0.9010  0.7541 -2.5278
17157SOL     OW53144   6.891   4.450   4.226  0.4216 -0.2424 -0.8335
17157SOL    HW153145   6.880   4.544   4.215 -1.1628 -0.3534 -0.3805
17157SOL    HW253146   6.950   4.441   4.301  0.1260  0.3767 -0.5224
17158SOL     OW53147   1.488   9.053   6.173 -0.3180  0.5295  0.6620
17158SOL    HW153148   1.534   9.066   6.090  1.3749  0.4578  1.5441
17158SOL    HW253149   1.515   8.966   6.202 -0.2028  0.8932  1.6922
17159SOL     OW53150   4.156   4.188   3.914 -0.0353 -0.5238 -0.0718
17159SOL    HW153151   4.211   4.152   3.983  0.0556  1.3511  0.9108
17159SOL    HW253152   4.216   4.235   3.856 -0.4685  0.9342  0.6126
17160SOL     OW53153   1.918   1.449   1.596  0.5148  0.6785 -0.0184
17160SOL    HW153154   1.877   1.400   1.667 -0.6819 -0.6292 -1.5692
17160SOL    HW253155   1.967   1.384   1.546 -0.5420  1.1188 -1.7227
17161SOL     OW53156   5.617   8.860   6.680  0.1688 -0.1411  0.2186
17161SOL    HW153157   5.664   8.904   6.610 -0.8596 -0.0942 -0.4701
17161SOL    HW253158   5.621   8.767   6.658 -0.8378 -0.0640 -0.3638
17162SOL     OW53159   2.025   6.327   2.104 -0.4033 -0.1797 -0.6730
17162SOL    HW153160   1.985   6.411   2.124  0.3018 -0.0044  0.0456
17162SOL    HW253161   1.962   6.262   2.137 -0.5895  0.0749 -0.5258
17163SOL     OW53162   2.694   1.426   6.918 -0.0008 -0.2672  0.0226
17163SOL    HW153163   2.604   1.396   6.912 -0.7101  1.6612  0.0700
17163SOL    HW253164   2.717   1.452   6.829 -0.4860  1.7567  0.4384
17164SOL     OW53165   3.829   8.831   9.344  0.4364  0.6116  0.2149
17164SOL    HW153166   3.919   8.840   9.374  0.1531  1.1247  0.9559
17164SOL    HW253167   3.799   8.748   9.380  0.6130  0.4419 -0.0306
17165SOL     OW53168   4.930   8.506   5.053 -0.1328 -0.0652 -0.1091
17165SOL    HW153169   4.913   8.421   5.093 -3.5018  0.6062  0.2029
17165SOL    HW253170   4.938   8.488   4.959 -2.0033 -0.6611 -0.1926
17166SOL     OW53171   3.304   8.921   2.957 -0.0581  0.0241  0.3367
17166SOL    HW153172   3.306   8.827   2.940  1.5614 -0.0204  0.6291
17166SOL    HW253173   3.289   8.961   2.871  0.9600 -0.4511 -0.0741
17167SOL     OW53174   1.631   9.134   5.946  0.0842 -0.0503 -0.0550
17167SOL    HW153175   1.677   9.204   5.900  0.6623 -0.7158 -0.5073
17167SOL    HW253176   1.654   9.055   5.898  1.1434 -0.8567  1.6893
17168SOL     OW53177   9.675   7.129   2.463  0.2441 -0.0638  0.2529
17168SOL    HW153178   9.656   7.074   2.540  0.2897  2.4764  2.2083
17168SOL    HW253179   9.591   7.139   2.419 -0.1296 -0.2499  0.9067
17169SOL     OW53180   1.919   3.062   3.350  0.6479 -0.6352 -0.2531
17169SOL    HW153181   1.940   3.145   3.307  0.0670 -0.6990 -0.6654
17169SOL    HW253182   1.929   3.080   3.443 -0.5701  0.2182 -0.2703
17170SOL     OW53183   2.575   9.348   7.048 -0.2768  0.4024 -0.6091
17170SOL    HW153184   2.570   9.437   7.013 -0.2348  0.2983 -0.8799
17170SOL    HW253185   2.488   9.311   7.034 -0.5548  0.6851  0.2761
17171SOL     OW53186   9.116   9.364   1.801 -0.5383 -0.2478 -0.4644
17171SOL    HW153187   9.080   9.451   1.781 -1.2902 -0.4724 -0.0939
17171SOL    HW253188   9.132   9.325   1.715 -0.0004  0.3314 -0.6367
17172SOL     OW53189   3.201   9.091   1.768  0.0911  0.1174 -0.7540
17172SOL    HW153190   3.139   9.118   1.836 -0.5189 -2.4617 -0.1920
17172SOL    HW253191   3.277   9.059   1.816  0.9287  1.0508 -1.4033
17173SOL     OW53192   2.946   4.348   8.126  0.9818  1.1432 -0.4728
17173SOL    HW153193   2.857   4.382   8.118  0.7092  0.5302 -0.0718
17173SOL    HW253194   3.001   4.416   8.087  0.2448  1.0087 -1.7779
17174SOL     OW53195   5.195   7.932   3.293 -0.1961 -0.5348 -0.1313
17174SOL    HW153196   5.233   8.016   3.318 -1.1553  0.1888 -0.9754
17174SOL    HW253197   5.218   7.922   3.200  1.3438 -2.0452  0.3615
17175SOL     OW53198   1.782   7.608   6.610  0.4523  0.2912 -0.3978
17175SOL    HW153199   1.722   7.599   6.535 -1.2574 -2.6619  1.1492
17175SOL    HW253200   1.739   7.671   6.668 -1.2184 -1.7074  0.6379
17176SOL     OW53201   7.077   5.164   8.343 -0.1632 -0.3398  0.3943
17176SOL    HW153202   7.061   5.125   8.257  0.1716  2.7568 -1.2038
17176SOL    HW253203   7.173   5.169   8.348 -0.1615 -1.0882  1.2682
17177SOL     OW53204   4.306   5.928   6.267 -0.2866 -0.0823 -0.1231
17177SOL    HW153205   4.400   5.911   6.276 -0.1037  0.4516 -0.9453
17177SOL    HW253206   4.270   5.847   6.232 -0.2631 -0.5469  0.8895
17178SOL     OW53207   9.472   7.628   4.862 -0.4232 -0.2488 -0.2016
17178SOL    HW153208   9.443   7.711   4.900 -1.3982 -0.1274 -1.1266
17178SOL    HW253209   9.432   7.627   4.775 -0.0951 -1.5126 -0.3620
17179SOL     OW53210   9.646   5.853   7.793  0.2038  0.2535 -0.3434
17179SOL    HW153211   9.672   5.786   7.856  2.8927  0.7267 -0.8155
17179SOL    HW253212   9.564   5.821   7.756  1.3383 -2.8170 -0.5006
17180SOL     OW53213   1.111   1.653   5.650 -0.1428  0.4030  0.3535
17180SOL    HW153214   1.194   1.692   5.623  0.1428 -0.6969 -0.4102
17180SOL    HW253215   1.064   1.637   5.568 -1.0266  0.7979  0.7628
17181SOL     OW53216   4.566   5.418   3.061 -0.2883 -0.1943 -0.3380
17181SOL    HW153217   4.517   5.415   2.979  1.0567 -0.0153 -1.1769
17181SOL    HW253218   4.654   5.390   3.038 -0.1935 -1.4585  1.3169
17182SOL     OW53219   0.742   5.581   0.914  0.1429  0.0336 -0.1686
17182SOL    HW153220   0.713   5.499   0.874  0.9826 -0.2414 -0.2193
17182SOL    HW253221   0.773   5.634   0.840 -1.8317  1.0361 -0.3523
17183SOL     OW53222   2.064   1.941   8.252  0.0802  0.0532  0.2536
17183SOL    HW153223   2.104   1.858   8.227  0.3336  0.7187 -1.7362
17183SOL    HW253224   2.007   1.919   8.326  0.0115 -1.9119 -0.3257
17184SOL     OW53225   9.412   5.547   4.716  0.3361 -0.0315  0.0790
17184SOL    HW153226   9.454   5.542   4.630  0.0148  0.7856 -0.1278
17184SOL    HW253227   9.484   5.562   4.777  0.5319 -0.3304 -0.0776
17185SOL     OW53228   8.776   7.520   6.295 -0.2966 -0.0181 -0.0151
17185SOL    HW153229   8.793   7.501   6.203  0.2914 -0.9232  0.2606
17185SOL    HW253230   8.824   7.601   6.313 -0.7235  0.3653 -0.5963
17186SOL     OW53231   2.488   1.932   6.491  0.3567  0.3345  0.0575
17186SOL    HW153232   2.448   1.865   6.436  1.1174  1.1636 -1.5834
17186SOL    HW253233   2.557   1.885   6.538  2.4207  0.2337 -2.7526
17187SOL     OW53234   9.434   4.182   6.385  0.1747 -0.0065  0.2972
17187SOL    HW153235   9.482   4.161   6.304  0.4565  0.6297  0.2955
17187SOL    HW253236   9.483   4.136   6.454  1.1357  1.0911  0.3726
17188SOL     OW53237   1.791   7.077   4.382  0.3440  0.6553  0.1110
17188SOL    HW153238   1.723   7.048   4.443 -0.3970  1.5215 -0.2701
17188SOL    HW253239   1.860   7.114   4.438  0.8023 -0.7966  0.5325
17189SOL     OW53240   7.980   5.153   2.456 -0.3018 -0.2436  0.1609
17189SOL    HW153241   7.979   5.075   2.511  0.2575  0.3992  1.1064
17189SOL    HW253242   8.046   5.134   2.389 -1.1364 -1.1118 -0.4394
17190SOL     OW53243   1.123   2.853   3.935 -0.0221 -0.1705  0.2095
17190SOL    HW153244   1.161   2.809   4.010 -1.5891 -1.1152  0.4943
17190SOL    HW253245   1.165   2.939   3.934 -0.6627  0.2528  2.7687
17191SOL     OW53246   3.201   3.885   8.621 -0.4488 -0.0959  0.2378
17191SOL    HW153247   3.114   3.924   8.627 -0.0376  0.7647  0.8450
17191SOL    HW253248   3.204   3.825   8.695 -0.3388  0.2718  0.5352
17192SOL     OW53249   6.105   9.155   0.481  0.0442 -0.3764 -0.1399
17192SOL    HW153250   6.147   9.071   0.463  0.1116 -0.1463 -1.1530
17192SOL    HW253251   6.173   9.220   0.462 -0.1401 -0.0794  0.2089
17193SOL     OW53252   8.929   8.974   8.512  0.6254 -0.0352 -0.5236
17193SOL    HW153253   8.838   8.998   8.495  0.7342  2.3613  1.6068
17193SOL    HW253254   8.980   9.026   8.451  0.6098 -0.4165 -0.8614
17194SOL     OW53255   6.950   7.719   2.998  0.1399 -0.2093  0.5248
17194SOL    HW153256   6.965   7.807   3.033 -1.6619 -0.2679  1.6024
17194SOL    HW253257   6.859   7.721   2.967  0.2969 -1.4917 -0.1051
17195SOL     OW53258   0.022   9.130   8.698 -0.3096 -0.1871  0.3429
17195SOL    HW153259  -0.052   9.187   8.677  0.4119  1.1548  1.3186
17195SOL    HW253260   0.014   9.058   8.635 -1.0072  1.1979 -1.2581
17196SOL     OW53261   1.562   4.438   1.051  0.5923  0.0125 -0.5314
17196SOL    HW153262   1.512   4.378   1.106 -0.1686 -0.2303 -1.4591
17196SOL    HW253263   1.573   4.392   0.968  0.1319  1.0784 -1.2080
17197SOL     OW53264   8.279   3.909   3.147  0.6777  0.1518  0.0542
17197SOL    HW153265   8.210   3.843   3.152 -0.6616  1.5424  0.9470
17197SOL    HW253266   8.315   3.899   3.059 -0.1594 -1.1008 -0.1726
17198SOL     OW53267   5.390   0.627   5.880  0.4036  0.2715 -0.7897
17198SOL    HW153268   5.451   0.604   5.950  2.8213  2.1815 -2.1054
17198SOL    HW253269   5.395   0.723   5.874 -0.5274  0.2495 -2.8585
17199SOL     OW53270   5.605   3.418   6.298 -0.3443 -0.4380 -0.3869
17199SOL    HW153271   5.612   3.323   6.300 -0.8323 -0.4705 -0.0108
17199SOL    HW253272   5.683   3.450   6.343  0.5820 -0.6170 -1.8193
17200SOL     OW53273   4.776   0.979   2.593 -0.0575  0.1256 -0.2597
17200SOL    HW153274   4.789   0.892   2.631  0.6771  0.4665  0.2974
17200SOL    HW253275   4.795   1.039   2.665 -2.0422  0.7402 -0.1996
17201SOL     OW53276   5.945   8.845   9.496 -0.7311  0.0527 -0.0551
17201SOL    HW153277   5.943   8.807   9.409  0.4179 -2.1778  0.8081
17201SOL    HW253278   6.035   8.875   9.508 -0.6231 -0.5228  0.6774
17202SOL     OW53279   3.682   1.997   6.969 -0.0508  0.1738  0.1728
17202SOL    HW153280   3.656   1.968   7.056 -0.9449 -0.7520 -0.3842
17202SOL    HW253281   3.611   2.054   6.940 -0.6614 -0.9568 -0.6481
17203SOL     OW53282   9.567   8.258   9.156  0.3565  0.7198 -0.4203
17203SOL    HW153283   9.530   8.244   9.243  1.1166  0.8192 -0.0695
17203SOL    HW253284   9.590   8.351   9.155  1.6450  0.4245 -0.1969
17204SOL     OW53285   3.239   0.895   2.367 -0.0692 -0.0799  0.1348
17204SOL    HW153286   3.223   0.812   2.324  0.6708 -0.7247  1.0658
17204SOL    HW253287   3.162   0.910   2.422  0.5144 -1.0092  1.2568
17205SOL     OW53288   2.960   6.670   7.259  0.6827  0.0795 -0.4984
17205SOL    HW153289   2.870   6.656   7.230  0.6431 -0.3783 -0.1770
17205SOL    HW253290   3.011   6.678   7.178  0.2663  0.9554 -0.6771
17206SOL     OW53291   5.018   6.590   0.698  0.6342  0.4524  0.0383
17206SOL    HW153292   5.005   6.547   0.613  0.4517 -1.0635  0.7939
17206SOL    HW253293   5.067   6.669   0.677  1.0927 -0.1733 -1.4294
17207SOL     OW53294   4.109   6.294   4.373  0.2377  0.0935 -0.2316
17207SOL    HW153295   4.122   6.368   4.314 -0.2124  1.8660  1.7711
17207SOL    HW253296   4.190   6.290   4.424 -0.7299  1.0004  1.4830
17208SOL     OW53297   3.374   8.601   4.347 -0.2212 -0.4435  0.1858
17208SOL    HW153298   3.373   8.511   4.379 -0.4896 -1.0399 -1.4305
17208SOL    HW253299   3.323   8.650   4.411  0.1405 -1.3759  1.2179
17209SOL     OW53300   6.175   9.110   3.506  0.3381 -0.3411 -0.4774
17209SOL    HW153301   6.213   9.101   3.419  0.9069 -0.9544 -0.1768
17209SOL    HW253302   6.095   9.058   3.504  1.8344 -2.8525  0.2056
17210SOL     OW53303   8.173   6.752   8.692  0.5910 -0.2323  0.1629
17210SOL    HW153304   8.153   6.660   8.713 -0.7428 -0.5776 -2.2675
17210SOL    HW253305   8.108   6.802   8.741  0.2590 -0.7085  0.2158
17211SOL     OW53306   1.671   9.280   2.528  0.3416  0.1059  0.3667
17211SOL    HW153307   1.735   9.241   2.588  2.1190  0.7164 -1.0487
17211SOL    HW253308   1.694   9.373   2.526  0.1326  0.1398 -1.0329
17212SOL     OW53309   0.981   6.724   5.624 -0.4466  0.4159  0.2377
17212SOL    HW153310   0.905   6.703   5.569  0.0797  0.3521 -0.4828
17212SOL    HW253311   1.018   6.803   5.584  0.3487 -0.0300  0.0811
17213SOL     OW53312   7.382   2.643   7.921 -0.3502  0.1343 -0.0057
17213SOL    HW153313   7.423   2.654   8.007 -2.0422  1.2444  0.7224
17213SOL    HW253314   7.315   2.576   7.935 -0.2901 -0.0514 -0.5996
17214SOL     OW53315   7.188   1.188   3.922  0.1653 -0.3277 -0.0662
17214SOL    HW153316   7.211   1.114   3.978  1.8346  0.4685  0.3698
17214SOL    HW253317   7.122   1.153   3.862  0.3609 -1.9515  0.6166
17215SOL     OW53318   2.017   9.438   1.465 -0.3814  0.4865 -0.3749
17215SOL    HW153319   2.003   9.410   1.374 -0.5517  0.4034 -0.3229
17215SOL    HW253320   2.048   9.528   1.458 -1.8548  1.0148 -0.4563
17216SOL     OW53321   2.090   2.271   4.751  0.2554  0.7327  0.0748
17216SOL    HW153322   2.173   2.224   4.759 -0.0654  0.4422  2.6914
17216SOL    HW253323   2.029   2.206   4.717  0.1399 -0.4351  2.3361
17217SOL     OW53324   7.141   5.350   8.569 -0.0369 -0.4365 -0.0713
17217SOL    HW153325   7.236   5.360   8.562 -0.2286  1.7267 -0.3596
17217SOL    HW253326   7.118   5.288   8.500  1.2197 -1.4924  0.4253
17218SOL     OW53327   4.194   5.429   0.970 -0.2976  0.1362 -0.6455
17218SOL    HW153328   4.176   5.478   0.890 -0.0856  1.8445  0.2969
17218SOL    HW253329   4.209   5.496   1.036  0.6516 -1.2212  0.5878
17219SOL     OW53330   7.946   3.467   3.644  0.1929 -0.9325 -0.2591
17219SOL    HW153331   8.005   3.490   3.715 -0.0295  1.6053 -0.8158
17219SOL    HW253332   7.999   3.414   3.584  1.1811 -0.7135  0.4129
17220SOL     OW53333   2.970   5.102   4.357  0.1496  0.1077 -0.2670
17220SOL    HW153334   2.880   5.093   4.328 -0.3688  1.5856  0.7396
17220SOL    HW253335   3.017   5.138   4.281 -0.4088  0.5966 -0.3834
17221SOL     OW53336   7.009   0.113   8.394 -0.5139 -0.4406  0.2937
17221SOL    HW153337   7.045   0.047   8.334 -0.4687 -0.2832  0.1462
17221SOL    HW253338   7.017   0.074   8.481  0.3724 -0.2493  0.3103
17222SOL     OW53339   9.470   5.357   3.579  0.3482  0.2050  0.7990
17222SOL    HW153340   9.397   5.332   3.636 -0.0723 -1.6032 -0.4127
17222SOL    HW253341   9.435   5.429   3.527 -0.2574  0.0062  0.9137
17223SOL     OW53342   6.231   6.910   3.264 -0.2062 -0.2085  0.5976
17223SOL    HW153343   6.158   6.901   3.326 -0.7921  1.5711  0.2184
17223SOL    HW253344   6.304   6.939   3.318 -0.4267  0.3038  0.6252
17224SOL     OW53345   9.414   1.332   2.146 -0.0318  0.6138  0.0961
17224SOL    HW153346   9.350   1.400   2.167  0.9284  0.9923  2.1683
17224SOL    HW253347   9.412   1.274   2.222 -1.1035 -1.9707 -1.7935
17225SOL     OW53348   0.887   3.488   2.096  0.2555  0.5724  0.3980
17225SOL    HW153349   0.795   3.506   2.076 -0.0653 -1.0858  0.2863
17225SOL    HW253350   0.916   3.565   2.145 -0.3720  2.4320 -1.9335
17226SOL     OW53351   0.173   6.532   0.792 -0.0267 -0.0622  0.8527
17226SOL    HW153352   0.246   6.500   0.739 -0.2169  0.0642  0.5111
17226SOL    HW253353   0.212   6.551   0.877 -0.0838 -2.1315  1.3924
17227SOL     OW53354   6.880   8.194   8.509 -0.2832  0.2689  0.2824
17227SOL    HW153355   6.855   8.192   8.416  0.1889  1.6249  0.1103
17227SOL    HW253356   6.970   8.226   8.509 -0.3617  0.5122  1.2272
17228SOL     OW53357   1.896   9.598   4.638  0.0405 -0.3802  0.1161
17228SOL    HW153358   1.807   9.620   4.612  0.7673 -0.6899 -2.9830
17228SOL    HW253359   1.904   9.631   4.727 -3.2278 -0.5991  0.5900
17229SOL     OW53360   7.349   3.929   5.927  0.6790 -0.0427  0.5264
17229SOL    HW153361   7.275   3.978   5.962  0.2100 -0.9355  0.8028
17229SOL    HW253362   7.379   3.982   5.853 -0.2676  0.3090  0.3753
17230SOL     OW53363   8.018   2.822   1.809 -0.2507 -0.1798  0.1901
17230SOL    HW153364   7.966   2.900   1.791 -0.8478 -0.5890  0.1226
17230SOL    HW253365   8.024   2.819   1.905  0.4940  0.4120  0.1686
17231SOL     OW53366   5.799   1.496   8.945 -0.1218 -0.5715 -0.0480
17231SOL    HW153367   5.852   1.438   8.998  0.0754 -0.4920 -0.1537
17231SOL    HW253368   5.862   1.560   8.909 -0.1839 -0.8692 -0.7032
17232SOL     OW53369   5.507   0.877   3.780 -0.4092  0.3246 -0.1494
17232SOL    HW153370   5.530   0.785   3.795 -0.2119  0.3885 -0.0651
17232SOL    HW253371   5.436   0.873   3.716  0.8591  0.2002 -1.5925
17233SOL     OW53372   2.748   6.721   4.011 -0.4595  0.2889 -0.0814
17233SOL    HW153373   2.785   6.662   3.946  0.7106  1.6858 -0.7533
17233SOL    HW253374   2.667   6.753   3.971 -0.5773 -0.0819 -0.1432
17234SOL     OW53375   1.347   5.896   3.765 -0.4510  0.2128 -0.1051
17234SOL    HW153376   1.350   5.828   3.697 -0.9261 -1.1434  1.1743
17234SOL    HW253377   1.270   5.949   3.742  0.3461  0.7898 -1.5263
17235SOL     OW53378   1.942   6.228   3.136 -0.1495  0.1562  0.4699
17235SOL    HW153379   2.018   6.208   3.191  0.9705 -1.6085 -1.5845
17235SOL    HW253380   1.891   6.147   3.136  0.3929 -0.2408 -1.8032
17236SOL     OW53381   7.855   9.153   5.758  0.1914  0.2962  0.0737
17236SOL    HW153382   7.843   9.071   5.806 -0.4754 -0.2962 -1.0595
17236SOL    HW253383   7.949   9.156   5.739  0.1329 -0.5258 -0.4020
17237SOL     OW53384   7.508   0.808   3.845  0.0526  0.1300 -0.8823
17237SOL    HW153385   7.485   0.838   3.758 -3.2015 -0.4335 -0.3357
17237SOL    HW253386   7.494   0.713   3.843 -1.0501  0.2261  0.4787
17238SOL     OW53387   1.277   1.701   7.796  0.3386 -0.1822 -0.0227
17238SOL    HW153388   1.227   1.644   7.854  0.1070 -0.8695 -0.8788
17238SOL    HW253389   1.329   1.642   7.742 -1.0466  0.2866 -1.9832
17239SOL     OW53390   2.250   0.398   2.308 -0.0691 -0.4017 -0.2165
17239SOL    HW153391   2.268   0.482   2.266  0.7072 -0.1012  0.6617
17239SOL    HW253392   2.324   0.343   2.284  0.5178 -0.1421  0.9351
17240SOL     OW53393   0.097   3.877   9.529 -0.4511  0.5516 -0.0602
17240SOL    HW153394   0.003   3.867   9.542 -0.5173  2.4288  1.2764
17240SOL    HW253395   0.106   3.956   9.475  0.3262 -0.6244 -1.7380
17241SOL     OW53396   4.546   7.662   3.356 -0.0771  0.0514  0.1567
17241SOL    HW153397   4.567   7.612   3.277 -2.7566 -1.8223  0.5040
17241SOL    HW253398   4.577   7.607   3.428  0.0696  0.5474  0.4756
17242SOL     OW53399   0.126   9.000   7.402  0.0119 -0.0178 -0.5753
17242SOL    HW153400   0.052   8.992   7.341 -1.6104 -0.5508  1.3833
17242SOL    HW253401   0.135   9.094   7.416 -0.5047  0.0385 -0.5873
17243SOL     OW53402   4.067   4.920   6.887  0.5395 -0.0490  0.2755
17243SOL    HW153403   4.062   4.982   6.815  2.3079  0.4558  0.5271
17243SOL    HW253404   4.008   4.954   6.954 -2.5867 -1.5006 -1.5393
17244SOL     OW53405   6.795   1.423   4.477  0.2332 -0.0654  0.0095
17244SOL    HW153406   6.858   1.385   4.415  0.8088  0.3695  0.3239
17244SOL    HW253407   6.799   1.517   4.461  0.8579  0.1122  1.1345
17245SOL     OW53408   5.878   7.706   4.378  0.2125 -0.3394  0.2410
17245SOL    HW153409   5.864   7.799   4.391 -0.9582 -0.5971  1.0038
17245SOL    HW253410   5.970   7.691   4.402  1.1075  0.9441 -2.0442
17246SOL     OW53411   2.101   7.572   4.956  0.4097 -0.0444  0.1392
17246SOL    HW153412   2.072   7.628   4.884 -1.0898 -0.4422  0.3987
17246SOL    HW253413   2.060   7.487   4.938 -0.5635  0.0236  1.7879
17247SOL     OW53414   2.183   2.966   1.589 -0.0190  0.0069  0.1252
17247SOL    HW153415   2.122   3.004   1.652  1.4034  1.9122  0.4309
17247SOL    HW253416   2.138   2.975   1.504 -0.5451  0.5602  0.4539
17248SOL     OW53417   5.582   0.858   2.945  0.3050 -0.3069  0.3682
17248SOL    HW153418   5.493   0.824   2.935 -0.8352  2.7370 -0.8033
17248SOL    HW253419   5.589   0.882   3.037  0.2039 -1.1343  0.6069
17249SOL     OW53420   8.134   0.293   5.603  0.1766 -0.1676 -0.2034
17249SOL    HW153421   8.169   0.208   5.631  1.5747  0.1255 -0.9489
17249SOL    HW253422   8.193   0.357   5.644 -0.0146  0.3920 -0.7930
17250SOL     OW53423   4.330   1.361   2.844  0.0734  0.5738 -0.3344
17250SOL    HW153424   4.346   1.295   2.912  0.1579  0.2170 -0.6995
17250SOL    HW253425   4.278   1.315   2.778  0.1495  0.8701 -0.6003
17251SOL     OW53426   4.429   1.538   8.930  0.0460 -0.1841  0.1095
17251SOL    HW153427   4.408   1.622   8.971  0.2527 -0.4032  0.6839
17251SOL    HW253428   4.361   1.478   8.962 -0.0439 -0.2580 -0.2178
17252SOL     OW53429   6.180   9.241   6.345 -0.0509  0.0760 -0.1307
17252SOL    HW153430   6.155   9.255   6.254  1.1693 -0.3174 -0.5431
17252SOL    HW253431   6.264   9.286   6.354 -0.6639  1.0460  1.1044
17253SOL     OW53432   1.811   3.736   0.773 -0.6254 -0.0194 -0.6989
17253SOL    HW153433   1.800   3.825   0.742 -1.3537 -0.7814 -2.8193
17253SOL    HW253434   1.746   3.725   0.842 -0.1162  1.2307  0.0055
17254SOL     OW53435   5.544   9.012   8.084  0.1704  0.1552  0.2079
17254SOL    HW153436   5.616   9.072   8.107 -1.3202  1.1691  2.6554
17254SOL    HW253437   5.559   8.935   8.138 -1.0467  0.8022  1.5613
17255SOL     OW53438   9.151   3.123   4.073 -0.1604 -0.3422  0.0426
17255SOL    HW153439   9.117   3.163   3.993 -0.1543 -0.6712 -0.1243
17255SOL    HW253440   9.127   3.031   4.066  1.8524 -0.8525 -0.6633
17256SOL     OW53441   4.524   1.370   3.628  0.4261  0.2894  0.4293
17256SOL    HW153442   4.596   1.381   3.690  0.2470  1.9347  0.3939
17256SOL    HW253443   4.564   1.385   3.542  0.5914 -1.5951  0.1261
17257SOL     OW53444   7.642   8.266   4.029 -0.2778 -0.3327 -0.6998
17257SOL    HW153445   7.720   8.213   4.010 -0.9522 -1.6748  0.1491
17257SOL    HW253446   7.645   8.337   3.965  1.4393 -0.5655 -0.9247
17258SOL     OW53447   5.989   7.280   4.091 -0.2279  0.1316  0.6069
17258SOL    HW153448   5.935   7.201   4.105 -0.4713 -0.2197 -1.8056
17258SOL    HW253449   5.932   7.338   4.041  0.4086  1.3276  1.2438
17259SOL     OW53450   2.144   3.970   7.217  0.1414 -0.6782 -0.4095
17259SOL    HW153451   2.153   4.061   7.187 -2.1304 -0.0540  0.5782
17259SOL    HW253452   2.137   3.977   7.312 -1.3513 -1.7240 -0.4024
17260SOL     OW53453   6.540   0.506   5.273  0.5801 -0.3876  0.7290
17260SOL    HW153454   6.507   0.496   5.184  1.6875 -0.6716  0.3246
17260SOL    HW253455   6.625   0.461   5.272  0.8764  0.1130  1.7633
17261SOL     OW53456   8.389   1.816   0.959  0.6018  0.0314  0.3417
17261SOL    HW153457   8.433   1.870   0.893 -0.0933  1.0974  0.7289
17261SOL    HW253458   8.296   1.839   0.950  0.1947 -1.5922  0.0666
17262SOL     OW53459   6.767   1.358   6.030 -0.4853  0.1131 -0.3317
17262SOL    HW153460   6.859   1.340   6.047  0.0999  2.2824 -0.8185
17262SOL    HW253461   6.723   1.343   6.114  0.1692 -1.6357 -0.2818
17263SOL     OW53462   0.911   8.509   5.315  0.3772 -0.0417  0.0228
17263SOL    HW153463   0.858   8.582   5.346 -0.0140 -0.1933 -0.2784
17263SOL    HW253464   0.924   8.527   5.222  3.0287  1.3417  0.5617
17264SOL     OW53465   5.166   1.223   7.934 -0.3459 -0.2523  0.4972
17264SOL    HW153466   5.189   1.212   7.842 -0.9430  0.8329  0.1939
17264SOL    HW253467   5.231   1.285   7.967 -0.1304 -0.6435  0.8119
17265SOL     OW53468   1.055   7.318   7.174  0.2560 -0.0765  0.0496
17265SOL    HW153469   1.133   7.335   7.121  0.6590 -0.3711  0.5361
17265SOL    HW253470   1.089   7.295   7.260 -0.3230 -1.4552 -0.0698
17266SOL     OW53471   6.429   7.337   4.002 -0.0636  0.5944 -0.5144
17266SOL    HW153472   6.440   7.431   3.996 -0.0758  0.6356  0.0344
17266SOL    HW253473   6.518   7.301   4.000 -0.0339  0.6507 -0.2839
17267SOL     OW53474   9.401   3.081   6.131  0.0485  1.0377 -0.2329
17267SOL    HW153475   9.445   3.046   6.208 -0.7470  0.4587 -0.0364
17267SOL    HW253476   9.315   3.109   6.163 -1.4857 -1.8920 -1.3938
17268SOL     OW53477   3.035   4.381   2.875 -0.6988 -0.3760  0.2817
17268SOL    HW153478   3.033   4.334   2.791 -0.3406  1.7086 -0.9585
17268SOL    HW253479   2.997   4.466   2.856  3.4306  1.8902  1.0651
17269SOL     OW53480   8.886   8.889   3.921 -0.5316  0.1518 -0.0759
17269SOL    HW153481   8.797   8.921   3.931 -1.0097 -0.0305 -2.9957
17269SOL    HW253482   8.904   8.896   3.827  2.8906  1.1045  0.5093
17270SOL     OW53483   6.230   2.306   6.816  0.2811 -0.3329 -0.2587
17270SOL    HW153484   6.245   2.349   6.732 -0.5278 -0.0481 -0.2642
17270SOL    HW253485   6.135   2.306   6.827  0.4141  0.5184  1.1108
17271SOL     OW53486   8.784   6.225   2.169 -0.3611  0.2332 -0.1331
17271SOL    HW153487   8.812   6.133   2.166 -1.5738 -0.2208  1.4267
17271SOL    HW253488   8.731   6.236   2.090 -1.6572 -0.9417  0.5220
17272SOL     OW53489   3.009   7.339   1.832  0.2547 -0.1095  0.2309
17272SOL    HW153490   2.997   7.262   1.777  1.5538 -1.2532  1.4488
17272SOL    HW253491   3.098   7.369   1.812  0.7566 -0.5602  1.6578
17273SOL     OW53492   9.603   6.598   0.696  0.0155  0.1476 -0.1682
17273SOL    HW153493   9.591   6.554   0.612  2.7169  0.0083 -0.5829
17273SOL    HW253494   9.689   6.569   0.726 -0.0241  1.7378  1.7005
17274SOL     OW53495   1.467   7.296   0.205 -0.0690  0.5506  0.0378
17274SOL    HW153496   1.429   7.213   0.175 -1.5525  1.3676 -0.4337
17274SOL    HW253497   1.512   7.331   0.129 -0.3201  0.6658 -0.0580
17275SOL     OW53498   3.853   2.987   1.110  0.1212 -0.4323  0.5808
17275SOL    HW153499   3.893   2.912   1.066 -0.6038  0.1024 -1.1006
17275SOL    HW253500   3.922   3.054   1.110  0.2940 -0.6112  0.7113
17276SOL     OW53501   9.648   7.710   7.937 -0.1821  0.7686  0.5242
17276SOL    HW153502   9.652   7.623   7.977 -1.9584  0.3812 -0.0189
17276SOL    HW253503   9.604   7.694   7.853 -1.3064  2.2936  0.7826
17277SOL     OW53504   7.083   1.645   7.582 -0.0674 -0.1090  0.1758
17277SOL    HW153505   7.014   1.600   7.534 -1.2328 -1.3157  2.7984
17277SOL    HW253506   7.069   1.738   7.562 -2.1017 -0.3725  0.1551
17278SOL     OW53507   1.947   1.794   2.235 -0.1163  0.5091  0.0903
17278SOL    HW153508   1.888   1.845   2.290  1.0152  2.6939 -0.5682
17278SOL    HW253509   1.951   1.708   2.276  0.1070  1.7998  3.0283
17279SOL     OW53510   5.280   9.205   4.749 -0.2700  0.2130  0.0329
17279SOL    HW153511   5.217   9.146   4.791 -0.2458 -0.2864 -0.6254
17279SOL    HW253512   5.267   9.191   4.655  1.5574 -0.7069 -0.1247
17280SOL     OW53513   0.065   0.978   0.355 -0.3259  0.2434  0.2368
17280SOL    HW153514   0.056   1.068   0.324 -1.5061 -0.0955 -0.4783
17280SOL    HW253515   0.028   0.980   0.443  1.5323  0.8564  1.0718
17281SOL     OW53516   4.691   8.268   0.655 -0.0789  0.0418 -0.1322
17281SOL    HW153517   4.692   8.275   0.751 -1.1920  1.8855 -0.2015
17281SOL    HW253518   4.630   8.197   0.637  0.3777 -0.5360  0.5070
17282SOL     OW53519   2.710   7.694   0.789 -0.7074 -0.1315  0.4133
17282SOL    HW153520   2.781   7.756   0.801  0.2282 -1.5493  2.8280
17282SOL    HW253521   2.741   7.635   0.719  0.5553 -0.7526  1.4617
17283SOL     OW53522   2.883   9.363   2.156  0.4860 -0.0325  0.0502
17283SOL    HW153523   2.925   9.297   2.211  0.2285  0.4641  0.8544
17283SOL    HW253524   2.951   9.389   2.094  1.0310 -0.0238  0.6418
17284SOL     OW53525   0.801   6.784   9.479 -0.3880  0.4293 -0.0156
17284SOL    HW153526   0.761   6.725   9.543  0.9198 -0.2796  0.1612
17284SOL    HW253527   0.875   6.736   9.443  0.1000  1.5820 -0.6217
17285SOL     OW53528   7.996   3.596   9.591  0.1941 -0.2308  0.0742
17285SOL    HW153529   8.061   3.526   9.586  0.3264 -0.0972 -0.0765
17285SOL    HW253530   7.912   3.551   9.583  0.2889 -0.3377 -0.3380
17286SOL     OW53531   9.274   6.454   5.965 -0.1442 -0.1244 -0.4152
17286SOL    HW153532   9.327   6.400   6.023 -0.5128 -1.8187 -1.5631
17286SOL    HW253533   9.217   6.505   6.023 -0.6113 -1.8636  0.7111
17287SOL     OW53534   3.102   1.001   6.353  0.6017  0.0565  0.3297
17287SOL    HW153535   3.012   1.035   6.351 -0.0876 -1.6921 -0.0026
17287SOL    HW253536   3.144   1.042   6.277 -0.1516  0.2731  0.0171
17288SOL     OW53537   0.319   4.115   8.318 -0.3659 -0.2318  0.2185
17288SOL    HW153538   0.407   4.108   8.355  0.0861  6.3283  1.5685
17288SOL    HW253539   0.262   4.127   8.393 -1.9230 -1.1089 -0.7802
17289SOL     OW53540   4.369   1.854   4.852 -0.2270 -0.6533  0.0514
17289SOL    HW153541   4.399   1.886   4.937  0.8870 -1.2839 -0.0958
17289SOL    HW253542   4.371   1.759   4.860  0.9363 -0.7374 -1.0206
17290SOL     OW53543   2.165   4.911   0.874 -0.0683 -0.2169 -0.2374
17290SOL    HW153544   2.162   4.825   0.832  1.4077  0.0201 -0.8742
17290SOL    HW253545   2.075   4.927   0.902 -1.1877 -0.3481 -3.4019
17291SOL     OW53546   8.851   8.363   6.963  0.3834  0.2636 -0.6219
17291SOL    HW153547   8.760   8.338   6.948  0.5850  0.3255 -2.0969
17291SOL    HW253548   8.887   8.291   7.014 -0.8132  0.8661  1.1673
17292SOL     OW53549   7.877   8.199   2.723 -0.1720 -0.7073 -0.0429
17292SOL    HW153550   7.839   8.191   2.635  0.8377  1.9395 -0.8075
17292SOL    HW253551   7.935   8.275   2.718 -0.1022 -0.4300  2.9458
17293SOL     OW53552   4.975   2.176   6.402  0.2264 -0.1505 -0.1264
17293SOL    HW153553   4.950   2.202   6.491 -0.4176  0.9213 -0.5911
17293SOL    HW253554   4.902   2.121   6.372 -0.3572  0.8166 -0.5447
17294SOL     OW53555   8.343   6.905   4.452  0.3172 -0.2710  0.2449
17294SOL    HW153556   8.355   6.823   4.499  0.1740 -0.5699 -0.2282
17294SOL    HW253557   8.288   6.959   4.509  0.9989 -0.2373  0.8653
17295SOL     OW53558   9.650   2.105   2.629  0.6861  0.1193  0.1202
17295SOL    HW153559   9.590   2.180   2.631  2.1404  1.2991  1.2852
17295SOL    HW253560   9.728   2.138   2.586  2.2036 -0.0113  2.5970
17296SOL     OW53561   1.776   7.193   9.279  0.1335  0.0218  0.2687
17296SOL    HW153562   1.751   7.266   9.336 -1.6270 -0.4242  0.1469
17296SOL    HW253563   1.864   7.170   9.306  0.0186  0.9959  1.5760
17297SOL     OW53564   2.152   1.889   2.948 -0.3198 -0.4098 -0.1225
17297SOL    HW153565   2.057   1.893   2.958 -0.4709  0.6664 -1.6537
17297SOL    HW253566   2.167   1.906   2.856  1.4214  0.5569  0.3001
17298SOL     OW53567   5.641   2.699   6.604 -0.9584  0.4676  0.4274
17298SOL    HW153568   5.675   2.610   6.613  0.2254  0.7705 -0.7374
17298SOL    HW253569   5.631   2.730   6.694  1.6725  0.2669  0.8452
17299SOL     OW53570   6.411   6.988   3.449 -0.2060  0.0572  0.0510
17299SOL    HW153571   6.484   7.013   3.506  0.8608 -0.8514 -0.8822
17299SOL    HW253572   6.396   7.066   3.395 -1.4515  1.0513  1.7413
17300SOL     OW53573   8.862   0.143   6.976 -0.0790 -0.5006  1.0559
17300SOL    HW153574   8.935   0.196   6.945  2.3331 -3.9172  0.3515
17300SOL    HW253575   8.874   0.139   7.071 -0.6712  0.6538  1.1975
17301SOL     OW53576   9.286   0.896   1.018  0.5114  0.0407 -0.1543
17301SOL    HW153577   9.349   0.827   0.997  0.5622 -0.2776  1.0066
17301SOL    HW253578   9.201   0.857   0.997  0.5892 -0.0964 -0.2211
17302SOL     OW53579   5.393   7.637   5.228 -0.7889  0.1059  0.1809
17302SOL    HW153580   5.383   7.705   5.294 -0.3265 -2.6492  3.3735
17302SOL    HW253581   5.475   7.659   5.182 -0.4947  1.5017  1.3220
17303SOL     OW53582   1.309   0.495   5.326  0.4724 -0.1220 -0.1089
17303SOL    HW153583   1.376   0.524   5.387  0.9078 -0.0424 -0.6192
17303SOL    HW253584   1.346   0.511   5.239 -0.4548  0.5228 -0.4069
17304SOL     OW53585   2.118   1.941   5.271 -0.3574  0.5205  0.6973
17304SOL    HW153586   2.107   2.027   5.230 -2.4543  0.0372  0.1624
17304SOL    HW253587   2.208   1.916   5.250 -0.7049  1.1969 -1.8961
17305SOL     OW53588   6.840   9.672   6.768  0.0170 -0.0073  0.3876
17305SOL    HW153589   6.857   9.590   6.815  1.5676 -0.6188 -1.1566
17305SOL    HW253590   6.757   9.657   6.723  0.7131 -1.1053 -0.5894
17306SOL     OW53591   0.508   7.872   8.039  0.2807  0.0566  0.0778
17306SOL    HW153592   0.583   7.894   7.984 -0.0953  0.8244 -0.1323
17306SOL    HW253593   0.461   7.805   7.990 -0.1929  0.9160 -0.6586
17307SOL     OW53594   4.875   7.202   4.714 -0.6422  0.4183  0.5910
17307SOL    HW153595   4.881   7.158   4.799 -0.6919  2.0247  1.4442
17307SOL    HW253596   4.894   7.132   4.651 -1.8740 -1.1192  1.8185
17308SOL     OW53597   1.281   1.863   3.108 -0.2329  0.2345  0.7750
17308SOL    HW153598   1.317   1.798   3.168 -0.1471 -0.8591 -0.4192
17308SOL    HW253599   1.357   1.916   3.083  0.2920 -1.0471 -0.4768
17309SOL     OW53600   1.213   9.036   0.683 -0.4911 -0.0354  0.2476
17309SOL    HW153601   1.243   9.034   0.773 -0.3708 -0.1813  0.2050
17309SOL    HW253602   1.135   8.981   0.682  0.1509 -0.9718  0.0344
17310SOL     OW53603   8.307   5.181   4.600  0.0034 -0.2615 -0.3608
17310SOL    HW153604   8.251   5.107   4.622 -0.0347 -0.2398 -0.3881
17310SOL    HW253605   8.395   5.143   4.593 -0.2516 -0.6335 -2.0842
17311SOL     OW53606   1.997   1.801   7.330 -0.5456 -0.1470  0.7460
17311SOL    HW153607   1.944   1.765   7.401  1.5879 -1.6082  1.6988
17311SOL    HW253608   1.967   1.755   7.252 -2.9715  1.5314  0.5693
17312SOL     OW53609   7.436   2.814   1.929  0.7313  0.8307  0.5316
17312SOL    HW153610   7.469   2.763   2.004 -0.7623  1.2834  1.5492
17312SOL    HW253611   7.343   2.795   1.927  0.8259  0.3899 -1.6124
17313SOL     OW53612   5.622   7.978   8.650  0.1378 -0.1516 -0.3813
17313SOL    HW153613   5.603   8.007   8.739 -1.0809  1.5378 -1.1308
17313SOL    HW253614   5.541   7.994   8.602  1.0558 -0.1477 -2.0040
17314SOL     OW53615   0.830   7.565   5.757 -0.4936 -0.6651 -0.5645
17314SOL    HW153616   0.870   7.630   5.700  1.4403 -0.4527  0.9461
17314SOL    HW253617   0.803   7.495   5.698 -0.6484  0.5358 -1.9681
17315SOL     OW53618   0.959   4.803   2.805  0.1108 -0.1224  0.0651
17315SOL    HW153619   1.043   4.842   2.780  1.5232 -0.9481  3.0062
17315SOL    HW253620   0.895   4.847   2.750  2.4567  0.3991 -2.4709
17316SOL     OW53621   7.958   6.860   1.510  0.6712 -0.2786 -0.2494
17316SOL    HW153622   8.035   6.859   1.567  0.5566  0.8975 -0.0389
17316SOL    HW253623   7.921   6.772   1.517  0.1357  0.0911  2.2269
17317SOL     OW53624   8.844   0.328   6.333 -0.2594  0.7431 -0.4651
17317SOL    HW153625   8.794   0.368   6.403 -0.2139 -0.1814  0.1050
17317SOL    HW253626   8.780   0.278   6.282  0.0576 -0.4693  0.2856
17318SOL     OW53627   5.101   1.957   9.473  0.2870 -0.1908  0.2659
17318SOL    HW153628   5.112   1.999   9.559 -1.3218  2.1013 -0.5469
17318SOL    HW253629   5.007   1.940   9.466  0.5693 -1.5527 -0.5398
17319SOL     OW53630   6.236   9.655   2.175  0.4576 -0.0382  0.4002
17319SOL    HW153631   6.260   9.666   2.267 -0.1086  0.2453  0.5187
17319SOL    HW253632   6.309   9.693   2.127  0.3715  0.5855  0.7492
17320SOL     OW53633   5.314   4.943   2.734  0.1710  0.9118  0.3014
17320SOL    HW153634   5.309   4.849   2.715 -0.1105  1.0418 -0.2803
17320SOL    HW253635   5.382   4.976   2.675  0.6153  0.9923  0.8513
17321SOL     OW53636   5.316   6.324   4.231 -0.4319  0.5670  0.6850
17321SOL    HW153637   5.349   6.378   4.302 -1.1210  2.0149 -0.0422
17321SOL    HW253638   5.390   6.269   4.206  0.9226  2.4808  0.2429
17322SOL     OW53639   2.483   0.474   0.731 -0.3016 -0.1619  0.3695
17322SOL    HW153640   2.462   0.493   0.822  0.1992 -0.5939  0.5799
17322SOL    HW253641   2.571   0.436   0.734 -0.0551  0.3200 -0.3455
17323SOL     OW53642   5.768   0.873   3.490 -0.4286 -0.6195 -0.5664
17323SOL    HW153643   5.823   0.889   3.413 -0.0694  0.6837 -0.0577
17323SOL    HW253644   5.699   0.815   3.458 -0.2712 -0.1314 -1.8560
17324SOL     OW53645   4.856   4.353   1.301  0.0429 -0.0050 -0.0721
17324SOL    HW153646   4.817   4.270   1.330 -4.3257  1.7296 -0.1489
17324SOL    HW253647   4.807   4.420   1.349  1.9308  2.6207 -1.5613
17325SOL     OW53648   9.088   8.095   1.479 -0.2858  0.2992 -0.0357
17325SOL    HW153649   9.105   8.030   1.411 -0.1358  0.0508  0.2361
17325SOL    HW253650   9.152   8.164   1.464 -1.4368  1.1402 -1.2789
17326SOL     OW53651   1.383   2.231   5.727  0.0852 -0.0410  0.3507
17326SOL    HW153652   1.361   2.263   5.640 -2.0448 -1.7639  0.1763
17326SOL    HW253653   1.303   2.245   5.779  0.5077 -1.2206  1.3648
17327SOL     OW53654   6.200   4.630   1.892 -0.1577 -0.1031 -0.2087
17327SOL    HW153655   6.165   4.576   1.821  0.2975  1.1804 -1.4470
17327SOL    HW253656   6.193   4.720   1.861  0.5732  0.4639  1.1474
17328SOL     OW53657   6.831   9.041   2.857 -0.3004 -0.0888 -0.2205
17328SOL    HW153658   6.737   9.057   2.861 -0.2823  0.1031 -0.6171
17328SOL    HW253659   6.855   9.053   2.765  0.5439  2.2724  0.2360
17329SOL     OW53660   7.175   8.034   0.263  0.5275 -0.2826  0.0537
17329SOL    HW153661   7.270   8.034   0.248  0.4254 -0.1249 -0.6113
17329SOL    HW253662   7.158   7.951   0.307  1.0060 -0.2128  0.3781
17330SOL     OW53663   5.454   4.950   2.024  0.3009 -0.1855 -0.0171
17330SOL    HW153664   5.535   4.933   2.071  1.6125  2.6320 -1.0210
17330SOL    HW253665   5.396   4.989   2.090  0.8608  0.5210  0.0702
17331SOL     OW53666   1.118   7.512   5.779 -0.3299  0.0268  0.4347
17331SOL    HW153667   1.056   7.572   5.739  0.2820  0.0758 -0.4637
17331SOL    HW253668   1.101   7.428   5.738  0.9157  0.2718 -0.6404
17332SOL     OW53669   6.008   9.192   9.211 -0.6396 -0.5009  0.3141
17332SOL    HW153670   6.092   9.238   9.207 -1.5136  1.2831  1.1752
17332SOL    HW253671   6.013   9.126   9.142  0.5426  1.1674 -1.2874
17333SOL     OW53672   0.358   3.785   0.601  0.2415 -0.8184  0.3516
17333SOL    HW153673   0.341   3.777   0.507 -0.1817  2.7786 -0.0070
17333SOL    HW253674   0.272   3.779   0.642 -0.4554  3.0045 -0.1491
17334SOL     OW53675   7.767   9.558   0.288  0.0041  0.1336  0.2917
17334SOL    HW153676   7.737   9.518   0.369 -1.4836 -0.5932 -0.5917
17334SOL    HW253677   7.840   9.502   0.259 -1.2561 -1.2564 -0.2883
17335SOL     OW53678   8.024   4.599   3.867 -0.3602 -0.1334  0.0082
17335SOL    HW153679   8.091   4.666   3.853  1.2592 -1.7400 -0.4041
17335SOL    HW253680   8.054   4.551   3.944 -0.6986 -1.2578 -0.5422
17336SOL     OW53681   8.302   5.774   0.313  0.5610  0.1315 -0.1591
17336SOL    HW153682   8.225   5.825   0.339  1.1693  0.4300  1.1295
17336SOL    HW253683   8.282   5.745   0.224 -0.1426  1.9630 -0.6495
17337SOL     OW53684   4.396   2.061   4.381 -0.1745  0.2779  0.6284
17337SOL    HW153685   4.306   2.057   4.348  0.2882  0.0862 -0.6985
17337SOL    HW253686   4.390   2.036   4.473 -1.7659  2.4015  1.1742
17338SOL     OW53687   1.028   9.005   5.345 -0.0264 -0.1099  0.1257
17338SOL    HW153688   1.090   9.020   5.416 -0.1782  2.0122 -0.1262
17338SOL    HW253689   0.985   8.922   5.367  2.2725 -1.2151  0.7330
17339SOL     OW53690   2.486   0.186   3.354  0.2024 -0.0444  0.0687
17339SOL    HW153691   2.533   0.265   3.383  1.3167  0.4070 -2.6606
17339SOL    HW253692   2.397   0.217   3.337 -0.1181 -0.0368  1.6438
17340SOL     OW53693   7.165   9.153   7.925  0.4084  0.1446  0.0327
17340SOL    HW153694   7.225   9.188   7.859 -0.4199 -0.2532 -0.9634
17340SOL    HW253695   7.163   9.219   7.993 -1.7414  2.5722 -2.1563
17341SOL     OW53696   4.190   5.427   6.744 -0.3230 -0.0150 -0.0270
17341SOL    HW153697   4.154   5.499   6.796 -0.2806  0.4468 -0.6244
17341SOL    HW253698   4.258   5.468   6.691  0.2714 -0.6582  0.2244
17342SOL     OW53699   6.813   8.223   2.396  0.2639  0.3587 -0.6843
17342SOL    HW153700   6.748   8.291   2.413  0.0089  0.1634 -0.8560
17342SOL    HW253701   6.835   8.233   2.303  1.2777  1.1047 -0.3774
17343SOL     OW53702   4.868   9.371   1.700 -0.5505 -0.3433 -0.0990
17343SOL    HW153703   4.828   9.458   1.701 -0.8351 -0.4204 -1.6473
17343SOL    HW253704   4.960   9.387   1.722 -0.6696  0.3100 -0.0497
17344SOL     OW53705   7.072   8.247   7.641  0.0679 -0.0048  0.5160
17344SOL    HW153706   7.099   8.212   7.726  0.3340 -1.4849 -0.1487
17344SOL    HW253707   7.090   8.341   7.647  2.8531 -0.4915  1.0634
17345SOL     OW53708   7.733   0.460   9.050  0.0451 -0.5256 -0.1767
17345SOL    HW153709   7.662   0.401   9.076 -0.5787  0.2124 -0.1794
17345SOL    HW253710   7.713   0.483   8.959 -0.3325  0.5652  0.1679
17346SOL     OW53711   4.143   1.988   0.924  0.0430 -0.3587  0.1893
17346SOL    HW153712   4.192   1.907   0.915 -0.9512 -0.8782 -0.8017
17346SOL    HW253713   4.116   1.990   1.016  0.9724 -0.5995  0.4763
17347SOL     OW53714   4.054   3.016   8.298  0.1474  0.2601  0.3220
17347SOL    HW153715   4.042   2.921   8.298 -0.9176  0.3624  1.5151
17347SOL    HW253716   4.117   3.032   8.368 -2.0202  0.6075  2.3382
17348SOL     OW53717   7.416   4.394   0.095 -0.0233 -0.1258  0.1863
17348SOL    HW153718   7.452   4.467   0.045  0.1716 -0.2018  0.2146
17348SOL    HW253719   7.323   4.413   0.102  0.1447  0.5213  0.8635
17349SOL     OW53720   5.103   3.291   0.219 -0.0381 -0.4035  0.3018
17349SOL    HW153721   5.037   3.279   0.151  0.2046 -0.4202  0.0664
17349SOL    HW253722   5.057   3.271   0.301  0.2892 -2.8629 -0.0270
17350SOL     OW53723   6.248   5.319   2.495  0.0233 -0.2705 -0.1528
17350SOL    HW153724   6.228   5.302   2.403 -2.2305 -0.7432  0.3547
17350SOL    HW253725   6.282   5.236   2.528  1.6181  0.1323 -0.7139
17351SOL     OW53726   2.910   6.480   9.244 -0.0071  0.3620 -0.3081
17351SOL    HW153727   2.846   6.550   9.246 -1.5122 -0.8591 -2.0319
17351SOL    HW253728   2.958   6.494   9.162  0.6118  0.1476  0.0094
17352SOL     OW53729   0.670   1.472   3.866 -0.1603  0.1036  0.7464
17352SOL    HW153730   0.582   1.455   3.900  0.2500 -3.0372  0.5874
17352SOL    HW253731   0.660   1.471   3.771  0.0016 -0.0351  0.7295
17353SOL     OW53732   6.314   2.204   3.295  0.0371 -0.3598 -0.1179
17353SOL    HW153733   6.325   2.109   3.298 -1.5353 -0.5503  1.7079
17353SOL    HW253734   6.243   2.218   3.232  0.2668 -0.4061 -0.3844
17354SOL     OW53735   3.122   4.492   7.959 -0.1440 -0.2581 -0.8060
17354SOL    HW153736   3.150   4.583   7.973 -1.9057  0.0593  1.1364
17354SOL    HW253737   3.088   4.492   7.869  0.8664  0.7071 -1.2174
17355SOL     OW53738   2.249   8.420   2.318 -0.2949  0.0986  0.2434
17355SOL    HW153739   2.184   8.487   2.296  0.1476  0.1082 -1.1209
17355SOL    HW253740   2.211   8.373   2.392 -0.7516  1.6613  1.0417
17356SOL     OW53741   4.722   7.145   5.155  0.1049  0.3612 -0.9085
17356SOL    HW153742   4.702   7.223   5.103  3.2177  1.1405 -1.1612
17356SOL    HW253743   4.787   7.176   5.219  2.4622 -2.1970 -1.8591
17357SOL     OW53744   2.851   2.595   2.426 -0.3379 -0.4291  0.2136
17357SOL    HW153745   2.787   2.530   2.395  0.3549 -0.9645 -0.1280
17357SOL    HW253746   2.869   2.569   2.516 -1.9180  0.7839  0.9199
17358SOL     OW53747   6.056   2.416   5.355 -0.3776 -0.1941 -0.1134
17358SOL    HW153748   6.147   2.400   5.380 -0.4532 -0.4371  0.0035
17358SOL    HW253749   6.006   2.400   5.435 -0.5541 -0.3349 -0.2519
17359SOL     OW53750   7.270   1.747   6.037  0.4097  0.7473  0.0442
17359SOL    HW153751   7.191   1.763   5.986 -0.2117 -0.2901  0.6412
17359SOL    HW253752   7.326   1.823   6.020 -0.3782  1.1103 -1.0140
17360SOL     OW53753   3.154   0.533   2.444 -0.1682  0.2434  0.3177
17360SOL    HW153754   3.089   0.589   2.486  0.0180  1.2943 -0.7277
17360SOL    HW253755   3.186   0.585   2.371  0.5745 -0.9554 -0.2386
17361SOL     OW53756   2.420   8.211   4.528 -0.2010 -0.2122 -0.2592
17361SOL    HW153757   2.364   8.272   4.480 -0.8919 -1.0047 -0.4627
17361SOL    HW253758   2.361   8.159   4.582  0.3427 -0.9291 -0.3277
17362SOL     OW53759   0.306   3.650   0.131  0.1436 -0.1721  0.1059
17362SOL    HW153760   0.355   3.714   0.079 -1.2203  0.6747 -0.1629
17362SOL    HW253761   0.268   3.590   0.067  1.3315 -1.2602  0.3493
17363SOL     OW53762   5.737   3.521   3.406  0.7052 -0.0876  0.1500
17363SOL    HW153763   5.675   3.471   3.354  1.4329  0.5662 -1.4279
17363SOL    HW253764   5.747   3.604   3.359  1.2984  0.5994  1.4215
17364SOL     OW53765   3.354   0.343   8.809 -0.1315 -0.0299  0.2850
17364SOL    HW153766   3.335   0.326   8.901 -1.1395 -0.2113  0.0608
17364SOL    HW253767   3.332   0.261   8.764  1.2244 -0.2446 -0.0131
17365SOL     OW53768   8.924   7.632   1.983  0.3128  0.1026  0.2194
17365SOL    HW153769   8.929   7.709   2.040  2.4421 -0.3019  0.6876
17365SOL    HW253770   8.941   7.559   2.042 -1.9740 -0.8048 -0.1662
17366SOL     OW53771   8.532   3.381   4.795  0.3469 -0.3375  0.1475
17366SOL    HW153772   8.557   3.347   4.709 -0.0194 -1.0420  0.3039
17366SOL    HW253773   8.530   3.303   4.851  1.2385  0.2147  0.9554
17367SOL     OW53774   3.991   1.491   8.049  0.3393  0.6053 -0.4081
17367SOL    HW153775   3.962   1.456   7.965 -1.6910  1.0250  0.0686
17367SOL    HW253776   3.987   1.416   8.109  1.8269  0.2955 -0.6574
17368SOL     OW53777   0.380   7.833   6.533  0.0113  0.0424 -0.0368
17368SOL    HW153778   0.344   7.910   6.490 -1.2896 -1.3763 -1.6073
17368SOL    HW253779   0.475   7.844   6.526 -0.1597  0.5560 -2.0385
17369SOL     OW53780   6.607   8.588   5.280 -0.6180 -0.8021  0.1661
17369SOL    HW153781   6.638   8.602   5.191 -1.6609 -3.0151 -0.6057
17369SOL    HW253782   6.574   8.674   5.307  1.3390  0.3538 -0.8610
17370SOL     OW53783   0.122   1.150   4.235  0.2422  0.5527 -0.3403
17370SOL    HW153784   0.151   1.118   4.321  0.3580 -3.4861 -1.6755
17370SOL    HW253785   0.046   1.205   4.255  0.0855 -0.4593  2.3458
17371SOL     OW53786   2.649   7.682   3.717  0.0791  0.7410  0.0851
17371SOL    HW153787   2.672   7.602   3.671  1.3350  0.7169  0.7041
17371SOL    HW253788   2.680   7.668   3.807 -1.4682  1.1461  0.7125
17372SOL     OW53789   1.727   8.625   0.038 -0.0631  0.1634 -0.3727
17372SOL    HW153790   1.764   8.537   0.045  0.6036  0.3290 -1.6158
17372SOL    HW253791   1.633   8.611   0.027 -0.1311 -0.3305  0.6798
17373SOL     OW53792   4.414   3.629   3.370 -0.7120  0.0533 -0.1136
17373SOL    HW153793   4.369   3.601   3.290 -0.9246  0.4910 -0.1512
17373SOL    HW253794   4.487   3.567   3.380 -0.7512 -0.0696 -0.5810
17374SOL     OW53795   1.851   9.351   1.229  0.0224 -0.3032  0.1041
17374SOL    HW153796   1.868   9.395   1.146 -1.7364  0.4460  0.0946
17374SOL    HW253797   1.758   9.327   1.225  0.0234 -0.6747  1.6458
17375SOL     OW53798   1.185   2.351   8.439 -0.2454  0.5327  0.1283
17375SOL    HW153799   1.229   2.415   8.495  0.0242  1.9772 -1.6236
17375SOL    HW253800   1.111   2.398   8.401 -0.5433 -0.4428 -0.5496
17376SOL     OW53801   5.968   5.719   7.338  0.6803  0.6568 -0.1241
17376SOL    HW153802   5.875   5.740   7.333  0.8392  1.0610 -2.7199
17376SOL    HW253803   6.003   5.779   7.404 -1.1826 -1.0286  2.6483
17377SOL     OW53804   6.143   6.731   7.021 -0.1745  0.5808  0.6073
17377SOL    HW153805   6.072   6.702   6.963  1.4017  0.9370 -1.6616
17377SOL    HW253806   6.180   6.650   7.056  0.4517  0.1542 -0.9647
17378SOL     OW53807   2.023   3.197   4.454  0.5160 -0.3305 -0.5143
17378SOL    HW153808   1.985   3.191   4.542 -0.7763 -0.2849 -1.0489
17378SOL    HW253809   2.100   3.254   4.465 -0.1031  0.3506  0.4416
17379SOL     OW53810   8.271   4.723   6.020  0.3626  0.2368 -0.0376
17379SOL    HW153811   8.284   4.683   5.934  1.3651  0.7664 -0.1545
17379SOL    HW253812   8.215   4.662   6.067 -0.9623  0.3703 -1.3684
17380SOL     OW53813   0.297   0.395   7.560  0.3717 -0.1827 -0.5257
17380SOL    HW153814   0.220   0.452   7.549  0.1015 -0.0406  1.6683
17380SOL    HW253815   0.264   0.320   7.610  1.2076 -1.2355 -1.4951
17381SOL     OW53816   7.600   7.052   8.888  0.0164 -0.4096  0.0360
17381SOL    HW153817   7.546   7.095   8.954 -0.7418 -0.8611 -0.2734
17381SOL    HW253818   7.684   7.098   8.892  0.4574 -1.2870  2.2193
17382SOL     OW53819   4.007   4.150   7.033  0.4595  0.1693  0.3457
17382SOL    HW153820   3.931   4.178   7.083 -0.2379  2.0798 -1.6752
17382SOL    HW253821   4.020   4.058   7.059 -1.4579  0.3046  1.9935
17383SOL     OW53822   8.168   0.697   0.092 -0.1328 -0.3631 -0.3048
17383SOL    HW153823   8.087   0.723   0.048  0.0441  2.6381  0.8859
17383SOL    HW253824   8.237   0.744   0.045  0.2450  1.4778  1.8852
17384SOL     OW53825   5.547   8.168   1.091  0.7901 -0.4346 -0.2446
17384SOL    HW153826   5.552   8.264   1.093  0.0177 -0.3424 -1.4488
17384SOL    HW253827   5.635   8.140   1.063  0.7020  0.0020 -1.0025
17385SOL     OW53828   2.753   7.966   3.320 -0.1607 -0.1732  0.2725
17385SOL    HW153829   2.815   7.995   3.253 -1.5085 -0.8071 -1.3471
17385SOL    HW253830   2.752   7.871   3.312 -0.2843 -0.2659  1.2774
17386SOL     OW53831   2.141   0.337   0.848  0.0481 -0.3660  0.3172
17386SOL    HW153832   2.195   0.351   0.771 -1.7764  0.1694 -0.9499
17386SOL    HW253833   2.182   0.265   0.895  1.2371 -0.6614 -1.1248
17387SOL     OW53834   2.139   7.817   4.126  0.2869  1.3803  0.0318
17387SOL    HW153835   2.181   7.887   4.076 -0.8399 -0.0866 -3.2865
17387SOL    HW253836   2.048   7.846   4.136 -0.1681  0.5136 -1.2982
17388SOL     OW53837   6.550   6.045   5.850  0.4927  1.0923  0.2802
17388SOL    HW153838   6.468   6.023   5.894  0.9594  1.7978  1.5309
17388SOL    HW253839   6.525   6.059   5.758  0.0490 -4.1419 -0.7180
17389SOL     OW53840   4.897   1.091   3.797  0.1279 -1.0985  0.0078
17389SOL    HW153841   4.915   1.071   3.705  1.7022  0.4129 -0.0629
17389SOL    HW253842   4.801   1.095   3.803 -0.0319  1.4585 -2.2358
17390SOL     OW53843   4.128   6.604   8.820 -0.0008 -0.2045 -0.4128
17390SOL    HW153844   4.128   6.513   8.790 -0.6283  0.0319 -1.1588
17390SOL    HW253845   4.097   6.599   8.911  0.1381 -0.7486 -0.3922
17391SOL     OW53846   4.905   7.129   0.422  0.1234  0.1871 -0.3440
17391SOL    HW153847   4.981   7.101   0.371  0.0459 -1.0842  0.2030
17391SOL    HW253848   4.887   7.218   0.391  1.3899  0.2440 -0.9845
17392SOL     OW53849   9.618   9.276   6.956  0.9829 -0.4903 -0.0817
17392SOL    HW153850   9.653   9.295   6.869  1.3931 -1.9337 -0.2645
17392SOL    HW253851   9.614   9.180   6.959 -2.2179 -0.4507  0.2216
17393SOL     OW53852   5.009   6.633   6.129 -0.3734 -0.5254 -0.2467
17393SOL    HW153853   5.095   6.591   6.119 -0.7897 -1.0768 -1.8906
17393SOL    HW253854   4.947   6.561   6.119 -1.0431 -0.0034  0.1050
17394SOL     OW53855   9.126   6.336   8.577  0.5632 -0.0828 -0.0509
17394SOL    HW153856   9.090   6.422   8.600  0.8549 -0.2735  1.1602
17394SOL    HW253857   9.090   6.276   8.641  0.5333 -0.8463 -0.7601
17395SOL     OW53858   3.708   2.651   6.334 -0.2140  0.5010  0.1012
17395SOL    HW153859   3.700   2.556   6.323  0.8540  0.1907  1.6671
17395SOL    HW253860   3.736   2.682   6.247  2.8362 -1.1062  0.3625
17396SOL     OW53861   3.394   5.563   5.604 -0.2053  0.3278  0.2284
17396SOL    HW153862   3.438   5.621   5.542  0.0194  1.2730  1.2449
17396SOL    HW253863   3.448   5.566   5.683 -1.3191  0.3705  1.0055
17397SOL     OW53864   0.228   4.287   3.493 -0.3386  0.1028 -0.1752
17397SOL    HW153865   0.189   4.223   3.553  2.7113 -0.5418  1.3343
17397SOL    HW253866   0.253   4.360   3.549 -1.3172  1.4579 -1.4385
17398SOL     OW53867   5.626   0.085   1.141  0.6439  0.0270 -0.5549
17398SOL    HW153868   5.587   0.157   1.190  0.4498 -1.0640  0.9577
17398SOL    HW253869   5.567   0.012   1.154  2.0422 -1.0633 -0.0220
17399SOL     OW53870   3.598   2.445   4.446 -0.1381  0.1395  0.1712
17399SOL    HW153871   3.636   2.529   4.420  0.6670 -0.1403  0.4116
17399SOL    HW253872   3.672   2.385   4.449 -0.9674 -1.1973 -2.3328
17400SOL     OW53873   2.894   0.077   1.580  0.0734 -0.2989  0.3135
17400SOL    HW153874   2.844  -0.002   1.558  1.4807 -1.4035  0.8785
17400SOL    HW253875   2.985   0.053   1.561  0.3965  1.7208 -0.9119
17401SOL     OW53876   0.881   3.306   3.865 -0.9214 -0.0853 -0.1798
17401SOL    HW153877   0.892   3.257   3.946 -0.5337  0.6296  0.2094
17401SOL    HW253878   0.823   3.252   3.812  0.5627 -1.6366 -0.3175
17402SOL     OW53879   1.370   4.451   3.974  0.1307  1.0683 -0.4332
17402SOL    HW153880   1.322   4.369   3.986  1.3969  0.3002 -0.5474
17402SOL    HW253881   1.460   4.425   3.956 -0.0960  2.2905 -4.4852
17403SOL     OW53882   7.913   5.600   5.799 -0.4027 -0.2039 -0.6372
17403SOL    HW153883   7.903   5.618   5.893  0.0901  1.4192 -0.8693
17403SOL    HW253884   7.878   5.512   5.788 -2.7948  0.4988  0.6507
17404SOL     OW53885   5.170   4.964   5.232  0.1410 -0.6443  0.0937
17404SOL    HW153886   5.264   4.952   5.224  0.2890  0.9081 -0.9031
17404SOL    HW253887   5.143   4.899   5.297  2.0064 -0.5929  0.9907
17405SOL     OW53888   9.518   6.715   5.912  0.1075 -0.5001 -0.2981
17405SOL    HW153889   9.601   6.764   5.913  1.6360 -2.9089  1.5687
17405SOL    HW253890   9.488   6.717   6.003  0.0960 -2.7209 -0.2033
17406SOL     OW53891   2.071   0.135   0.099 -0.6504  0.4446  0.0943
17406SOL    HW153892   2.047   0.103   0.013 -2.6707  0.7695  0.4796
17406SOL    HW253893   2.135   0.072   0.132  1.8168  1.4499 -2.4238
17407SOL     OW53894   6.229   2.703   9.310 -0.9519 -0.1663  1.0412
17407SOL    HW153895   6.212   2.650   9.388 -1.2794  1.2099  1.9236
17407SOL    HW253896   6.142   2.722   9.274 -0.8984  0.6678  1.3421
17408SOL     OW53897   2.619   2.281   1.899 -0.0844 -0.4130  0.5786
17408SOL    HW153898   2.635   2.371   1.926 -1.0521  0.3608 -1.1985
17408SOL    HW253899   2.533   2.260   1.937 -1.1670  0.4626 -1.2365
17409SOL     OW53900   8.268   8.526   5.157 -0.2842 -0.0616 -0.1363
17409SOL    HW153901   8.343   8.470   5.136 -1.0809 -0.5416 -1.9415
17409SOL    HW253902   8.232   8.551   5.072 -1.7045  0.8176  0.6707
17410SOL     OW53903   4.913   5.337   1.746 -0.2608  0.0031 -0.3574
17410SOL    HW153904   4.820   5.350   1.765 -0.0551 -1.6513  2.4203
17410SOL    HW253905   4.954   5.422   1.763 -1.1658  0.5880 -1.0392
17411SOL     OW53906   0.936   4.718   0.861  0.0334  0.3134 -0.2601
17411SOL    HW153907   0.860   4.767   0.893 -0.2847 -0.6336  0.4909
17411SOL    HW253908   0.987   4.782   0.811  0.5842  1.9238  2.1766
17412SOL     OW53909   8.323   8.610   5.402  0.0995 -0.3998 -0.3570
17412SOL    HW153910   8.308   8.601   5.308  0.1253  0.5400 -0.4598
17412SOL    HW253911   8.255   8.671   5.432 -1.4495 -2.5377  0.7000
17413SOL     OW53912   1.527   9.299   6.274  0.3880  0.1319  0.0724
17413SOL    HW153913   1.518   9.211   6.237  1.1267  0.9407 -2.2165
17413SOL    HW253914   1.438   9.326   6.295 -0.0989 -0.3277 -1.3250
17414SOL     OW53915   2.561   6.141   0.656  0.2231 -0.2233 -0.0375
17414SOL    HW153916   2.620   6.091   0.599  0.0177 -1.4255  0.7736
17414SOL    HW253917   2.520   6.075   0.711 -2.0030  0.5771 -0.6581
17415SOL     OW53918   5.696   5.629   2.238  0.1649  0.0720 -0.0611
17415SOL    HW153919   5.733   5.717   2.233 -1.0221  0.5749 -0.4018
17415SOL    HW253920   5.604   5.643   2.261  0.2253 -1.1443  1.0438
17416SOL     OW53921   0.523   2.951   2.845 -0.1663  0.3818  0.0989
17416SOL    HW153922   0.584   2.962   2.772  0.3125  0.3776  0.4906
17416SOL    HW253923   0.556   2.874   2.893 -0.3548  0.5074  0.4379
17417SOL     OW53924   2.940   7.082   3.552 -0.3967  0.0117  0.2680
17417SOL    HW153925   2.994   7.161   3.543  1.0173 -1.0148 -0.7028
17417SOL    HW253926   2.948   7.058   3.644 -0.1100  0.5072  0.3750
17418SOL     OW53927   5.032   1.023   2.255 -0.0908  0.3497 -0.4821
17418SOL    HW153928   5.054   1.028   2.348 -1.9060  1.3987 -0.0460
17418SOL    HW253929   5.022   1.115   2.229 -2.9361  0.0493 -0.7750
17419SOL     OW53930   9.442   4.104   1.738 -0.0375  0.5170 -0.1566
17419SOL    HW153931   9.484   4.037   1.682 -0.3607  1.2500 -1.2991
17419SOL    HW253932   9.359   4.064   1.764 -0.1828  0.4220 -0.7460
17420SOL     OW53933   1.014   5.375   7.093 -0.1746  0.5756  0.2729
17420SOL    HW153934   0.976   5.379   7.181  0.1527  0.2619  0.4324
17420SOL    HW253935   1.049   5.287   7.087  1.9420  1.3375  0.7306
17421SOL     OW53936   8.527   3.619   0.455 -0.1372 -0.1390 -0.1741
17421SOL    HW153937   8.503   3.710   0.442 -1.6282 -0.3079  0.9729
17421SOL    HW253938   8.612   3.609   0.413 -0.2535  1.6006 -0.8877
17422SOL     OW53939   5.580   2.204   8.652 -0.0759 -0.1707 -0.4131
17422SOL    HW153940   5.545   2.291   8.672 -0.5585 -0.7858  1.6797
17422SOL    HW253941   5.639   2.218   8.578 -0.4337  1.8701 -0.3655
17423SOL     OW53942   1.221   5.539   8.568  0.4089 -0.1621  0.1591
17423SOL    HW153943   1.275   5.607   8.526  0.9403 -0.3667  0.4926
17423SOL    HW253944   1.153   5.519   8.505 -0.2533  1.2831  0.3922
17424SOL     OW53945   3.399   9.011   5.615 -0.3013 -0.6355 -0.3662
17424SOL    HW153946   3.487   8.973   5.614  0.6564  1.4076 -1.6048
17424SOL    HW253947   3.413   9.104   5.634 -2.4225 -0.6059  1.5115
17425SOL     OW53948   5.825   2.024   5.775 -0.2477  0.2784  0.2578
17425SOL    HW153949   5.769   1.947   5.786  0.3638 -0.2334 -0.1174
17425SOL    HW253950   5.803   2.081   5.849 -0.1983 -0.5800  0.9512
17426SOL     OW53951   0.986   6.444   4.042 -0.0360  0.2426  0.2096
17426SOL    HW153952   0.998   6.537   4.058  0.4988  0.4865 -1.4218
17426SOL    HW253953   1.021   6.401   4.120 -1.7880  1.4103  1.7404
17427SOL     OW53954   0.242   4.734   8.377 -0.0854 -0.6887  0.1824
17427SOL    HW153955   0.234   4.752   8.471  1.8612 -0.0388  0.2599
17427SOL    HW253956   0.202   4.647   8.366  0.3180 -1.1097  1.7469
17428SOL     OW53957   5.591   7.882   5.053 -0.1467 -0.0461  0.5019
17428SOL    HW153958   5.681   7.897   5.024 -0.8280  1.3165 -1.0851
17428SOL    HW253959   5.573   7.791   5.030 -0.3288  0.6844 -2.6748
17429SOL     OW53960   0.617   3.954   7.558 -0.1284 -0.2084 -0.4369
17429SOL    HW153961   0.599   3.934   7.466 -2.1847  2.1256 -0.6558
17429SOL    HW253962   0.532   3.981   7.593  0.7038 -0.5495  2.0428
17430SOL     OW53963   6.873   5.463   3.512  0.1614 -0.0599 -0.1562
17430SOL    HW153964   6.798   5.404   3.505  2.5714 -3.2395 -1.4323
17430SOL    HW253965   6.863   5.504   3.598 -2.4822 -1.1062  0.1377
17431SOL     OW53966   0.220   0.054   1.826 -0.2256  0.2584 -0.1418
17431SOL    HW153967   0.147   0.070   1.766  0.2968 -0.3835 -0.9636
17431SOL    HW253968   0.196   0.102   1.905 -1.2885  0.4930 -0.5850
17432SOL     OW53969   5.418   2.146   6.452  0.2021  0.4106  0.2331
17432SOL    HW153970   5.479   2.085   6.409  0.5164  0.9616 -0.1175
17432SOL    HW253971   5.412   2.115   6.542  1.2681  0.5373  0.3637
17433SOL     OW53972   0.731   0.170   5.303 -0.0024 -0.1693 -0.8184
17433SOL    HW153973   0.717   0.097   5.363  1.6064 -0.1480 -0.3591
17433SOL    HW253974   0.749   0.130   5.219 -0.2144 -0.2655 -0.8177
17434SOL     OW53975   3.189   5.500   9.021  0.2497  0.0343  0.0691
17434SOL    HW153976   3.135   5.438   8.971  0.1327  0.3502 -0.1983
17434SOL    HW253977   3.136   5.520   9.098  0.8493 -1.2211  0.8412
17435SOL     OW53978   7.326   4.316   4.326 -0.2303  0.2201  0.3445
17435SOL    HW153979   7.359   4.313   4.415 -1.0653 -1.4220  0.6265
17435SOL    HW253980   7.341   4.228   4.291  0.7695  1.0303 -1.4103
17436SOL     OW53981   2.048   4.388   4.543  0.2436  0.2771  0.0660
17436SOL    HW153982   2.134   4.362   4.510  0.0417 -0.3852  0.0407
17436SOL    HW253983   1.997   4.408   4.464  0.0511 -0.3868  0.0108
17437SOL     OW53984   5.555   7.560   0.165 -0.0238  0.0566 -0.4766
17437SOL    HW153985   5.605   7.512   0.099  0.4708  0.7465 -0.6056
17437SOL    HW253986   5.494   7.495   0.200  1.6357 -1.0935  0.4099
17438SOL     OW53987   6.269   7.119   6.179 -0.2682  0.3320  0.1432
17438SOL    HW153988   6.321   7.069   6.242 -0.3382  1.4838  1.1377
17438SOL    HW253989   6.207   7.168   6.232 -0.7195  0.8807 -0.8651
17439SOL     OW53990   7.729   3.575   0.840 -0.1098 -0.3874  0.0300
17439SOL    HW153991   7.647   3.534   0.867  0.1394 -1.0384 -0.1785
17439SOL    HW253992   7.783   3.572   0.919 -0.6284  0.9484  0.4517
17440SOL     OW53993   0.538   4.382   1.193  0.1468  0.4699  0.1800
17440SOL    HW153994   0.495   4.460   1.159  0.2711  0.1698 -0.6754
17440SOL    HW253995   0.486   4.358   1.270  0.9195  2.1991  1.3301
17441SOL     OW53996   9.318   1.194   4.410  0.3707  0.4224 -1.0155
17441SOL    HW153997   9.244   1.164   4.357 -0.8770 -0.1823  0.9455
17441SOL    HW253998   9.349   1.115   4.455  0.7095  1.0609 -0.0838
17442SOL     OW53999   1.305   3.629   3.877  0.3665 -0.1605 -0.1716
17442SOL    HW154000   1.277   3.716   3.849  0.9779 -0.0942 -0.5914
17442SOL    HW254001   1.227   3.590   3.915 -0.7477 -0.5285 -2.6095
17443SOL     OW54002   9.477   2.371   5.943  0.4080 -0.1972 -0.2548
17443SOL    HW154003   9.397   2.322   5.922  0.5978  0.6056 -3.4351
17443SOL    HW254004   9.447   2.461   5.952  0.8465  0.0492 -1.0941
17444SOL     OW54005   6.279   5.103   4.007 -0.3219  0.4465  0.1884
17444SOL    HW154006   6.243   5.190   3.990  0.7291  0.6877 -0.9151
17444SOL    HW254007   6.264   5.055   3.926  1.1917  0.3470 -0.0505
17445SOL     OW54008   8.206   3.366   1.337 -0.4854 -0.6779  0.0345
17445SOL    HW154009   8.286   3.413   1.361 -0.8467  0.1336 -0.3230
17445SOL    HW254010   8.195   3.383   1.243  0.3394 -2.9368 -0.5576
17446SOL     OW54011   3.862   3.204   4.253  0.2970  0.0607 -0.4501
17446SOL    HW154012   3.858   3.189   4.347 -2.8927 -1.4109 -0.6827
17446SOL    HW254013   3.947   3.170   4.226  0.5777 -1.0532  1.6563
17447SOL     OW54014   6.565   5.523   9.650  0.6777  0.2126 -0.1583
17447SOL    HW154015   6.583   5.470   9.573  2.7591  1.6053 -0.7276
17447SOL    HW254016   6.469   5.519   9.660  0.3077  0.0911 -2.8864
17448SOL     OW54017   3.464   8.716   0.818  0.0756  0.2541 -0.3194
17448SOL    HW154018   3.558   8.695   0.817  0.0234  0.0128 -0.5021
17448SOL    HW254019   3.421   8.630   0.818 -0.1609  0.2720 -3.1391
17449SOL     OW54020   7.398   3.863   7.407 -0.3968  0.0757  0.6362
17449SOL    HW154021   7.332   3.833   7.470 -0.2216 -1.7954 -0.0170
17449SOL    HW254022   7.475   3.883   7.461 -1.0298  0.9492  1.2518
17450SOL     OW54023   0.082   7.974   3.863  0.0719 -0.1468  0.5496
17450SOL    HW154024   0.145   7.961   3.793  1.2313 -0.7445  1.6576
17450SOL    HW254025   0.060   7.886   3.893 -0.6472  0.0871  0.7401
17451SOL     OW54026   6.967   1.912   4.624 -0.0759 -0.7668  0.2306
17451SOL    HW154027   6.874   1.904   4.645 -0.1559 -0.4264  0.0160
17451SOL    HW254028   6.972   1.896   4.530 -0.1897  1.0645 -0.1368
17452SOL     OW54029   4.972   5.496   2.686  0.0900 -0.0268  0.4034
17452SOL    HW154030   4.938   5.586   2.684  0.1643  0.0192 -2.2140
17452SOL    HW254031   5.027   5.489   2.608 -0.4054 -2.5287  0.1824
17453SOL     OW54032   3.687   4.183   1.437  0.4190  0.2562 -0.5219
17453SOL    HW154033   3.622   4.241   1.477  1.2349  1.5284 -0.9799
17453SOL    HW254034   3.765   4.192   1.492  0.4705 -0.6457 -0.4349
17454SOL     OW54035   0.121   5.397   6.242  0.0814  0.6700 -0.2909
17454SOL    HW154036   0.062   5.350   6.183  1.8981  0.9349 -2.4652
17454SOL    HW254037   0.133   5.339   6.317 -0.6965 -0.6108 -1.1417
17455SOL     OW54038   1.412   5.625   9.498  0.2057  0.0784  0.1282
17455SOL    HW154039   1.441   5.591   9.583  0.9899  2.4624  0.9002
17455SOL    HW254040   1.453   5.712   9.492 -1.3317  0.7334 -1.8675
17456SOL     OW54041   9.157   6.557   0.698  0.6761  0.0892  0.0730
17456SOL    HW154042   9.148   6.607   0.617 -0.6014  0.0415  0.1627
17456SOL    HW254043   9.162   6.623   0.767  0.5499  0.1157  0.0567
17457SOL     OW54044   3.787   2.460   7.564  0.4170 -0.1078 -0.2936
17457SOL    HW154045   3.759   2.494   7.649 -0.7054 -1.1309 -0.2298
17457SOL    HW254046   3.733   2.506   7.501 -0.8288 -1.4155 -0.2324
17458SOL     OW54047   8.637   8.013   4.547 -0.2193 -0.6912 -0.6301
17458SOL    HW154048   8.541   8.023   4.549 -0.1875 -0.4127 -0.3059
17458SOL    HW254049   8.666   8.074   4.479 -0.1443  0.4545  0.3843
17459SOL     OW54050   5.050   1.412   3.294  0.7581  0.4160  0.6768
17459SOL    HW154051   5.121   1.472   3.275  1.1625 -0.9386 -2.7869
17459SOL    HW254052   4.980   1.436   3.233  0.6993 -2.1200 -0.3815
17460SOL     OW54053   3.642   7.627   6.660 -0.4224  0.1783 -0.2957
17460SOL    HW154054   3.586   7.659   6.589 -1.7071 -1.3240 -0.0062
17460SOL    HW254055   3.691   7.705   6.689 -2.7088  1.6867 -0.2324
17461SOL     OW54056   7.850   8.057   6.252  0.1458  0.3907  0.4903
17461SOL    HW154057   7.864   7.983   6.192 -0.1857 -0.5332  1.5134
17461SOL    HW254058   7.756   8.052   6.273  0.2819  0.6368  1.1624
17462SOL     OW54059   8.478   6.984   6.215  0.0544  0.0595  0.0148
17462SOL    HW154060   8.529   7.052   6.170 -1.5278  0.3347 -1.4740
17462SOL    HW254061   8.452   6.924   6.146 -1.0268 -0.4610  0.8401
17463SOL     OW54062   3.199   7.243   2.532  0.2015 -0.0755 -0.2403
17463SOL    HW154063   3.196   7.211   2.442  1.3525 -1.7985  0.2786
17463SOL    HW254064   3.260   7.317   2.528 -0.0419  0.0986 -0.9386
17464SOL     OW54065   8.052   4.600   3.497  0.2377 -0.8923  0.3918
17464SOL    HW154066   8.039   4.547   3.575 -1.0886  0.0505  0.8341
17464SOL    HW254067   8.004   4.553   3.428 -1.2177 -0.1152  0.8572
17465SOL     OW54068   8.014   5.329   1.871  0.4177  0.3102  0.2842
17465SOL    HW154069   7.999   5.332   1.965  0.3627  1.6452  0.2421
17465SOL    HW254070   8.058   5.411   1.850  0.9480 -0.2123 -0.7767
17466SOL     OW54071   4.802   8.741   1.269 -0.1794  0.3166  0.0079
17466SOL    HW154072   4.737   8.694   1.321 -0.6906  1.7384  0.6837
17466SOL    HW254073   4.884   8.726   1.316 -0.0604 -1.0613 -0.5737
17467SOL     OW54074   6.137   0.510   4.024 -0.1437  0.2156  0.3145
17467SOL    HW154075   6.194   0.457   3.967 -0.4722  0.4838 -0.2770
17467SOL    HW254076   6.175   0.599   4.018 -0.7767  0.4538 -0.3070
17468SOL     OW54077   7.454   1.136   2.207 -0.3777 -0.6274  0.4208
17468SOL    HW154078   7.430   1.179   2.289 -2.3272  1.6596 -1.2380
17468SOL    HW254079   7.545   1.162   2.193 -0.3847 -0.0800  1.2836
17469SOL     OW54080   3.417   2.798   3.153 -0.0451 -0.0834 -0.0729
17469SOL    HW154081   3.374   2.731   3.205  1.0164 -0.2395  0.6368
17469SOL    HW254082   3.411   2.877   3.206 -0.7522  0.2512 -0.6355
17470SOL     OW54083   1.437   0.481   4.197  0.7254 -0.0914 -1.1508
17470SOL    HW154084   1.368   0.516   4.141  0.5654 -0.7720 -1.3976
17470SOL    HW254085   1.517   0.488   4.144  0.5688 -0.7648 -1.4955
17471SOL     OW54086   2.349   8.870   9.632 -0.0305 -0.6343  0.1200
17471SOL    HW154087   2.275   8.906   9.584 -0.4665 -1.2026  0.3543
17471SOL    HW254088   2.375   8.939   9.693 -1.4272 -1.0185  1.2047
17472SOL     OW54089   9.509   9.577   1.661 -0.2264  0.1324 -0.3134
17472SOL    HW154090   9.534   9.663   1.694  1.3353 -0.1757 -0.6275
17472SOL    HW254091   9.507   9.520   1.739  0.2249  0.1206 -0.3121
17473SOL     OW54092   5.701   0.161   3.102 -0.1707 -0.7270 -0.2357
17473SOL    HW154093   5.796   0.157   3.103 -0.1759 -1.3849 -0.9759
17473SOL    HW254094   5.673   0.080   3.145 -0.4028 -0.3546  0.3250
17474SOL     OW54095   4.606   3.166   8.058 -0.3959  0.3519 -0.8204
17474SOL    HW154096   4.672   3.234   8.074 -1.0864  0.8691 -0.1163
17474SOL    HW254097   4.656   3.085   8.050  0.4955  1.0012 -2.1788
17475SOL     OW54098   6.690   9.360   2.710 -0.3626  0.2540  0.1278
17475SOL    HW154099   6.730   9.426   2.766  2.8252 -1.2151 -0.1939
17475SOL    HW254100   6.688   9.281   2.763  3.6471 -1.4493 -1.7848
17476SOL     OW54101   2.303   2.969   8.544 -0.3026 -0.0092  0.3179
17476SOL    HW154102   2.354   3.046   8.517  0.5098 -0.1082  1.4779
17476SOL    HW254103   2.240   3.003   8.607 -0.1668 -0.2384  0.5785
17477SOL     OW54104   2.837   6.832   1.299 -0.4076  0.1203  0.0625
17477SOL    HW154105   2.771   6.888   1.341 -0.9963 -0.0011 -0.6845
17477SOL    HW254106   2.792   6.749   1.286  0.9915 -1.1740  2.7931
17478SOL     OW54107   8.264   2.654   1.433  0.5130  0.0326 -0.7369
17478SOL    HW154108   8.172   2.654   1.456  1.3834 -0.9585  3.7609
17478SOL    HW254109   8.289   2.747   1.430 -0.5473  0.3059 -2.0940
17479SOL     OW54110   8.663   0.748   2.589 -0.4967  0.1622 -0.2649
17479SOL    HW154111   8.638   0.733   2.498 -0.4183  0.3241 -0.3149
17479SOL    HW254112   8.701   0.836   2.589 -0.1952  0.0334 -0.1377
17480SOL     OW54113   0.945   0.385   2.304  0.2094  0.0282  0.1517
17480SOL    HW154114   0.969   0.478   2.309 -0.9923  0.3282  0.7836
17480SOL    HW254115   0.894   0.378   2.223 -0.0179  0.0139  0.2929
17481SOL     OW54116   0.381   0.983   0.679  0.0512  0.2269 -0.3129
17481SOL    HW154117   0.392   1.075   0.702  0.2277 -0.3282  2.0964
17481SOL    HW254118   0.371   0.983   0.583  0.8598  2.6378 -0.4669
17482SOL     OW54119   6.993   0.962   2.298 -0.4886  0.0553 -0.4542
17482SOL    HW154120   6.950   0.887   2.257  1.5378 -1.4032 -0.0410
17482SOL    HW254121   7.086   0.946   2.286  0.0359  1.8597  0.8168
17483SOL     OW54122   7.000   6.178   8.895  0.8026  0.2834  0.2115
17483SOL    HW154123   6.909   6.186   8.923  0.3773  1.0325 -1.2709
17483SOL    HW254124   7.023   6.088   8.914 -0.5980 -0.2247 -0.3650
17484SOL     OW54125   5.241   3.450   6.799  0.1454 -0.1520  0.2407
17484SOL    HW154126   5.253   3.369   6.749  0.1755 -0.1951  0.3180
17484SOL    HW254127   5.183   3.503   6.745  0.0730 -0.2522  0.2205
17485SOL     OW54128   5.967   7.878   5.405  0.5386 -0.4476 -0.7992
17485SOL    HW154129   6.018   7.804   5.372 -1.7321 -3.2019  1.2815
17485SOL    HW254130   5.879   7.842   5.420 -0.3189  2.2657  1.7438
17486SOL     OW54131   4.311   9.385   9.282  0.1231  0.6646 -1.1496
17486SOL    HW154132   4.294   9.439   9.359  1.1987 -1.6622  0.8825
17486SOL    HW254133   4.233   9.396   9.227 -1.7741  0.6925  1.3589
17487SOL     OW54134   1.884   2.158   1.361 -0.1704 -0.4977  0.5534
17487SOL    HW154135   1.888   2.070   1.398  1.5856  0.0027  1.6495
17487SOL    HW254136   1.953   2.158   1.295 -1.4709 -0.5145 -0.8675
17488SOL     OW54137   7.295   5.983   7.400 -0.6351  0.5289  0.3995
17488SOL    HW154138   7.259   5.895   7.409  2.5718 -1.0152 -0.3550
17488SOL    HW254139   7.366   5.986   7.464  0.6133  1.7934 -0.9785
17489SOL     OW54140   2.125   7.632   5.444  0.0763  0.3970 -0.0363
17489SOL    HW154141   2.073   7.636   5.364 -0.1963  0.8955  0.1647
17489SOL    HW254142   2.216   7.632   5.414 -0.0262  0.7152 -0.3373
17490SOL     OW54143   8.534   4.356   2.389 -0.0219 -0.1666  0.4588
17490SOL    HW154144   8.537   4.262   2.369 -0.4863 -0.4457  1.6149
17490SOL    HW254145   8.507   4.360   2.480  0.5546  1.0882  0.5971
17491SOL     OW54146   7.505   4.432   8.595  0.0030 -0.0354  0.0512
17491SOL    HW154147   7.454   4.507   8.627  0.1036 -0.7266  1.9638
17491SOL    HW254148   7.466   4.412   8.510  0.4697  2.6411 -0.8922
17492SOL     OW54149   1.574   0.367   3.043 -0.3126 -0.1346 -0.8715
17492SOL    HW154150   1.505   0.411   3.091 -3.0872 -1.7720 -3.0431
17492SOL    HW254151   1.640   0.434   3.028 -0.2155  0.9613  3.1855
17493SOL     OW54152   6.865   7.099   5.298  0.2508  0.0803 -0.2732
17493SOL    HW154153   6.896   7.188   5.281  1.1092 -0.2425 -0.4030
17493SOL    HW254154   6.770   7.105   5.285  0.2758  1.0153 -0.1085
17494SOL     OW54155   3.622   1.724   0.074 -0.5584  0.1647  0.1403
17494SOL    HW154156   3.680   1.649   0.064 -0.6579  0.0317  0.5274
17494SOL    HW254157   3.546   1.703   0.019 -0.1119  0.4835 -0.6197
17495SOL     OW54158   0.851   6.171   4.900  0.3620  0.2614 -0.2979
17495SOL    HW154159   0.822   6.258   4.926 -1.4777 -0.3695 -0.0811
17495SOL    HW254160   0.849   6.120   4.981  0.7458 -0.1691 -0.5547
17496SOL     OW54161   2.789   0.835   5.579 -0.6113  0.2592  0.5278
17496SOL    HW154162   2.764   0.887   5.503 -0.7073 -0.0782  0.3225
17496SOL    HW254163   2.795   0.897   5.651  2.5071  1.1491 -0.3444
17497SOL     OW54164   7.644   1.077   2.750  0.1014  0.0673  0.0792
17497SOL    HW154165   7.561   1.123   2.735 -1.1653 -1.9636  0.4340
17497SOL    HW254166   7.689   1.082   2.666 -0.8013  0.3962 -0.3993
17498SOL     OW54167   0.842   9.474   6.364  0.7293 -0.0870 -0.1599
17498SOL    HW154168   0.788   9.415   6.312 -0.0313  0.5091 -0.0640
17498SOL    HW254169   0.930   9.465   6.328  0.6310 -1.3078 -0.1167
17499SOL     OW54170   4.861   0.883   4.558  0.5369  0.3657  0.1639
17499SOL    HW154171   4.890   0.834   4.481 -1.6787 -0.6173 -0.1101
17499SOL    HW254172   4.926   0.953   4.567  0.1847  1.3438 -3.4055
17500SOL     OW54173   2.369   1.711   6.350  0.0166 -0.6572 -0.4062
17500SOL    HW154174   2.309   1.699   6.423 -0.2393  0.9561 -0.3321
17500SOL    HW254175   2.315   1.700   6.272 -0.5938  1.5766 -0.3472
17501SOL     OW54176   1.359   6.370   4.112  0.1159  0.0554 -0.4909
17501SOL    HW154177   1.389   6.287   4.076  1.5424 -0.9539  2.6275
17501SOL    HW254178   1.263   6.364   4.110  0.1760 -0.6255 -2.4129
17502SOL     OW54179   9.183   8.674   5.766 -0.4042 -0.0444  0.1838
17502SOL    HW154180   9.222   8.720   5.840  0.7503  0.6808 -0.8207
17502SOL    HW254181   9.247   8.606   5.744 -2.2790 -2.5374  1.9106
17503SOL     OW54182   1.610   0.381   9.294  0.3531 -0.1567  0.0563
17503SOL    HW154183   1.526   0.390   9.250  1.1245  2.2565 -1.1108
17503SOL    HW254184   1.627   0.468   9.332  1.4401 -1.1334  1.9728
17504SOL     OW54185   6.988   1.755   0.047  0.3982 -0.4704 -0.1316
17504SOL    HW154186   7.050   1.749  -0.026  0.9471 -1.4336  0.3869
17504SOL    HW254187   7.032   1.711   0.120  0.1609  1.0836  1.0062
17505SOL     OW54188   7.739   9.467   5.181  0.1522 -0.1863 -0.5791
17505SOL    HW154189   7.668   9.435   5.125  1.6928 -0.8884 -2.2084
17505SOL    HW254190   7.776   9.541   5.134  1.6696 -0.9611 -0.6709
17506SOL     OW54191   7.636   7.756   0.664  0.9683  0.5975 -0.7397
17506SOL    HW154192   7.714   7.729   0.711  1.8235  2.0294 -1.2567
17506SOL    HW254193   7.646   7.851   0.654 -1.6358  1.1081  0.6113
17507SOL     OW54194   2.113   5.287   7.307 -0.2641 -0.1667 -0.2014
17507SOL    HW154195   2.070   5.241   7.378 -2.4011 -0.3340 -1.5040
17507SOL    HW254196   2.074   5.375   7.308 -1.1180 -0.4779 -1.7224
17508SOL     OW54197   2.768   4.855   4.623 -0.1079 -0.0760  0.5767
17508SOL    HW154198   2.700   4.789   4.641  0.3979 -1.4018 -1.8876
17508SOL    HW254199   2.777   4.853   4.528  4.1133 -0.7373  0.8191
17509SOL     OW54200   0.859   3.299   1.270 -0.5035  0.1956 -0.0399
17509SOL    HW154201   0.834   3.382   1.311 -0.7504 -0.1315  0.4830
17509SOL    HW254202   0.888   3.324   1.183 -0.6506  0.8272  0.0817
17510SOL     OW54203   1.514   3.579   3.706  0.1403 -0.2648 -0.0113
17510SOL    HW154204   1.461   3.506   3.674 -0.9225  0.7610 -0.6705
17510SOL    HW254205   1.454   3.629   3.761  0.9728 -0.0883  0.7556
17511SOL     OW54206   3.532   0.954   9.358  0.2062 -0.1934  0.0973
17511SOL    HW154207   3.610   1.006   9.338 -0.2661 -0.1661 -1.9314
17511SOL    HW254208   3.539   0.879   9.299 -1.1141 -0.3727  0.1549
17512SOL     OW54209   7.505   5.565   1.131 -0.5253 -0.5164 -0.0652
17512SOL    HW154210   7.525   5.567   1.225 -2.8076  2.2116  0.4846
17512SOL    HW254211   7.470   5.476   1.116  3.1535 -2.2735  0.7477
17513SOL     OW54212   0.552   5.016   2.465  0.4897  0.1231  0.1625
17513SOL    HW154213   0.497   5.043   2.391  1.4562 -0.0152 -0.6241
17513SOL    HW254214   0.585   4.929   2.440  0.8407  0.0826  0.7469
17514SOL     OW54215   5.782   4.084   3.589 -0.1444 -0.4354  0.0241
17514SOL    HW154216   5.782   4.072   3.494 -0.8436  3.1967 -0.5995
17514SOL    HW254217   5.856   4.143   3.605 -0.7966  0.0009  1.5446
17515SOL     OW54218   8.303   1.796   4.371 -0.3696 -0.3299 -0.4554
17515SOL    HW154219   8.273   1.846   4.296  0.8225 -0.0141 -0.7413
17515SOL    HW254220   8.395   1.778   4.353 -0.7719 -2.7484 -0.4303
17516SOL     OW54221   2.765   9.521   9.094 -0.8523  0.0526 -0.2474
17516SOL    HW154222   2.737   9.433   9.118 -0.5517 -0.0076 -0.1090
17516SOL    HW254223   2.734   9.577   9.166 -0.5991 -0.0197 -0.0773
17517SOL     OW54224   3.531   1.240   2.489  0.2385 -0.2527  0.4199
17517SOL    HW154225   3.504   1.291   2.412 -0.6528  1.3559  1.7425
17517SOL    HW254226   3.509   1.150   2.466 -0.2171  0.2101 -1.1141
17518SOL     OW54227   4.362   0.202   4.836  0.8968 -0.4245  0.2804
17518SOL    HW154228   4.358   0.285   4.788 -0.3030 -0.0074  1.0752
17518SOL    HW254229   4.385   0.228   4.926 -0.1147 -0.8787  0.6797
17519SOL     OW54230   5.412   0.171   3.079 -0.2892  0.0047 -0.5582
17519SOL    HW154231   5.376   0.117   3.148  0.4280 -0.1136 -0.2729
17519SOL    HW254232   5.372   0.257   3.093  1.3962  0.5557  1.2843
17520SOL     OW54233   0.043   5.587   4.929 -0.3089 -0.3948  0.3060
17520SOL    HW154234   0.074   5.590   5.019 -1.5088  0.1653  0.7181
17520SOL    HW254235   0.017   5.677   4.909  1.3433 -0.1822 -1.1346
17521SOL     OW54236   3.413   4.487   8.623 -0.0212  0.0148 -0.0887
17521SOL    HW154237   3.398   4.565   8.570 -1.4290  0.3990  0.8185
17521SOL    HW254238   3.416   4.415   8.560  2.2268  0.8329 -1.0423
17522SOL     OW54239   7.111   7.509   0.479  0.2151 -0.0028 -0.3620
17522SOL    HW154240   7.019   7.482   0.484 -0.0108  0.6056 -1.0887
17522SOL    HW254241   7.131   7.538   0.567 -0.2674 -0.2070 -0.1761
17523SOL     OW54242   2.554   7.162   4.516 -0.1576  0.9984 -0.6961
17523SOL    HW154243   2.524   7.120   4.597 -0.1342  0.3760 -1.0025
17523SOL    HW254244   2.497   7.127   4.448  0.4657  0.7398 -1.0979
17524SOL     OW54245   6.856   6.579   7.405  0.1957  0.3666  0.3644
17524SOL    HW154246   6.938   6.569   7.453 -0.5888  1.1318  1.9494
17524SOL    HW254247   6.877   6.554   7.315  1.4532 -2.2995  1.3123
17525SOL     OW54248   2.647   6.995   9.220  0.0499 -0.1979  0.2118
17525SOL    HW154249   2.735   6.981   9.187  0.5599 -1.1412  1.8287
17525SOL    HW254250   2.656   7.065   9.285 -0.6944  0.7831 -0.7167
17526SOL     OW54251   2.331   2.782   5.895  0.0370  0.1485  0.6454
17526SOL    HW154252   2.418   2.813   5.918  0.3956 -0.1844 -0.2313
17526SOL    HW254253   2.295   2.748   5.977  1.7487 -2.1489  0.5627
17527SOL     OW54254   3.714   1.391   1.000 -0.5137  0.2909 -0.0507
17527SOL    HW154255   3.770   1.396   1.077  0.7511  1.1741 -0.9864
17527SOL    HW254256   3.655   1.317   1.018  0.2768 -0.0359  1.3877
17528SOL     OW54257   5.216   9.318   5.887  0.2485 -0.9847  0.4673
17528SOL    HW154258   5.239   9.368   5.965 -0.1015 -1.9006  1.1785
17528SOL    HW254259   5.268   9.357   5.817  0.9111 -0.4409  1.2505
17529SOL     OW54260   5.556   6.919   2.168 -0.5720 -0.4060 -0.3358
17529SOL    HW154261   5.519   6.882   2.248  2.6887 -0.8420  1.1557
17529SOL    HW254262   5.499   6.993   2.147 -1.3415 -0.0106  2.6489
17530SOL     OW54263   3.388   6.364   6.557  0.3431  0.1938 -0.8085
17530SOL    HW154264   3.437   6.441   6.530  1.5963 -0.3077 -0.0511
17530SOL    HW254265   3.448   6.291   6.540 -0.2916 -0.4758 -0.2213
17531SOL     OW54266   2.738   4.693   3.843 -0.0129 -0.5158 -0.4247
17531SOL    HW154267   2.783   4.777   3.854 -2.6821  0.9503  0.2641
17531SOL    HW254268   2.646   4.713   3.862 -0.7544 -3.6253 -0.2584
17532SOL     OW54269   4.877   0.225   7.580  0.5839 -0.3205 -0.3715
17532SOL    HW154270   4.868   0.237   7.674  0.4727  0.4890 -0.4850
17532SOL    HW254271   4.792   0.189   7.552  0.3485  0.1662 -0.2827
17533SOL     OW54272   4.000   0.314   8.006  0.5001 -0.1066 -0.1855
17533SOL    HW154273   3.928   0.286   7.950  0.4572  0.0824 -0.2248
17533SOL    HW254274   3.960   0.328   8.092  0.4703  0.1020 -0.2337
17534SOL     OW54275   7.843   4.888   9.107  0.1362 -0.4672  0.2818
17534SOL    HW154276   7.920   4.838   9.133  0.5837 -1.8264 -3.1702
17534SOL    HW254277   7.769   4.844   9.150  0.9854 -0.9956  1.2275
17535SOL     OW54278   3.476   0.504   1.988 -0.0963  0.0704  0.1634
17535SOL    HW154279   3.435   0.561   1.924 -1.3362 -1.0584 -0.0955
17535SOL    HW254280   3.485   0.558   2.067  0.4167  1.1267 -0.6012
17536SOL     OW54281   8.313   1.638   1.531  0.4986 -0.4872  0.6313
17536SOL    HW154282   8.252   1.712   1.527 -0.1837 -1.0038  1.2150
17536SOL    HW254283   8.361   1.643   1.449  0.5970  0.7115  0.7324
17537SOL     OW54284   3.564   6.033   3.738  0.2150 -0.0658  0.0731
17537SOL    HW154285   3.631   6.092   3.704 -0.3218 -0.1425 -1.1631
17537SOL    HW254286   3.607   5.988   3.810  1.8130 -0.7635 -1.2471
17538SOL     OW54287   0.554   3.118   7.884 -0.3440 -0.3776 -0.0518
17538SOL    HW154288   0.551   3.033   7.840  1.1317 -0.0487 -0.8292
17538SOL    HW254289   0.479   3.166   7.848  1.0091  0.0164 -2.5782
17539SOL     OW54290   4.374   2.236   2.428 -0.0110 -0.2460  0.4856
17539SOL    HW154291   4.453   2.288   2.443  0.1820 -0.2894 -0.3174
17539SOL    HW254292   4.368   2.178   2.504  1.3479 -1.0025  0.0535
17540SOL     OW54293   3.643   1.894   9.434  0.7407  0.3411  0.0976
17540SOL    HW154294   3.719   1.927   9.481  1.0700 -0.9697  0.5200
17540SOL    HW254295   3.655   1.924   9.344 -0.1118  3.2543  0.8373
17541SOL     OW54296   7.383   9.242   3.950  0.1465  0.4114 -0.3917
17541SOL    HW154297   7.287   9.241   3.943 -0.1047  0.8268  2.1291
17541SOL    HW254298   7.402   9.311   4.014  2.0433 -0.5580  0.1581
17542SOL     OW54299   2.631   8.963   8.550  0.0700 -0.0703 -0.2258
17542SOL    HW154300   2.666   8.990   8.465  1.2971 -3.1373 -0.8223
17542SOL    HW254301   2.537   8.950   8.534  0.2661 -0.4973 -1.1035
17543SOL     OW54302   1.975   0.462   0.230 -0.5804  0.2674 -0.1956
17543SOL    HW154303   2.002   0.377   0.263  0.0598  0.5217 -0.0448
17543SOL    HW254304   1.970   0.517   0.308 -2.2936  0.0441 -0.1171
17544SOL     OW54305   0.929   1.074   4.482  0.9724 -0.5110 -0.1310
17544SOL    HW154306   0.957   0.993   4.525  0.3251 -1.0387 -0.6855
17544SOL    HW254307   0.834   1.069   4.479  0.8127  1.0138  1.2338
17545SOL     OW54308   3.443   8.080   1.194 -0.5180  0.5802  0.1160
17545SOL    HW154309   3.534   8.107   1.184  0.0254 -1.4076 -0.8329
17545SOL    HW254310   3.407   8.083   1.105 -0.2374 -2.2233 -0.1752
17546SOL     OW54311   6.824   2.307   1.697 -0.0598 -0.1161 -0.7755
17546SOL    HW154312   6.746   2.346   1.658 -1.3059  0.2022  1.8590
17546SOL    HW254313   6.819   2.214   1.674 -0.3684  0.1735 -1.9165
17547SOL     OW54314   7.966   9.037   7.486 -0.2729  0.4348 -0.2745
17547SOL    HW154315   8.031   8.968   7.497  0.7161  0.9319 -2.4232
17547SOL    HW254316   8.008   9.116   7.521 -1.0712  0.1562  1.3970
17548SOL     OW54317   6.878   8.985   1.927  0.0278  0.3577  0.1547
17548SOL    HW154318   6.959   9.033   1.942 -0.5233  2.1732 -2.1002
17548SOL    HW254319   6.809   9.040   1.964 -0.5122  0.8729 -1.5253
17549SOL     OW54320   3.376   2.138   5.859  0.3768 -0.1458  0.3714
17549SOL    HW154321   3.450   2.103   5.909  1.9507  1.4370 -0.7586
17549SOL    HW254322   3.372   2.230   5.884  1.7718  0.9451 -2.9197
17550SOL     OW54323   2.767   6.344   2.571 -0.8793 -0.5885  0.0912
17550SOL    HW154324   2.856   6.313   2.556 -0.9009  0.3975 -2.7151
17550SOL    HW254325   2.776   6.411   2.639  0.5169 -0.5058 -0.1461
17551SOL     OW54326   1.789   8.876   2.501  0.0583 -0.2214  0.2057
17551SOL    HW154327   1.748   8.792   2.520  1.9674 -1.3768 -0.5578
17551SOL    HW254328   1.875   8.871   2.542  0.2526  1.3226  0.0371
17552SOL     OW54329   2.862   6.767   0.386  1.0086  0.0615 -0.3348
17552SOL    HW154330   2.899   6.803   0.466  0.2154  1.0827 -0.4068
17552SOL    HW254331   2.905   6.816   0.316 -0.5366  1.3914 -0.4159
17553SOL     OW54332   5.278   5.007   3.659  0.4207 -0.3645 -0.0563
17553SOL    HW154333   5.194   5.036   3.624  0.7880  2.0026  0.8250
17553SOL    HW254334   5.325   4.972   3.583 -1.4376 -2.0618 -0.4992
17554SOL     OW54335   8.033   5.558   5.343 -0.3976 -0.0844  0.0252
17554SOL    HW154336   7.991   5.608   5.273 -0.4026 -0.0735  0.0363
17554SOL    HW254337   7.983   5.477   5.348 -2.3559  1.1456  2.0910
17555SOL     OW54338   2.371   3.164   9.322  0.1010 -0.1224 -0.3832
17555SOL    HW154339   2.390   3.109   9.398  1.0358  0.9342  0.1767
17555SOL    HW254340   2.438   3.139   9.257  0.3056  0.1004 -0.2594
17556SOL     OW54341   5.220   2.828   0.703 -0.1251 -0.3094  0.3176
17556SOL    HW154342   5.229   2.735   0.724 -0.7945 -0.3266  0.5643
17556SOL    HW254343   5.235   2.873   0.786  0.5876 -0.1673  0.1183
17557SOL     OW54344   1.679   1.343   6.487  0.2277 -0.0891 -0.1002
17557SOL    HW154345   1.616   1.290   6.438  0.7171 -0.2791 -0.5403
17557SOL    HW254346   1.703   1.413   6.427  0.6407 -0.1768 -0.0415
17558SOL     OW54347   2.353   9.375   2.818  0.5292  0.7139  0.0148
17558SOL    HW154348   2.358   9.363   2.913  0.1284  1.3042  0.1228
17558SOL    HW254349   2.360   9.470   2.806  3.6361  0.4836 -0.7719
17559SOL     OW54350   8.862   5.136   1.537  0.1991  0.1404 -0.5813
17559SOL    HW154351   8.774   5.175   1.531  0.0008 -0.3672 -1.0704
17559SOL    HW254352   8.899   5.172   1.618 -0.5120  0.2620 -0.3005
17560SOL     OW54353   9.108   7.236   0.891 -0.2662 -0.4867  0.1230
17560SOL    HW154354   9.184   7.270   0.844 -0.2108  0.1634  0.6648
17560SOL    HW254355   9.037   7.236   0.827 -0.5263  1.6211  0.3512
17561SOL     OW54356   3.702   3.915   1.944  0.5126  1.1017 -0.2063
17561SOL    HW154357   3.608   3.922   1.960  0.3579  0.1403 -0.5850
17561SOL    HW254358   3.709   3.891   1.852  1.0593 -0.1305  0.1330
17562SOL     OW54359   5.915   5.741   8.872  0.1268 -0.1708 -0.6785
17562SOL    HW154360   5.859   5.677   8.916  1.9708 -0.8518  0.8580
17562SOL    HW254361   5.903   5.724   8.778  0.0177 -2.3275 -0.3237
17563SOL     OW54362   0.795   4.522   5.537 -0.8769 -0.8892 -0.7989
17563SOL    HW154363   0.779   4.605   5.491 -0.8979 -0.6399 -0.3423
17563SOL    HW254364   0.890   4.509   5.530 -0.8350 -0.6874 -0.6419
17564SOL     OW54365   0.622   7.917   3.653  0.3040 -0.2817 -0.0657
17564SOL    HW154366   0.653   7.945   3.566  0.4826  1.5338  0.5394
17564SOL    HW254367   0.548   7.975   3.672 -0.8467 -1.7898  0.3127
17565SOL     OW54368   3.759   5.508   8.535  0.4684  0.4657 -0.3994
17565SOL    HW154369   3.731   5.476   8.621  0.3598  0.3577 -0.4735
17565SOL    HW254370   3.686   5.561   8.505 -0.1425 -0.7110 -1.0721
17566SOL     OW54371   5.476   2.509   8.093  0.0096 -0.1528 -0.7267
17566SOL    HW154372   5.429   2.593   8.095  2.0639  1.0705 -0.9001
17566SOL    HW254373   5.503   2.499   8.002  0.7940 -0.3855 -0.4805
17567SOL     OW54374   2.806   1.896   6.388  0.6350  0.7850 -0.2757
17567SOL    HW154375   2.901   1.891   6.400  0.7924  2.0546 -0.7866
17567SOL    HW254376   2.791   1.986   6.359 -0.8189  0.8400  0.5662
17568SOL     OW54377   5.344   3.117   9.236 -0.7586  0.5677  0.4759
17568SOL    HW154378   5.266   3.092   9.187 -0.7209  0.2024  0.5951
17568SOL    HW254379   5.405   3.150   9.170  0.4129 -2.6008 -0.2006
17569SOL     OW54380   6.499   3.323   7.996  0.0094 -0.1228 -0.2971
17569SOL    HW154381   6.578   3.312   7.943 -0.7193  0.6901 -1.6114
17569SOL    HW254382   6.435   3.360   7.936 -0.3103  2.7226  1.5774
17570SOL     OW54383   1.458   2.015   9.079  0.2261  0.1938  0.0314
17570SOL    HW154384   1.540   1.998   9.033  1.4780  1.9381  1.4274
17570SOL    HW254385   1.449   2.111   9.078 -1.9281  0.0467 -0.2539
17571SOL     OW54386   0.934   8.107   6.679  0.1577  0.1440  0.2857
17571SOL    HW154387   0.962   8.190   6.716  0.0109  0.6776 -0.7507
17571SOL    HW254388   0.844   8.123   6.650  0.9097  0.4478 -2.1697
17572SOL     OW54389   3.729   9.395   2.901 -0.0171  0.1370  0.0796
17572SOL    HW154390   3.801   9.458   2.900  1.1751 -1.1772 -1.7768
17572SOL    HW254391   3.650   9.449   2.915  0.7361  2.3166 -3.0850
17573SOL     OW54392   6.941   2.125   8.585  0.1712 -0.0009 -0.2937
17573SOL    HW154393   7.016   2.180   8.562 -0.1381  1.4371  1.9064
17573SOL    HW254394   6.980   2.048   8.627  0.5291 -1.0097 -2.3113
17574SOL     OW54395   4.649   2.687   8.777  0.8256 -0.3295  0.0796
17574SOL    HW154396   4.619   2.688   8.687 -1.3808 -1.6080  0.7402
17574SOL    HW254397   4.712   2.615   8.780  0.2144 -0.8826 -0.2407
17575SOL     OW54398   7.934   5.788   8.740  0.9611 -0.0553  0.4032
17575SOL    HW154399   7.877   5.819   8.669 -0.1948 -1.3723  0.7062
17575SOL    HW254400   7.901   5.833   8.817 -0.4041 -1.5531  0.7578
17576SOL     OW54401   3.482   2.792   2.850  0.1524  0.1799 -0.3654
17576SOL    HW154402   3.458   2.777   2.942  1.0891  1.0938  0.0503
17576SOL    HW254403   3.442   2.876   2.828 -0.2239 -0.1252 -0.8550
17577SOL     OW54404   6.532   5.870   5.380  0.0897  0.2704 -0.2620
17577SOL    HW154405   6.600   5.873   5.313  0.6479 -0.2763  0.2785
17577SOL    HW254406   6.461   5.819   5.339  0.5971 -0.4253 -0.2841
17578SOL     OW54407   2.138   7.620   3.378 -0.5554  0.1135 -0.4429
17578SOL    HW154408   2.212   7.594   3.324 -0.6791 -1.2563  0.0046
17578SOL    HW254409   2.176   7.672   3.449  0.1502 -1.4624  0.3808
17579SOL     OW54410   0.469   8.112   2.429  0.0547 -0.5759 -0.1966
17579SOL    HW154411   0.495   8.026   2.394  0.2598 -0.5492 -0.1085
17579SOL    HW254412   0.548   8.166   2.422  0.5705 -1.0122  1.7344
17580SOL     OW54413   7.184   5.978   3.264 -0.6074 -0.5451  0.1989
17580SOL    HW154414   7.125   5.910   3.233 -1.1111 -0.6532  1.3209
17580SOL    HW254415   7.254   5.930   3.308  1.1460 -0.4926 -2.3481
17581SOL     OW54416   1.882   9.244   2.929  0.0115  0.7391 -0.7348
17581SOL    HW154417   1.925   9.241   2.844  0.3165  0.7670 -0.5792
17581SOL    HW254418   1.863   9.336   2.943  2.2854  1.1063  0.3963
17582SOL     OW54419   3.366   9.521   2.676 -0.0746 -0.3374 -0.5403
17582SOL    HW154420   3.365   9.607   2.719 -0.2627  0.2374 -1.6596
17582SOL    HW254421   3.304   9.530   2.604  0.4759 -1.1673 -1.1326
17583SOL     OW54422   0.077   8.976   0.472 -0.2407 -0.5561  0.3160
17583SOL    HW154423   0.136   9.014   0.538 -0.2234 -0.7084  0.3895
17583SOL    HW254424  -0.011   8.990   0.508 -0.4258  1.7068 -0.8346
17584SOL     OW54425   2.168   7.331   2.589 -0.1475  1.1328 -0.2557
17584SOL    HW154426   2.134   7.307   2.676 -1.0203 -1.2685 -1.1723
17584SOL    HW254427   2.095   7.377   2.547 -0.7448 -0.1197 -0.6448
17585SOL     OW54428   1.213   3.850   1.231 -0.2130 -0.4652  0.3673
17585SOL    HW154429   1.246   3.926   1.280  1.4280 -2.3070  2.3477
17585SOL    HW254430   1.276   3.837   1.161 -1.2048  0.6931 -0.7943
17586SOL     OW54431   4.160   9.135   5.062 -0.1004  0.3918  0.2584
17586SOL    HW154432   4.177   9.205   5.125  0.2068  1.5440 -1.0495
17586SOL    HW254433   4.090   9.169   5.006  0.5537 -0.0286 -0.8510
17587SOL     OW54434   9.111   4.268   6.127  0.4689  0.3425 -0.0726
17587SOL    HW154435   9.173   4.342   6.126 -0.2852  0.9900  0.0143
17587SOL    HW254436   9.028   4.307   6.155  0.3386 -0.7613  1.1958
17588SOL     OW54437   7.492   1.671   8.548  0.3342 -0.1446 -0.1593
17588SOL    HW154438   7.553   1.685   8.476 -1.6720  2.9662 -1.5005
17588SOL    HW254439   7.438   1.597   8.519 -1.3560  1.9081 -2.7375
17589SOL     OW54440   8.835   8.753   8.154  0.2531  0.0814 -0.1083
17589SOL    HW154441   8.825   8.722   8.244  1.6344  0.0127  0.0333
17589SOL    HW254442   8.886   8.685   8.110  1.6022  1.1857 -0.3187
17590SOL     OW54443   6.221   6.025   4.400  0.4514  0.0850 -0.0230
17590SOL    HW154444   6.287   6.086   4.368  0.5619  0.0122  0.0627
17590SOL    HW254445   6.196   6.058   4.486  1.7771 -0.9379  0.7911
17591SOL     OW54446   1.609   7.831   7.734  0.6613 -0.4353 -0.1227
17591SOL    HW154447   1.563   7.910   7.703  0.1738 -0.2078  1.1166
17591SOL    HW254448   1.685   7.823   7.676  0.9168  1.1606 -0.0548
17592SOL     OW54449   4.127   1.662   8.397 -0.7120 -0.3766 -0.3947
17592SOL    HW154450   4.076   1.705   8.465  1.4538 -0.6365  1.5013
17592SOL    HW254451   4.195   1.726   8.374 -1.2280 -0.4097 -2.1469
17593SOL     OW54452   8.980   5.595   6.302 -0.8494  0.0667 -0.0484
17593SOL    HW154453   9.000   5.524   6.240 -3.1346  0.7625 -1.7080
17593SOL    HW254454   9.044   5.663   6.281 -0.4947 -0.3780 -0.4532
17594SOL     OW54455   7.484   3.553   6.687  0.0622  0.1646  0.5518
17594SOL    HW154456   7.457   3.485   6.748 -0.6608 -0.6961 -0.6679
17594SOL    HW254457   7.573   3.528   6.661 -0.1337 -0.2441  0.2465
17595SOL     OW54458   2.020   7.611   0.946  0.2716 -0.1847  0.6042
17595SOL    HW154459   2.003   7.671   0.874 -0.0738  0.3577  1.1232
17595SOL    HW254460   2.093   7.651   0.994  0.0703 -0.1907  0.9247
17596SOL     OW54461   9.449   4.988   9.553  0.1253 -0.7959 -0.0940
17596SOL    HW154462   9.398   4.925   9.604 -0.3353 -0.2657  0.1073
17596SOL    HW254463   9.398   5.069   9.556  0.8712 -0.3160 -0.0739
17597SOL     OW54464   7.356   1.105   2.650  0.7599  0.2413  0.3865
17597SOL    HW154465   7.262   1.117   2.640  1.0135  2.2074  0.0930
17597SOL    HW254466   7.394   1.146   2.572  1.9759  1.8927  1.7838
17598SOL     OW54467   4.442   2.372   4.389 -0.5180  0.2272  0.2069
17598SOL    HW154468   4.460   2.283   4.419 -0.2455  0.8977  2.1632
17598SOL    HW254469   4.347   2.380   4.392 -0.5739 -0.1191 -0.4088
17599SOL     OW54470   8.798   7.677   3.868 -0.4675  0.3371 -0.6659
17599SOL    HW154471   8.845   7.702   3.947 -0.9987 -3.4127  1.0709
17599SOL    HW254472   8.866   7.643   3.810 -0.3164  1.1468 -0.9727
17600SOL     OW54473   3.175   1.422   2.197  0.5333  0.7385  0.2291
17600SOL    HW154474   3.245   1.431   2.262  1.2480 -0.0017 -0.4037
17600SOL    HW254475   3.150   1.330   2.202 -1.2933  1.2423  1.3085
17601SOL     OW54476   8.328   0.316   3.591 -0.1523 -0.2764  0.0571
17601SOL    HW154477   8.391   0.298   3.522  0.7120  1.3611  0.3891
17601SOL    HW254478   8.339   0.243   3.653  1.7082  0.1742  0.3105
17602SOL     OW54479   1.799   0.702   1.562 -0.0736 -0.1856 -0.1052
17602SOL    HW154480   1.864   0.752   1.611  1.2687 -0.9186 -1.0818
17602SOL    HW254481   1.773   0.760   1.490  0.6962 -0.4793 -0.6281
17603SOL     OW54482   7.870   5.535   7.238  0.1586  0.6917 -0.1413
17603SOL    HW154483   7.799   5.479   7.271  0.7272 -0.3555 -0.6382
17603SOL    HW254484   7.843   5.624   7.262 -0.4903  0.1697  1.1995
17604SOL     OW54485   0.419   9.370   4.048  0.6529 -0.6228  0.1409
17604SOL    HW154486   0.503   9.327   4.035 -0.1716 -1.7358 -2.1239
17604SOL    HW254487   0.358   9.298   4.066 -0.6413 -0.5114 -3.1066
17605SOL     OW54488   4.658   5.679   2.198  0.2733  0.6111  0.3758
17605SOL    HW154489   4.711   5.604   2.225  1.7405  2.3742  2.7335
17605SOL    HW254490   4.587   5.640   2.146  1.7569 -2.2149  0.2545
17606SOL     OW54491   2.900   4.792   5.514  0.4133  0.7106 -0.2143
17606SOL    HW154492   2.865   4.708   5.543  0.5665 -0.7292 -3.7016
17606SOL    HW254493   2.995   4.782   5.519  0.4419  0.4099 -1.2417
17607SOL     OW54494   5.522   3.313   7.017  0.3141 -0.0105 -0.0511
17607SOL    HW154495   5.433   3.289   7.041  0.6558 -1.0929  0.2128
17607SOL    HW254496   5.512   3.377   6.947 -0.6729 -0.6750 -0.5387
17608SOL     OW54497   2.876   5.712   8.024  0.4266  0.3058  0.8160
17608SOL    HW154498   2.910   5.695   8.112 -0.4917 -1.1696  0.9180
17608SOL    HW254499   2.931   5.782   7.990  0.6940  1.0091  2.6192
17609SOL     OW54500   2.930   2.078   6.925 -0.1631 -0.7510  0.2601
17609SOL    HW154501   2.915   1.995   6.970 -0.5896 -0.7835  0.0592
17609SOL    HW254502   2.915   2.059   6.832 -0.0111 -0.5102  0.1831
17610SOL     OW54503   1.482   9.664   3.523  0.0364 -0.3169  0.4820
17610SOL    HW154504   1.445   9.719   3.592 -0.5801  0.0365 -0.1220
17610SOL    HW254505   1.492   9.723   3.448  1.3100 -0.5379  0.4576
17611SOL     OW54506   2.209   7.003   6.767  0.8381  0.1694  0.0804
17611SOL    HW154507   2.193   6.920   6.812  2.4620 -0.4065 -0.3181
17611SOL    HW254508   2.287   7.039   6.810  0.5330  1.1683 -0.1799
17612SOL     OW54509   2.157   7.259   2.893 -0.0505  0.0128 -0.0721
17612SOL    HW154510   2.238   7.215   2.865  0.3239 -0.9547  2.2619
17612SOL    HW254511   2.087   7.202   2.861 -0.0178  1.7258 -3.5991
17613SOL     OW54512   1.453   4.734   2.492  0.5624 -0.1338 -0.3818
17613SOL    HW154513   1.536   4.782   2.480  0.9592  0.1373  2.6322
17613SOL    HW254514   1.459   4.661   2.431  3.4286 -0.5697  0.2510
17614SOL     OW54515   2.750   0.781   2.375  0.1076 -0.1640 -0.5044
17614SOL    HW154516   2.685   0.817   2.314  0.6807  0.2151 -0.9007
17614SOL    HW254517   2.736   0.829   2.456 -1.3544 -1.3774  0.0185
17615SOL     OW54518   6.122   1.721   8.140 -0.3082  0.2217 -0.4148
17615SOL    HW154519   6.187   1.762   8.197 -0.4706  0.1857 -0.2027
17615SOL    HW254520   6.062   1.792   8.118 -0.5085  0.1334 -0.1635
17616SOL     OW54521   6.746   8.815   5.559 -0.2984  0.4430  0.1664
17616SOL    HW154522   6.680   8.809   5.491 -0.0084 -0.1817 -0.0756
17616SOL    HW254523   6.697   8.811   5.641 -0.4567 -3.4655  0.0960
17617SOL     OW54524   1.960   1.045   8.182  0.0537  0.1265  0.1505
17617SOL    HW154525   1.908   1.122   8.158  0.7650  0.5966  0.0998
17617SOL    HW254526   1.928   0.977   8.123  1.3893  1.1271 -1.8299
17618SOL     OW54527   6.712   0.441   2.250  0.1589 -0.1125 -0.4589
17618SOL    HW154528   6.801   0.410   2.268  0.2613  0.6103  0.3616
17618SOL    HW254529   6.657   0.399   2.316  0.1534  0.6749  0.0537
17619SOL     OW54530   5.810   0.483   9.140  0.1471 -0.2802 -0.1420
17619SOL    HW154531   5.892   0.496   9.188 -0.6041  1.3630  0.7586
17619SOL    HW254532   5.775   0.401   9.175  0.8856 -0.4510  0.2229
17620SOL     OW54533   6.516   4.038   0.684 -0.3622  0.3086  0.1469
17620SOL    HW154534   6.462   4.031   0.763  1.3787 -0.6183  1.3236
17620SOL    HW254535   6.540   3.948   0.663  0.8413  0.6969 -0.2442
17621SOL     OW54536   5.544   2.654   3.038  0.4861  0.7422 -0.1570
17621SOL    HW154537   5.478   2.615   2.981 -0.1818 -0.0935  1.1431
17621SOL    HW254538   5.532   2.748   3.029 -2.2799  0.6535  1.5546
17622SOL     OW54539   9.610   0.749   0.683  0.5978  0.1059 -0.0185
17622SOL    HW154540   9.680   0.743   0.618  0.4244  0.4610 -0.2398
17622SOL    HW254541   9.591   0.842   0.690  0.7891  0.0909  0.7316
17623SOL     OW54542   3.447   5.785   2.350 -0.9030 -0.3682  0.0479
17623SOL    HW154543   3.379   5.852   2.362 -2.1983 -1.7718  0.8239
17623SOL    HW254544   3.399   5.703   2.344  0.7997 -1.6005  2.0427
17624SOL     OW54545   7.823   4.197   6.920 -0.2494  0.3403  0.1489
17624SOL    HW154546   7.754   4.133   6.940  0.3389 -0.7131 -1.0087
17624SOL    HW254547   7.904   4.150   6.937  0.1939  0.9845 -0.1512
17625SOL     OW54548   4.221   5.198   1.281 -0.0226 -0.3997  0.4795
17625SOL    HW154549   4.156   5.267   1.280 -0.1116 -0.3330  3.0985
17625SOL    HW254550   4.252   5.196   1.372  2.9633 -1.0443 -0.4485
17626SOL     OW54551   4.123   2.147   8.614  0.4803 -0.2710 -0.3239
17626SOL    HW154552   4.189   2.197   8.566 -0.0503  0.2302 -0.5420
17626SOL    HW254553   4.165   2.124   8.697  0.6792  0.6897 -0.1479
17627SOL     OW54554   9.332   2.640   3.262 -0.1866 -0.1739  0.0729
17627SOL    HW154555   9.373   2.645   3.348 -0.0071  0.7924 -0.0562
17627SOL    HW254556   9.313   2.547   3.250 -1.8820 -0.1302  1.9074
17628SOL     OW54557   6.288   7.808   0.068  0.0369  0.2022  0.0740
17628SOL    HW154558   6.209   7.858   0.089  0.0244  1.5284 -2.5896
17628SOL    HW254559   6.360   7.858   0.108 -0.3177 -0.1421  1.1709
17629SOL     OW54560   4.188   9.668   7.441 -0.2026 -0.8259 -0.0768
17629SOL    HW154561   4.158   9.578   7.427 -1.4089 -0.5942  0.8450
17629SOL    HW254562   4.109   9.721   7.432  0.4418  0.1062 -0.2891
17630SOL     OW54563   0.947   8.868   9.241 -0.0858  0.4135  0.2833
17630SOL    HW154564   1.024   8.813   9.231 -0.0968  0.3304  0.6428
17630SOL    HW254565   0.880   8.826   9.186  0.0495  0.3518  0.1641
17631SOL     OW54566   0.112   4.588   3.147 -0.0039  0.4621 -0.4923
17631SOL    HW154567   0.054   4.664   3.142 -1.0742 -0.1503  1.4520
17631SOL    HW254568   0.079   4.528   3.081 -0.5493  0.7902 -0.5239
17632SOL     OW54569   8.128   7.767   2.994  0.5106  0.0231 -0.1020
17632SOL    HW154570   8.101   7.834   2.931  0.1431  0.7593  0.8164
17632SOL    HW254571   8.065   7.695   2.981 -1.6894  1.4965  1.6427
17633SOL     OW54572   7.128   2.588   3.914  0.0869 -0.3082 -0.0566
17633SOL    HW154573   7.151   2.565   3.824 -0.8442  2.3611 -1.0838
17633SOL    HW254574   7.034   2.568   3.920 -0.0043  0.1542  0.0783
17634SOL     OW54575   2.230   9.034   0.359  0.0721  0.0985  0.0985
17634SOL    HW154576   2.319   9.011   0.386  1.0712  0.9565 -2.1656
17634SOL    HW254577   2.207   8.968   0.293  0.0087  1.1638 -0.9971
17635SOL     OW54578   3.372   4.440   1.383  0.3321  0.1246 -0.3107
17635SOL    HW154579   3.374   4.533   1.405 -1.7703  0.3655 -0.9917
17635SOL    HW254580   3.412   4.435   1.296 -0.6402  0.5720 -0.7930
17636SOL     OW54581   5.714   0.503   1.669 -0.2172 -0.4927 -0.2354
17636SOL    HW154582   5.657   0.428   1.654  0.7056 -0.7565 -2.9785
17636SOL    HW254583   5.800   0.464   1.685  0.1543 -0.0619 -1.1168
17637SOL     OW54584   0.370   0.934   9.651 -0.1551 -0.6361  0.2379
17637SOL    HW154585   0.465   0.930   9.659 -0.2304  0.1769  1.8017
17637SOL    HW254586   0.338   0.942   9.741 -1.5680  1.5559 -0.3808
17638SOL     OW54587   3.765   6.680   4.002  0.3103 -0.0004  0.0427
17638SOL    HW154588   3.791   6.705   3.914 -0.4824  1.1879  0.1226
17638SOL    HW254589   3.706   6.605   3.990  0.9770 -0.4686 -0.3585
17639SOL     OW54590   2.262   8.030   5.530 -0.6398 -0.1536  0.1948
17639SOL    HW154591   2.185   8.086   5.522 -1.6689 -1.4236  0.7185
17639SOL    HW254592   2.251   7.986   5.614  0.0324 -1.2553 -0.2708
17640SOL     OW54593   6.297   9.445   5.599 -0.4001 -0.2273 -0.2412
17640SOL    HW154594   6.283   9.476   5.688 -0.3220  0.2382 -0.3859
17640SOL    HW254595   6.359   9.508   5.561 -0.6957 -0.2222 -0.7319
17641SOL     OW54596   4.593   0.496   8.543  0.1309 -0.7081  0.7264
17641SOL    HW154597   4.684   0.467   8.552  0.1725 -0.5178  0.9203
17641SOL    HW254598   4.547   0.450   8.613  0.5797  1.3147  2.4747
17642SOL     OW54599   7.809   5.346   2.520 -0.2898 -0.3796 -0.2290
17642SOL    HW154600   7.889   5.294   2.516  0.2717  0.3908  0.3957
17642SOL    HW254601   7.838   5.430   2.557 -1.0225  0.6404 -1.8916
17643SOL     OW54602   1.112   1.118   2.602 -0.4218  0.4562 -0.0605
17643SOL    HW154603   1.092   1.108   2.509 -0.2605  1.3936 -0.2053
17643SOL    HW254604   1.136   1.029   2.631  0.4762  0.3241 -1.1344
17644SOL     OW54605   6.364   8.177   8.475 -0.3893 -0.3771  0.3047
17644SOL    HW154606   6.337   8.269   8.473 -1.2679 -0.6103  0.6805
17644SOL    HW254607   6.298   8.132   8.422  0.6723 -0.6506 -0.8369
17645SOL     OW54608   8.453   1.144   4.966 -0.3805 -0.5068 -0.1275
17645SOL    HW154609   8.424   1.164   4.877  0.2873  1.7601  0.0927
17645SOL    HW254610   8.537   1.189   4.975 -1.4473  1.2678  2.3199
17646SOL     OW54611   7.296   9.551   9.037  0.4821 -0.2234  0.4727
17646SOL    HW154612   7.290   9.472   9.091  0.0167 -0.7948 -0.3941
17646SOL    HW254613   7.238   9.534   8.963  0.9230  0.6502 -0.0891
17647SOL     OW54614   3.246   3.223   9.579  0.1619  0.6782  0.0657
17647SOL    HW154615   3.203   3.230   9.665 -0.5388  0.3120 -0.2525
17647SOL    HW254616   3.175   3.208   9.517  0.6332  1.2844 -0.6330
17648SOL     OW54617   2.778   5.763   5.801 -0.2874  0.3849 -0.7757
17648SOL    HW154618   2.796   5.669   5.800 -1.8336  0.0533 -2.4182
17648SOL    HW254619   2.851   5.802   5.751  0.1609  0.0221 -0.4072
17649SOL     OW54620   3.940   8.139   5.528  0.8234  0.2621  0.2507
17649SOL    HW154621   3.959   8.226   5.565  0.2694  0.6181 -0.2822
17649SOL    HW254622   3.924   8.155   5.436 -1.4289 -0.0816  0.5250
17650SOL     OW54623   9.634   3.126   5.092 -0.2770  0.7264 -0.5030
17650SOL    HW154624   9.618   3.101   5.001  0.0216 -0.8272 -0.1624
17650SOL    HW254625   9.547   3.122   5.133 -0.3192  0.8158 -0.5834
17651SOL     OW54626   1.003   3.704   1.133 -0.0334  0.3828  0.5088
17651SOL    HW154627   0.966   3.774   1.079 -0.0621 -0.0136  0.0063
17651SOL    HW254628   1.056   3.750   1.198 -0.8519  0.9279  0.8094
17652SOL     OW54629   9.462   6.845   7.143  0.3945  0.0423 -0.1516
17652SOL    HW154630   9.387   6.785   7.135 -1.1409  1.7924  0.3920
17652SOL    HW254631   9.491   6.857   7.052 -1.1731  0.7157 -0.6103
17653SOL     OW54632   1.236   5.956   1.184 -0.1891  0.3215  0.2681
17653SOL    HW154633   1.259   5.908   1.104 -3.5128  1.9892 -1.9146
17653SOL    HW254634   1.295   6.031   1.184  2.6277 -1.7075  1.7927
17654SOL     OW54635   7.299   9.426   5.097  0.8209  0.1681  0.0344
17654SOL    HW154636   7.247   9.502   5.071  0.4204 -0.0809  0.0955
17654SOL    HW254637   7.267   9.355   5.041 -0.8319 -0.6507  1.8694
17655SOL     OW54638   5.222   6.057   2.609  0.3057 -0.7926 -0.4232
17655SOL    HW154639   5.291   5.991   2.611 -0.6790 -1.8509  1.4718
17655SOL    HW254640   5.142   6.007   2.590 -0.1112  0.2487 -1.5072
17656SOL     OW54641   5.449   2.528   1.507  0.6258  0.3863  0.0856
17656SOL    HW154642   5.518   2.591   1.521  0.8794 -0.1951  1.5959
17656SOL    HW254643   5.443   2.519   1.411  2.7515  0.3059 -0.0769
17657SOL     OW54644   9.147   0.883   4.908  0.3687 -0.1967 -0.1016
17657SOL    HW154645   9.061   0.859   4.873  1.1690 -3.5494 -0.0550
17657SOL    HW254646   9.127   0.934   4.986 -1.5510  0.0837 -0.7248
17658SOL     OW54647   7.586   3.972   3.912  0.7605 -0.6761  0.1112
17658SOL    HW154648   7.643   4.014   3.977  0.7540 -2.9164  1.6988
17658SOL    HW254649   7.521   4.038   3.891  0.4783  0.0411  2.8073
17659SOL     OW54650   2.724   9.217   9.405  0.6975  0.0093 -0.0660
17659SOL    HW154651   2.704   9.157   9.477  3.7618 -0.3295  0.6168
17659SOL    HW254652   2.764   9.293   9.447  1.1968  0.4425 -1.2900
17660SOL     OW54653   9.384   7.240   6.546 -0.8059 -0.1237 -0.2398
17660SOL    HW154654   9.470   7.220   6.509  0.1885  1.1711  1.2129
17660SOL    HW254655   9.383   7.336   6.552 -1.4303 -0.2141  1.7809
17661SOL     OW54656   3.078   2.740   3.949 -0.2262 -0.4168 -0.0517
17661SOL    HW154657   3.079   2.692   4.032 -0.8232  0.8094  0.6899
17661SOL    HW254658   3.079   2.672   3.882  0.7869 -1.4242  0.9476
17662SOL     OW54659   2.168   1.025   8.414 -0.1074 -1.0330 -0.4814
17662SOL    HW154660   2.102   1.038   8.482  0.0959  0.7895 -0.5586
17662SOL    HW254661   2.118   1.010   8.334 -0.4171 -0.7794 -0.3391
17663SOL     OW54662   2.296   3.260   3.987  0.4574  0.0369  0.3593
17663SOL    HW154663   2.310   3.200   4.060 -0.9004  0.9988  1.4591
17663SOL    HW254664   2.229   3.218   3.934  0.1616  0.1556  0.6370
17664SOL     OW54665   7.735   9.389   5.624 -0.8145  0.5511 -0.8047
17664SOL    HW154666   7.757   9.298   5.643 -2.7687  0.4205  1.1912
17664SOL    HW254667   7.820   9.432   5.611  0.1871 -1.2944 -0.6454
17665SOL     OW54668   3.452   5.624   0.586 -0.1414  0.2514 -0.1540
17665SOL    HW154669   3.529   5.594   0.634  1.2226 -0.3127 -2.5312
17665SOL    HW254670   3.394   5.547   0.583  0.8321 -0.4700 -1.3872
17666SOL     OW54671   1.002   2.977   7.034  0.4257 -0.0267 -0.0859
17666SOL    HW154672   1.065   2.911   7.064  0.0785  0.1983  1.1902
17666SOL    HW254673   0.922   2.927   7.017 -0.2754  0.2086  2.2557
17667SOL     OW54674   3.380   1.104   8.731  0.2040  0.3695  0.0359
17667SOL    HW154675   3.390   1.156   8.652 -1.0082  1.3994  0.5327
17667SOL    HW254676   3.453   1.131   8.787 -0.9488  2.3863  0.7017
17668SOL     OW54677   0.488   4.699   3.573  0.0290  0.4814  0.1354
17668SOL    HW154678   0.479   4.639   3.499 -1.1268  0.2623  0.4444
17668SOL    HW254679   0.481   4.644   3.650  3.1667  0.3921  0.5021
17669SOL     OW54680   3.529   1.070   5.792 -0.1140  0.4905  0.5229
17669SOL    HW154681   3.462   1.137   5.779 -0.0278  0.7124  1.1982
17669SOL    HW254682   3.485   0.987   5.772 -0.0915  0.7737 -0.7884
17670SOL     OW54683   0.415   0.384   4.498  0.4945 -0.4691 -0.4563
17670SOL    HW154684   0.340   0.386   4.438  0.4952  2.0234 -0.5018
17670SOL    HW254685   0.475   0.450   4.463  1.1457  0.0466  1.4800
17671SOL     OW54686   9.584   6.510   0.410  0.1929 -1.0437 -0.1743
17671SOL    HW154687   9.615   6.425   0.442 -0.5963 -2.2773 -2.4316
17671SOL    HW254688   9.664   6.561   0.395  0.6387 -1.0456  1.9927
17672SOL     OW54689   4.367   5.504   2.706  0.1542  0.4008 -0.3558
17672SOL    HW154690   4.343   5.597   2.714 -0.0394  0.2947  0.3634
17672SOL    HW254691   4.293   5.466   2.658 -0.5197  0.3354  0.6897
17673SOL     OW54692   1.680   6.547   5.574  0.5140 -0.1310  0.0545
17673SOL    HW154693   1.664   6.466   5.526  0.6816 -1.7243  2.4843
17673SOL    HW254694   1.773   6.565   5.560  0.4055 -0.1667 -0.7521
17674SOL     OW54695   4.029   1.063   6.308  0.3058 -0.1308  0.0776
17674SOL    HW154696   4.034   1.008   6.229 -0.1970 -1.9082  1.2129
17674SOL    HW254697   4.077   1.142   6.285  2.1880 -1.5667 -1.2464
17675SOL     OW54698   9.377   4.584   7.782  0.0600 -0.3373 -0.3513
17675SOL    HW154699   9.292   4.565   7.743 -1.2780 -0.1927  2.2325
17675SOL    HW254700   9.393   4.676   7.763 -0.8846 -0.0972 -0.0301
17676SOL     OW54701   2.124   6.179   3.343 -0.1369  0.0218  0.1598
17676SOL    HW154702   2.166   6.111   3.396  0.6497  0.7426  0.4703
17676SOL    HW254703   2.191   6.246   3.331 -0.4213  0.0870 -1.3831
17677SOL     OW54704   5.130   2.474   2.171  0.1033  0.5918 -0.0986
17677SOL    HW154705   5.137   2.558   2.127  0.0470  0.0993 -1.0590
17677SOL    HW254706   5.078   2.420   2.112  0.5594 -0.2717  0.2718
17678SOL     OW54707   8.171   9.374   6.147 -0.2759  0.4336  0.0747
17678SOL    HW154708   8.147   9.412   6.062  0.2417  0.7851  0.0820
17678SOL    HW254709   8.104   9.307   6.163  0.1001 -0.2238 -0.9955
17679SOL     OW54710   6.087   2.776   1.256 -0.1125 -0.1963  0.9644
17679SOL    HW154711   6.118   2.686   1.241  0.3489 -0.0318  0.9042
17679SOL    HW254712   6.165   2.822   1.287  1.1176  1.4262 -3.6682
17680SOL     OW54713   5.215   0.377   7.275 -0.3733 -0.2374 -0.1458
17680SOL    HW154714   5.225   0.426   7.193  0.9192 -0.0185  0.1077
17680SOL    HW254715   5.213   0.445   7.342  0.1263 -0.4654  0.1092
17681SOL     OW54716   3.272   6.199   4.902  0.0925 -0.3829 -0.0033
17681SOL    HW154717   3.321   6.263   4.852  0.6914 -0.8931 -0.0821
17681SOL    HW254718   3.270   6.235   4.991 -2.5018  1.4141 -0.6591
17682SOL     OW54719   2.241   5.559   0.837  0.1277  0.0657 -0.2069
17682SOL    HW154720   2.272   5.487   0.781  0.8929 -0.6555  1.0858
17682SOL    HW254721   2.277   5.638   0.796 -3.1291  0.1802 -3.3512
17683SOL     OW54722   0.108   7.446   7.669 -0.1220  0.4602  0.3869
17683SOL    HW154723   0.140   7.405   7.750  1.5995  0.5315 -0.2099
17683SOL    HW254724   0.030   7.396   7.646  0.1844 -0.4887  1.3256
17684SOL     OW54725   9.411   5.335   1.617  0.3258  0.1217  0.1276
17684SOL    HW154726   9.476   5.274   1.583  0.9149  0.6273  0.3415
17684SOL    HW254727   9.444   5.361   1.702  1.4787  2.7862 -1.0199
17685SOL     OW54728   1.848   1.093   3.340  0.1094 -0.1598 -0.0507
17685SOL    HW154729   1.874   1.140   3.261 -0.5681 -2.4157 -1.7234
17685SOL    HW254730   1.795   1.156   3.390  2.8276  2.2178  0.0429
17686SOL     OW54731   0.475   1.430   4.068  0.1630 -0.3454 -0.2662
17686SOL    HW154732   0.413   1.487   4.113  0.6493  0.0465 -0.0805
17686SOL    HW254733   0.446   1.341   4.088 -1.3631 -0.1943 -1.6074
17687SOL     OW54734   2.696   4.047   0.025  0.0680 -0.3420  0.6835
17687SOL    HW154735   2.639   4.120   0.004 -0.4642 -1.0439 -0.4695
17687SOL    HW254736   2.734   4.068   0.110  0.4167  1.5539  0.0998
17688SOL     OW54737   8.986   3.824   1.201  0.1168  0.3491 -0.0584
17688SOL    HW154738   9.047   3.785   1.264  0.0061  1.6918  0.9204
17688SOL    HW254739   9.042   3.853   1.129  0.3813 -0.2473 -0.0966
17689SOL     OW54740   4.871   1.393   8.195 -0.1002 -0.0242  0.7436
17689SOL    HW154741   4.883   1.348   8.278 -1.2744  1.2101  1.6247
17689SOL    HW254742   4.896   1.329   8.129 -0.8336 -1.6432  1.9687
17690SOL     OW54743   3.134   8.148   3.934  0.5741 -0.2410 -0.1820
17690SOL    HW154744   3.078   8.149   4.012 -1.0439 -0.1156 -1.2850
17690SOL    HW254745   3.120   8.234   3.894  0.3607 -0.7677 -1.2784
17691SOL     OW54746   0.508   3.212   1.607 -0.1688 -0.2322  0.3404
17691SOL    HW154747   0.573   3.146   1.584  0.7339  0.4221  0.9582
17691SOL    HW254748   0.470   3.180   1.689  1.9990  1.1476  2.0028
17692SOL     OW54749   2.284   3.029   4.165 -0.3596 -0.0960 -0.0545
17692SOL    HW154750   2.328   3.044   4.249 -0.2306  1.1375 -0.3376
17692SOL    HW254751   2.192   3.021   4.188 -0.0684 -2.8180  0.5595
17693SOL     OW54752   2.976   8.566   2.005 -0.1084  0.1430  0.4522
17693SOL    HW154753   3.043   8.539   1.942  0.0876 -0.1134  0.7689
17693SOL    HW254754   2.935   8.485   2.034 -0.5066  0.2921  0.3183
17694SOL     OW54755   2.856   9.494   1.329 -0.0596 -0.1929  0.0345
17694SOL    HW154756   2.859   9.411   1.281  1.9905 -0.3909  0.3912
17694SOL    HW254757   2.764   9.507   1.350 -0.5220 -1.9706 -0.7385
17695SOL     OW54758   5.890   2.638   5.186 -0.0141 -0.0182 -0.0787
17695SOL    HW154759   5.823   2.696   5.149 -0.3839 -0.4060 -0.0244
17695SOL    HW254760   5.844   2.556   5.204  0.0719  0.2775  1.6139
17696SOL     OW54761   8.774   8.339   7.826 -0.2833  0.2848  0.2148
17696SOL    HW154762   8.746   8.348   7.735 -1.3511  0.8720  0.5799
17696SOL    HW254763   8.804   8.248   7.833 -1.5225 -0.1937 -0.3847
17697SOL     OW54764   1.514   5.826   4.993 -0.7567 -0.2702 -0.1464
17697SOL    HW154765   1.531   5.920   4.985  1.4771 -0.7209 -1.6056
17697SOL    HW254766   1.446   5.809   4.928  1.5326 -0.2026 -2.7257
17698SOL     OW54767   3.835   7.853   3.249  0.3059 -0.4043  0.0769
17698SOL    HW154768   3.786   7.829   3.328  0.2243 -1.8815 -0.3779
17698SOL    HW254769   3.915   7.894   3.280  0.3107 -1.0502  0.9377
17699SOL     OW54770   5.660   1.472   7.281  0.2944  0.2222  0.3718
17699SOL    HW154771   5.686   1.502   7.194 -0.7173  0.0746 -0.0038
17699SOL    HW254772   5.635   1.551   7.328  1.8518  0.4196  0.9069
17700SOL     OW54773   4.505   7.439   5.817 -0.0136 -0.2732 -0.0312
17700SOL    HW154774   4.592   7.400   5.804  0.7841  0.8865  1.5549
17700SOL    HW254775   4.471   7.451   5.728  1.6386 -0.3507 -0.7030
17701SOL     OW54776   8.453   0.955   5.288 -0.0353  0.6113  0.4545
17701SOL    HW154777   8.400   1.034   5.279 -0.7055  0.3569  1.9711
17701SOL    HW254778   8.404   0.887   5.241 -1.0989  0.3703  1.8686
17702SOL     OW54779   1.292   4.024   5.950 -0.1532  0.1178  0.4205
17702SOL    HW154780   1.280   4.068   5.865 -2.6084 -2.3358 -0.6472
17702SOL    HW254781   1.203   4.010   5.982  0.6027 -1.8506  1.8471
17703SOL     OW54782   6.834   2.835   4.864  0.0684 -0.0276 -0.2729
17703SOL    HW154783   6.891   2.883   4.804 -0.3293  1.5266  0.5422
17703SOL    HW254784   6.776   2.784   4.806  0.6036  0.3347 -1.1550
17704SOL     OW54785   3.009   6.943   6.844  0.1476  0.9166  0.0726
17704SOL    HW154786   2.929   6.956   6.895  1.0251  0.5294  1.6147
17704SOL    HW254787   3.022   7.025   6.797 -1.0668  1.0331 -0.0838
17705SOL     OW54788   2.007   0.236   2.903 -0.2057  0.0892  0.0284
17705SOL    HW154789   1.922   0.215   2.941 -1.1193  0.1933 -1.8420
17705SOL    HW254790   2.058   0.273   2.976 -1.1716 -1.4845  1.5702
17706SOL     OW54791   4.515   0.774   2.134  0.1205 -0.2654  0.1657
17706SOL    HW154792   4.468   0.745   2.056  0.5393 -0.0107 -0.1896
17706SOL    HW254793   4.529   0.694   2.185  0.5177 -0.5643 -0.3948
17707SOL     OW54794   7.830   3.520   5.824  0.5050  0.0721 -0.0066
17707SOL    HW154795   7.816   3.489   5.735  2.6907  0.3562 -0.5104
17707SOL    HW254796   7.857   3.442   5.872 -0.5648 -0.0592  0.4100
17708SOL     OW54797   7.029   7.092   8.325  0.3590  0.2028 -0.3718
17708SOL    HW154798   7.103   7.066   8.381  0.4966  2.0093  0.3375
17708SOL    HW254799   6.951   7.068   8.376  0.4848  1.0929  0.2621
17709SOL     OW54800   6.674   8.690   0.290 -0.2110 -0.5861 -0.6315
17709SOL    HW154801   6.711   8.653   0.210 -1.4280 -0.7351 -1.1578
17709SOL    HW254802   6.586   8.718   0.264  0.3696  2.0232 -0.0779
17710SOL     OW54803   0.833   4.843   3.931 -0.2018 -0.0813  0.3508
17710SOL    HW154804   0.760   4.835   3.992 -0.0476 -0.5939  0.4802
17710SOL    HW254805   0.896   4.899   3.977 -0.0980 -0.4418  0.6602
17711SOL     OW54806   9.666   6.633   3.689  0.0197 -0.2367  0.7021
17711SOL    HW154807   9.603   6.704   3.701 -0.2746 -0.2039 -0.8401
17711SOL    HW254808   9.738   6.654   3.749 -0.4520  0.8939  0.8926
17712SOL     OW54809   1.824   6.086   8.107 -0.5362 -0.0442 -0.2480
17712SOL    HW154810   1.844   6.095   8.014  0.2527 -0.7534 -0.1574
17712SOL    HW254811   1.857   6.167   8.146  0.1865 -0.2425 -0.4275
17713SOL     OW54812   1.294   0.561   4.484  0.1561 -0.3863  0.4051
17713SOL    HW154813   1.370   0.612   4.511  1.7765 -2.2379 -0.3541
17713SOL    HW254814   1.304   0.478   4.530 -1.3214 -0.7336  0.1394
17714SOL     OW54815   7.976   1.747   3.576 -0.0205 -0.0901  0.0614
17714SOL    HW154816   7.922   1.672   3.601 -1.5553  0.2724 -1.8858
17714SOL    HW254817   8.028   1.716   3.502 -0.4848  0.6548 -0.6024
17715SOL     OW54818   2.787   5.950   3.856 -0.2802  0.3947  0.1239
17715SOL    HW154819   2.822   5.924   3.941  0.0073  0.3607 -0.0054
17715SOL    HW254820   2.844   6.021   3.828 -0.1203  0.1224 -0.2361
17716SOL     OW54821   4.026   4.030   1.775  0.3026  0.0089  0.5603
17716SOL    HW154822   4.082   4.036   1.852  0.6377 -1.9667  0.5109
17716SOL    HW254823   4.042   3.943   1.739 -0.9037  0.3461 -0.9399
17717SOL     OW54824   5.473   9.200   4.935 -0.3957 -0.0020 -0.2430
17717SOL    HW154825   5.514   9.121   4.900  1.7356  0.6289  0.6645
17717SOL    HW254826   5.392   9.210   4.885  0.4462 -1.4703 -1.9802
17718SOL     OW54827   1.123   1.493   4.523  0.4201 -0.5949 -0.1887
17718SOL    HW154828   1.068   1.571   4.518  1.0446 -0.1906 -0.9450
17718SOL    HW254829   1.150   1.489   4.615  1.3355  0.7589 -0.3746
17719SOL     OW54830   7.728   2.452   2.812  0.1612  0.2761 -0.3187
17719SOL    HW154831   7.634   2.457   2.793  0.1300  1.0881  0.0141
17719SOL    HW254832   7.733   2.402   2.893 -0.1265  1.7743  0.6496
17720SOL     OW54833   0.588   8.677   7.520  0.3256  0.2672 -0.6670
17720SOL    HW154834   0.648   8.602   7.513 -1.1068 -0.9800 -0.0262
17720SOL    HW254835   0.559   8.676   7.612 -1.5962  0.0766 -1.2369
17721SOL     OW54836   0.539   8.424   9.311  0.0227  0.7956 -0.0775
17721SOL    HW154837   0.506   8.474   9.236 -2.2572 -1.0747 -0.4366
17721SOL    HW254838   0.545   8.489   9.381 -1.9537  1.8054 -0.7477
17722SOL     OW54839   6.614   8.376   9.257 -0.1829 -0.1125 -1.4372
17722SOL    HW154840   6.631   8.320   9.182 -0.2788 -1.9992 -0.1148
17722SOL    HW254841   6.668   8.341   9.327  0.4183  2.0113 -0.7576
17723SOL     OW54842   3.197   4.778   7.951  0.4903 -0.5680  0.2386
17723SOL    HW154843   3.275   4.823   7.918  0.4059  0.3794  1.2938
17723SOL    HW254844   3.200   4.792   8.046 -1.7917  0.8419  0.1696
17724SOL     OW54845   5.520   3.642   6.570 -0.2540 -0.3408 -0.1970
17724SOL    HW154846   5.555   3.725   6.603 -0.1810  0.0649 -1.2491
17724SOL    HW254847   5.428   3.660   6.552 -0.7215 -1.0383  1.3320
17725SOL     OW54848   2.923   3.977   5.109  0.3737 -0.1499 -0.2199
17725SOL    HW154849   2.836   3.968   5.149  0.2814 -0.0798 -0.4024
17725SOL    HW254850   2.939   3.893   5.066 -0.0078  0.1523 -0.9757
17726SOL     OW54851   0.319   5.521   3.198  0.9228  0.0439  0.5559
17726SOL    HW154852   0.329   5.482   3.111  1.4254  1.5985 -0.1207
17726SOL    HW254853   0.407   5.515   3.237  1.3735  1.6993 -0.1145
17727SOL     OW54854   2.254   0.530   3.537  0.3581  0.4103 -0.3275
17727SOL    HW154855   2.190   0.488   3.594  0.7697  1.3745  0.9142
17727SOL    HW254856   2.236   0.495   3.450 -0.1078 -1.3505  0.4305
17728SOL     OW54857   2.536   3.337   0.952  0.0666 -0.4389 -0.0355
17728SOL    HW154858   2.535   3.428   0.924 -0.1032 -0.5221 -0.3078
17728SOL    HW254859   2.560   3.340   1.045  1.2166 -0.1971 -0.3240
17729SOL     OW54860   2.061   4.664   7.347  0.4520  0.0730 -0.2291
17729SOL    HW154861   2.004   4.590   7.370  3.6594 -2.6266 -0.2043
17729SOL    HW254862   2.144   4.644   7.389  2.3602  2.1946 -2.6604
17730SOL     OW54863   6.437   4.655   6.067 -0.1611  0.2737  0.4237
17730SOL    HW154864   6.479   4.604   5.997 -0.2914 -1.0904  1.2960
17730SOL    HW254865   6.428   4.743   6.031 -0.3632 -0.4276 -1.3370
17731SOL     OW54866   3.460   7.184   0.255  0.2612 -0.0535  0.5713
17731SOL    HW154867   3.545   7.228   0.249  0.1654  0.5373  2.6197
17731SOL    HW254868   3.396   7.254   0.246  0.0134 -0.3530 -0.0018
17732SOL     OW54869   1.461   8.097   8.583 -0.1268 -0.5701  0.2343
17732SOL    HW154870   1.478   8.069   8.493  0.0513 -1.1453  0.4386
17732SOL    HW254871   1.454   8.015   8.632  0.3157 -0.2514  0.8428
17733SOL     OW54872   7.267   4.940   8.969 -0.4049 -0.0790  0.0661
17733SOL    HW154873   7.359   4.937   8.994  0.2615 -0.6843 -2.1447
17733SOL    HW254874   7.265   4.993   8.889 -1.7466 -1.1669 -0.6839
17734SOL     OW54875   4.116   1.638   0.923 -0.3751 -0.0857 -0.3225
17734SOL    HW154876   4.073   1.636   0.838 -2.0915 -0.7269  0.5201
17734SOL    HW254877   4.118   1.547   0.952  2.5660 -0.2512 -0.7586
17735SOL     OW54878   8.349   3.929   3.557 -0.1738 -0.3526 -0.1885
17735SOL    HW154879   8.322   4.000   3.499 -0.8345 -1.4684 -1.2953
17735SOL    HW254880   8.427   3.892   3.515 -0.1909 -0.6726  0.0573
17736SOL     OW54881   9.265   2.353   9.569  0.3223 -0.4445 -0.4549
17736SOL    HW154882   9.334   2.317   9.625 -0.2143 -0.0931  0.4620
17736SOL    HW254883   9.311   2.392   9.495  1.0926 -0.3639  0.0582
17737SOL     OW54884   3.827   0.738   0.052  0.7150  0.1636  0.1908
17737SOL    HW154885   3.740   0.777   0.062  0.3262 -0.5370 -0.3113
17737SOL    HW254886   3.877   0.804   0.005  0.0109  0.0118 -0.8143
17738SOL     OW54887   0.054   0.064   9.027  0.1936  0.7994 -0.1961
17738SOL    HW154888   0.136   0.016   9.029 -1.0387 -1.4444  1.5450
17738SOL    HW254889  -0.005   0.012   9.082 -1.6059  3.7822  0.9097
17739SOL     OW54890   2.238   7.691   7.960  0.5581  0.5912 -0.3181
17739SOL    HW154891   2.194   7.611   7.932  0.7338  0.6248 -0.6954
17739SOL    HW254892   2.215   7.700   8.053  0.7462 -0.0281 -0.2091
17740SOL     OW54893   5.802   2.724   8.114  0.0859  0.2070  0.4947
17740SOL    HW154894   5.717   2.766   8.122  0.3395  0.6849  0.7498
17740SOL    HW254895   5.788   2.635   8.145 -0.7497 -0.3148 -1.2633
17741SOL     OW54896   8.092   4.775   2.089 -0.8638 -0.0046  0.6233
17741SOL    HW154897   8.144   4.767   2.170  1.5721 -2.2810 -0.9893
17741SOL    HW254898   8.155   4.804   2.023 -2.8500  2.0732 -0.5122
17742SOL     OW54899   3.826   9.578   1.827 -0.0067 -0.4518  0.1279
17742SOL    HW154900   3.897   9.590   1.764  0.0948  1.0878  0.4976
17742SOL    HW254901   3.766   9.517   1.785  2.3573 -3.2807  0.5299
17743SOL     OW54902   8.304   6.308   1.541 -0.7326  0.2240  0.3527
17743SOL    HW154903   8.240   6.378   1.532 -0.7134  0.1593 -0.3660
17743SOL    HW254904   8.358   6.315   1.462 -0.2323 -0.0984  0.6632
17744SOL     OW54905   5.328   0.377   1.642 -0.7860  0.5978  0.4686
17744SOL    HW154906   5.417   0.349   1.619 -1.8863 -2.6743 -0.3697
17744SOL    HW254907   5.280   0.377   1.559 -2.4643 -1.8144  1.3068
17745SOL     OW54908   3.130   1.596   8.762 -0.3750  0.0940 -0.0013
17745SOL    HW154909   3.129   1.616   8.668  1.2610 -0.4954 -0.1670
17745SOL    HW254910   3.157   1.678   8.804 -0.7069  0.2402 -0.0683
17746SOL     OW54911   3.768   4.570   6.004 -0.2989 -0.0225  0.2017
17746SOL    HW154912   3.719   4.505   6.054  0.6770 -0.9937 -0.0658
17746SOL    HW254913   3.702   4.613   5.950 -1.4456  1.2478  2.4516
17747SOL     OW54914   5.547   7.470   1.524 -0.2851 -0.2879 -0.6283
17747SOL    HW154915   5.554   7.495   1.432  2.3617 -0.2356 -0.5030
17747SOL    HW254916   5.545   7.553   1.572 -1.3723 -0.3183 -0.5958
17748SOL     OW54917   2.117   6.697   6.532  0.6494  0.1234  0.3458
17748SOL    HW154918   2.164   6.768   6.576  1.1581 -0.8065  1.3567
17748SOL    HW254919   2.145   6.617   6.578 -0.5165 -0.6557 -0.2321
17749SOL     OW54920   1.607   2.668   7.761 -0.1445  0.1810  0.1440
17749SOL    HW154921   1.643   2.756   7.768  0.9072 -0.3484  2.0798
17749SOL    HW254922   1.669   2.620   7.706  0.4415  0.1064  0.8579
17750SOL     OW54923   3.661   0.031   7.957  0.0990  0.2236  0.5683
17750SOL    HW154924   3.683  -0.061   7.938  1.6495  0.6138  0.3219
17750SOL    HW254925   3.662   0.036   8.052 -0.5384 -0.1229  0.6025
17751SOL     OW54926   7.060   2.139   0.972 -0.3445  0.5845 -0.2794
17751SOL    HW154927   7.081   2.229   0.948  0.7080  1.3471  2.9189
17751SOL    HW254928   6.965   2.138   0.981 -0.3759  1.3639 -0.4671
17752SOL     OW54929   4.201   3.874   6.284 -0.0341 -0.3588  0.2166
17752SOL    HW154930   4.160   3.947   6.238  0.7898  0.2085  0.3711
17752SOL    HW254931   4.143   3.799   6.267 -0.8427  0.3059 -0.0057
17753SOL     OW54932   3.521   1.762   0.843  0.1877 -0.1971  0.5833
17753SOL    HW154933   3.480   1.686   0.802  0.6740 -1.2399  1.9679
17753SOL    HW254934   3.454   1.830   0.840  0.0139 -0.3888 -1.3860
17754SOL     OW54935   5.991   4.490   4.691  0.2427 -0.0040 -0.0920
17754SOL    HW154936   6.083   4.481   4.665  1.3430 -0.3189  3.3637
17754SOL    HW254937   5.970   4.407   4.734 -2.4931 -0.8486 -2.7144
17755SOL     OW54938   5.670   8.318   9.544 -0.6033 -0.0015  0.1540
17755SOL    HW154939   5.701   8.398   9.501  0.4518  0.3212  1.4455
17755SOL    HW254940   5.588   8.344   9.586 -1.3766 -0.1875 -1.1680
17756SOL     OW54941   7.693   3.397   8.481  0.8554 -0.3713  0.2181
17756SOL    HW154942   7.678   3.443   8.564  0.4836 -1.1123  0.5687
17756SOL    HW254943   7.628   3.326   8.481  0.4726 -0.0318 -0.9725
17757SOL     OW54944   3.977   0.639   3.915  0.0668  0.0381 -0.2875
17757SOL    HW154945   4.010   0.729   3.921 -1.9857  0.8818 -0.8013
17757SOL    HW254946   3.945   0.620   4.003  0.1006 -0.0388 -0.2918
17758SOL     OW54947   3.311   8.136   0.952 -0.2018  0.0824  0.2707
17758SOL    HW154948   3.368   8.212   0.958  0.1703 -0.1146 -0.5359
17758SOL    HW254949   3.246   8.160   0.885  0.4336 -0.6096 -0.6254
17759SOL     OW54950   7.499   2.116   0.084  0.0204 -0.1477 -0.5359
17759SOL    HW154951   7.545   2.089   0.004  1.0896  1.9315 -0.6772
17759SOL    HW254952   7.476   2.207   0.069  0.7865  0.4812  1.7651
17760SOL     OW54953   1.043   5.800   3.630 -0.3004 -0.9317  0.3470
17760SOL    HW154954   0.984   5.870   3.603  0.3942  0.4414  2.1802
17760SOL    HW254955   1.041   5.803   3.726  1.7506 -1.7012  0.4558
17761SOL     OW54956   2.393   1.781   9.250  0.7999 -0.1608 -0.1425
17761SOL    HW154957   2.402   1.690   9.221 -1.8825  0.0067 -1.7178
17761SOL    HW254958   2.381   1.831   9.170 -0.2876  1.2455  0.8654
17762SOL     OW54959   0.644   5.020   1.648 -0.1994 -0.5023  0.2964
17762SOL    HW154960   0.630   5.021   1.742 -1.5140 -1.3775  0.1315
17762SOL    HW254961   0.573   5.074   1.612 -1.8856 -3.0080 -0.3920
17763SOL     OW54962   5.238   9.084   0.175  0.5886 -0.1540 -0.4095
17763SOL    HW154963   5.166   9.022   0.186  0.2919  0.2202 -0.2384
17763SOL    HW254964   5.202   9.155   0.121  0.7427  0.1736 -0.0855
17764SOL     OW54965   2.740   2.830   6.190 -0.5299  0.2502 -0.5640
17764SOL    HW154966   2.740   2.885   6.269 -1.1498 -0.6019  0.0596
17764SOL    HW254967   2.767   2.744   6.222 -0.4718 -0.0232 -1.3517
17765SOL     OW54968   1.497   3.862   7.263  0.1380 -0.3646 -0.2559
17765SOL    HW154969   1.525   3.907   7.343 -0.3217  2.8382 -1.7785
17765SOL    HW254970   1.402   3.870   7.263  0.1162 -0.5873 -1.0137
17766SOL     OW54971   5.362   6.428   5.691 -0.4275  0.4217  0.1540
17766SOL    HW154972   5.289   6.380   5.651 -1.6041  2.2095 -0.0018
17766SOL    HW254973   5.380   6.499   5.629 -1.1498  2.2464  1.9085
17767SOL     OW54974   7.846   5.015   2.189  0.3883  0.0617  0.5936
17767SOL    HW154975   7.908   4.944   2.202 -1.0336 -1.2518  0.5398
17767SOL    HW254976   7.776   4.998   2.253 -1.5898 -0.5431 -1.5854
17768SOL     OW54977   0.390   2.615   0.655  0.0169 -0.0464  0.0002
17768SOL    HW154978   0.302   2.646   0.634  0.9350  2.9260  0.1658
17768SOL    HW254979   0.418   2.569   0.575 -2.3259 -2.9424  0.6421
17769SOL     OW54980   9.552   4.205   8.792 -0.4700  0.1969 -0.5777
17769SOL    HW154981   9.490   4.277   8.785 -0.4590  0.0494 -2.7661
17769SOL    HW254982   9.613   4.218   8.719 -0.4405 -1.9953 -1.0140
17770SOL     OW54983   5.025   4.610   3.127  0.2725  0.0070  0.3114
17770SOL    HW154984   4.992   4.541   3.069  1.5814  0.1220 -0.6297
17770SOL    HW254985   4.947   4.655   3.157 -0.4669  0.0449 -1.5276
17771SOL     OW54986   9.118   2.852   3.897  0.3958 -0.9740  0.0719
17771SOL    HW154987   9.114   2.773   3.843  1.0721 -0.7202 -0.3718
17771SOL    HW254988   9.102   2.924   3.836 -1.0387 -0.8075  0.6271
17772SOL     OW54989   3.888   7.778   4.248  0.0954 -0.6694  0.3644
17772SOL    HW154990   3.888   7.686   4.274  2.3522 -0.7178  0.3987
17772SOL    HW254991   3.956   7.818   4.302  1.7243  0.2050 -2.1530
17773SOL     OW54992   8.366   2.346   8.166 -0.3492  0.1369  0.4082
17773SOL    HW154993   8.382   2.409   8.096  0.1641 -1.2951 -0.8250
17773SOL    HW254994   8.451   2.306   8.182 -0.6299 -0.1263  1.2959
17774SOL     OW54995   7.828   7.951   0.450  0.2493  0.0079 -0.1063
17774SOL    HW154996   7.896   8.018   0.459  0.6093 -0.4469  0.6207
17774SOL    HW254997   7.770   7.965   0.525 -0.2834  0.1819 -0.5424
17775SOL     OW54998   4.039   3.270   5.922 -0.2396  0.3526  0.0081
17775SOL    HW154999   3.983   3.236   5.991 -0.5634  0.0174 -0.4131
17775SOL    HW255000   4.095   3.334   5.965 -1.1345  0.8906  0.3808
17776SOL     OW55001   5.802   9.379   3.970  0.8848  0.1611  0.0747
17776SOL    HW155002   5.734   9.434   3.931  1.2120  0.6652  0.2032
17776SOL    HW255003   5.853   9.439   4.024  1.3625 -0.2382  0.0739
17777SOL     OW55004   4.708   8.729   6.270  0.0269 -0.0974  0.1689
17777SOL    HW155005   4.794   8.721   6.228  0.6412  1.6694  1.0023
17777SOL    HW255006   4.707   8.817   6.307 -2.2231 -0.0098  0.0555
17778SOL     OW55007   2.076   8.085   2.286  0.3063  0.1887  0.0278
17778SOL    HW155008   2.122   8.022   2.231 -0.3031 -0.1802 -0.0669
17778SOL    HW255009   2.129   8.090   2.366 -0.0483 -1.0330  0.3551
17779SOL     OW55010   8.669   7.303   6.429 -0.5954  0.6956  0.1649
17779SOL    HW155011   8.606   7.360   6.473  0.3414  1.1031  1.0060
17779SOL    HW255012   8.702   7.356   6.356 -0.4394  0.8727  0.3646
17780SOL     OW55013   4.869   6.567   3.505 -0.4885 -0.4174  0.1689
17780SOL    HW155014   4.807   6.621   3.456 -1.9731 -1.6552  0.6048
17780SOL    HW255015   4.924   6.528   3.438 -0.2729  0.5497 -0.2435
17781SOL     OW55016   8.247   2.912   8.639  0.0728  0.1184 -0.0124
17781SOL    HW155017   8.259   3.001   8.674  0.9342  0.5898 -1.4186
17781SOL    HW255018   8.334   2.886   8.609 -0.6491 -0.1440 -2.0033
17782SOL     OW55019   2.495   8.411   5.108  0.5770 -0.7624 -0.4929
17782SOL    HW155020   2.420   8.461   5.142 -0.1117 -1.3336 -1.1270
17782SOL    HW255021   2.532   8.368   5.185 -0.3854 -1.2836 -0.3022
17783SOL     OW55022   3.669   5.214   1.688 -0.2242 -0.6337  0.1869
17783SOL    HW155023   3.574   5.217   1.704 -0.1600  0.6013  0.4203
17783SOL    HW255024   3.698   5.137   1.738 -0.9094 -0.2446  1.2285
17784SOL     OW55025   3.026   7.100   2.964  0.7384 -0.4082 -0.2021
17784SOL    HW155026   2.990   7.188   2.970  0.2658 -0.5437 -0.9052
17784SOL    HW255027   3.058   7.093   2.874 -0.9604 -1.5860 -0.7568
17785SOL     OW55028   4.680   8.411   7.924 -0.1550 -0.4897  0.1636
17785SOL    HW155029   4.629   8.491   7.909 -0.4502 -0.7844 -0.4443
17785SOL    HW255030   4.769   8.442   7.939 -0.5945  0.0802  1.8372
17786SOL     OW55031   4.429   2.958   2.177  0.3407 -0.5985  0.4490
17786SOL    HW155032   4.384   3.031   2.135 -0.4489 -1.5366 -0.4124
17786SOL    HW255033   4.373   2.882   2.160  1.3530 -1.4921  0.9180
17787SOL     OW55034   1.519   9.315   1.561  0.1617  0.0765 -1.0173
17787SOL    HW155035   1.429   9.347   1.558 -0.3716 -1.1662  0.6130
17787SOL    HW255036   1.572   9.395   1.557 -1.0235  0.8996 -0.9845
17788SOL     OW55037   2.672   7.817   9.480 -0.1614 -0.4307  0.0951
17788SOL    HW155038   2.702   7.906   9.463  0.5491 -0.5293  0.7638
17788SOL    HW255039   2.596   7.826   9.536 -1.0058 -0.1998 -1.0483
17789SOL     OW55040   9.344   6.043   7.872 -0.7556  0.4486 -0.1033
17789SOL    HW155041   9.282   5.971   7.876 -1.2059  0.8705  0.6937
17789SOL    HW255042   9.290   6.121   7.859 -0.4576  0.8954  1.2225
17790SOL     OW55043   2.273   4.358   4.382 -0.1364  0.6205 -0.2918
17790SOL    HW155044   2.323   4.282   4.352 -0.2498  0.5552 -0.3146
17790SOL    HW255045   2.244   4.400   4.301 -1.1810 -0.0402 -0.2750
17791SOL     OW55046   6.748   3.028   5.322 -0.2880 -0.1790  0.3123
17791SOL    HW155047   6.772   3.107   5.370 -0.7688  0.5943 -0.6820
17791SOL    HW255048   6.666   3.051   5.278 -1.3397 -1.7694  1.3016
17792SOL     OW55049   0.256   0.841   0.230 -0.3189  0.3150 -0.1739
17792SOL    HW155050   0.209   0.905   0.284 -1.2948 -0.1116 -0.4906
17792SOL    HW255051   0.188   0.783   0.197  0.3065  0.2746 -1.4827
17793SOL     OW55052   3.711   0.261   0.748  0.2671 -0.1648 -0.0895
17793SOL    HW155053   3.626   0.285   0.712 -0.6902 -3.7311 -0.5683
17793SOL    HW255054   3.772   0.274   0.675 -0.4833 -0.8217 -0.8547
17794SOL     OW55055   6.896   8.349   4.573 -0.6856 -0.2616  0.3554
17794SOL    HW155056   6.983   8.342   4.532 -0.1047  0.4471  1.3993
17794SOL    HW255057   6.874   8.442   4.565 -1.0667 -0.3246  0.6496
17795SOL     OW55058   4.085   6.643   9.090 -0.0825 -0.3480 -0.7018
17795SOL    HW155059   4.044   6.569   9.135 -1.4172  0.5285 -0.4292
17795SOL    HW255060   4.029   6.718   9.111  0.8487  0.6106 -1.5426
17796SOL     OW55061   2.359   3.777   1.874 -0.1296 -0.8077 -0.0923
17796SOL    HW155062   2.299   3.702   1.869 -0.2752 -0.7115  0.1533
17796SOL    HW255063   2.312   3.847   1.829 -0.6009 -0.4822  0.8576
17797SOL     OW55064   1.994   9.117   2.021 -0.1766 -0.2291  0.0083
17797SOL    HW155065   2.000   9.124   1.926  0.5314  2.9168  0.1566
17797SOL    HW255066   1.918   9.171   2.044 -0.2430 -0.8144  1.2367
17798SOL     OW55067   5.155   4.792   4.015  0.0345 -0.2630  0.4410
17798SOL    HW155068   5.243   4.793   4.053  0.5970 -0.6668 -0.8166
17798SOL    HW255069   5.120   4.706   4.037 -0.4535  0.2600  1.8039
17799SOL     OW55070   3.275   3.303   4.071 -1.0298 -0.3900  0.1715
17799SOL    HW155071   3.320   3.381   4.040  0.7694 -1.3219  0.3024
17799SOL    HW255072   3.217   3.278   3.999 -0.0232 -0.1439 -0.7503
17800SOL     OW55073   7.418   5.260   0.365  0.0404 -0.6346 -0.7453
17800SOL    HW155074   7.430   5.166   0.352 -0.4297 -0.8733  0.4759
17800SOL    HW255075   7.331   5.268   0.404  1.0831  0.0818  1.5656
17801SOL     OW55076   5.392   8.423   3.135 -0.6756 -0.5384 -0.0097
17801SOL    HW155077   5.387   8.330   3.158 -0.1860 -0.8256 -1.0383
17801SOL    HW255078   5.480   8.450   3.161 -0.3269 -0.7188 -0.9676
17802SOL     OW55079   4.765   7.738   7.518  0.1774 -0.2899 -0.2194
17802SOL    HW155080   4.856   7.758   7.539  1.2237 -0.9786 -3.5267
17802SOL    HW255081   4.747   7.656   7.564  0.9815  0.1655  0.9527
17803SOL     OW55082   7.046   4.142   2.895 -0.1723 -0.0357  0.0916
17803SOL    HW155083   7.102   4.212   2.931 -1.1201  0.3677  0.8452
17803SOL    HW255084   6.957   4.167   2.922 -0.8713 -0.0607 -2.0344
17804SOL     OW55085   7.997   0.271   1.745  0.1750  0.5671  0.1412
17804SOL    HW155086   7.946   0.326   1.804 -1.0496 -1.6933  1.2975
17804SOL    HW255087   7.934   0.234   1.684  0.9638  0.3993 -0.6029
17805SOL     OW55088   8.245   7.062   5.943 -0.2879 -0.5664 -0.0670
17805SOL    HW155089   8.317   7.121   5.921 -0.8965  0.7225  1.2171
17805SOL    HW255090   8.177   7.080   5.878  0.8691 -2.5317 -1.9261
17806SOL     OW55091   0.840   5.997   6.901  0.5825  0.8050 -0.4375
17806SOL    HW155092   0.834   5.914   6.949  0.1853  1.8647  1.4782
17806SOL    HW255093   0.875   5.974   6.815  0.5207 -1.3221  0.0709
17807SOL     OW55094   2.368   2.766   4.370 -0.0662  0.3042 -0.1285
17807SOL    HW155095   2.279   2.797   4.351  0.8524  2.4126 -1.3723
17807SOL    HW255096   2.406   2.748   4.284  1.1036  0.6315  0.3029
17808SOL     OW55097   4.920   7.547   6.834  0.1998  0.1998  0.2459
17808SOL    HW155098   4.981   7.564   6.906  0.8223 -0.6652 -0.0588
17808SOL    HW255099   4.897   7.455   6.843  0.0888  0.1462 -0.5135
17809SOL     OW55100   2.965   7.696   8.370  0.6004 -0.1794  0.8698
17809SOL    HW155101   2.998   7.628   8.429 -1.5043 -1.5044  0.6090
17809SOL    HW255102   2.905   7.747   8.424 -0.7152 -0.9003  0.1247
17810SOL     OW55103   2.636   4.415   0.791  0.5548 -0.5381 -0.2888
17810SOL    HW155104   2.628   4.510   0.800  2.9415 -0.2794 -0.2846
17810SOL    HW255105   2.691   4.403   0.713 -0.8125 -1.9820 -1.0827
17811SOL     OW55106   4.597   3.665   5.282 -0.4219 -0.1337  0.2888
17811SOL    HW155107   4.621   3.589   5.335 -0.8128  1.6312  3.2005
17811SOL    HW255108   4.660   3.732   5.306  0.7289  0.2446 -3.1812
17812SOL     OW55109   6.654   8.657   5.038 -0.0063  0.6523 -0.1133
17812SOL    HW155110   6.727   8.622   4.987  0.0973  1.1527 -0.3169
17812SOL    HW255111   6.617   8.726   4.982 -2.5691 -1.5541 -1.3840
17813SOL     OW55112   1.496   0.284   8.647  0.0082  0.0531  0.3097
17813SOL    HW155113   1.506   0.356   8.709 -0.7653  0.1249  0.3687
17813SOL    HW255114   1.574   0.230   8.660  0.7579  1.0420  0.0328
17814SOL     OW55115   2.547   2.892   0.287 -0.5985  0.2535  0.0192
17814SOL    HW155116   2.575   2.822   0.345  1.1587  0.0569 -1.0180
17814SOL    HW255117   2.458   2.913   0.317 -0.2351 -0.6978  1.9335
17815SOL     OW55118   6.591   8.843   7.850  0.1047  0.3519 -0.1326
17815SOL    HW155119   6.571   8.923   7.898 -0.8654  1.0487 -1.6061
17815SOL    HW255120   6.655   8.869   7.784  0.8901 -0.4280  0.2987
17816SOL     OW55121   1.434   8.701   8.811  0.0918 -0.1936  0.6808
17816SOL    HW155122   1.351   8.708   8.763 -0.4142 -1.1687  1.3922
17816SOL    HW255123   1.410   8.720   8.902  0.8150  0.3654  0.7614
17817SOL     OW55124   3.265   8.021   6.214 -0.2377 -0.0190  0.5158
17817SOL    HW155125   3.235   8.004   6.303 -1.2634 -2.5584 -0.2309
17817SOL    HW255126   3.315   7.943   6.190  2.1809  1.6600 -0.3361
17818SOL     OW55127   0.623   4.720   6.430 -0.3605 -0.3286 -0.0967
17818SOL    HW155128   0.592   4.652   6.489 -0.4335  0.2716  0.5671
17818SOL    HW255129   0.543   4.759   6.394 -0.4311  1.1953  1.5875
17819SOL     OW55130   0.847   9.039   4.629  0.1869 -0.3061 -0.4227
17819SOL    HW155131   0.920   9.098   4.611 -1.8761  1.7951 -2.6110
17819SOL    HW255132   0.858   8.967   4.567 -0.0454  0.4513 -1.3593
17820SOL     OW55133   1.008   4.519   8.009 -0.2484 -0.4078 -0.2410
17820SOL    HW155134   0.933   4.465   8.033 -0.9030  0.3229 -0.5654
17820SOL    HW255135   1.064   4.520   8.087  0.5017 -2.6775 -0.6965
17821SOL     OW55136   0.738   1.404   4.984 -0.6623  0.1016 -0.2196
17821SOL    HW155137   0.747   1.363   4.898 -1.8066 -2.3985  0.7852
17821SOL    HW255138   0.827   1.434   5.004  0.2137 -1.6750 -1.1538
17822SOL     OW55139   0.752   9.212   0.739  0.7786  0.5638 -0.5415
17822SOL    HW155140   0.687   9.244   0.676  0.2638  0.0847 -0.2622
17822SOL    HW255141   0.735   9.118   0.745  1.0403  0.5516  0.0664
17823SOL     OW55142   8.548   7.028   4.294  0.3539  0.0506 -0.6492
17823SOL    HW155143   8.494   7.070   4.227 -0.3420  0.6402  0.2652
17823SOL    HW255144   8.486   6.990   4.356  0.9677  0.6287  0.3539
17824SOL     OW55145   4.144   1.363   8.381 -0.4697 -0.3305  0.2888
17824SOL    HW155146   4.097   1.441   8.411  0.4476  0.7856 -1.1124
17824SOL    HW255147   4.094   1.332   8.306 -2.5177 -2.8859  2.4588
17825SOL     OW55148   8.119   2.327   8.057  0.1264 -0.2156 -0.2779
17825SOL    HW155149   8.116   2.411   8.011  0.0536  0.7735  1.4285
17825SOL    HW255150   8.205   2.327   8.100 -0.6143 -0.1441  1.2422
17826SOL     OW55151   7.777   9.628   7.645  0.2520  0.4242 -0.1944
17826SOL    HW155152   7.843   9.586   7.590  0.7199 -0.1879  0.7955
17826SOL    HW255153   7.693   9.600   7.609  0.5356  0.7575 -1.1262
17827SOL     OW55154   8.036   3.257   7.792 -0.4659  1.0655 -0.1670
17827SOL    HW155155   8.102   3.210   7.742 -0.5390  1.0840 -0.2826
17827SOL    HW255156   7.990   3.310   7.727 -3.3560 -2.0070 -0.8718
17828SOL     OW55157   5.850   1.947   1.940  0.6889 -0.5057  0.1237
17828SOL    HW155158   5.898   1.889   1.999  0.2443 -0.7208  0.2779
17828SOL    HW255159   5.877   2.036   1.966  2.4367 -0.6306 -1.0039
17829SOL     OW55160   0.162   4.278   2.122  0.2212  0.7099  0.2340
17829SOL    HW155161   0.228   4.280   2.052  1.1839  1.0904  1.1304
17829SOL    HW255162   0.164   4.367   2.159 -1.8448  1.1830 -0.6502
17830SOL     OW55163   7.721   6.892   1.327  0.2745  0.1235  0.6432
17830SOL    HW155164   7.760   6.891   1.414 -2.9237 -0.5769  2.2564
17830SOL    HW255165   7.739   6.979   1.292  1.1276  0.6292  2.2801
17831SOL     OW55166   2.415   0.719   4.519 -0.3429 -0.0139  0.6489
17831SOL    HW155167   2.321   0.721   4.504 -0.6127 -1.3164  1.9238
17831SOL    HW255168   2.446   0.804   4.488 -1.7327 -0.0408 -0.9603
17832SOL     OW55169   3.526   4.641   9.347  0.2227 -0.1570 -0.1936
17832SOL    HW155170   3.612   4.611   9.375  0.5319  1.6237  0.9552
17832SOL    HW255171   3.464   4.587   9.396  0.6682 -1.0643 -0.6069
17833SOL     OW55172   4.204   0.283   6.835  0.1716  0.2263 -0.3606
17833SOL    HW155173   4.142   0.342   6.877  0.6489 -0.3977  1.2789
17833SOL    HW255174   4.159   0.199   6.831 -0.4415  0.5971 -2.5363
17834SOL     OW55175   4.935   2.278   6.138  0.3078 -0.5338 -0.2396
17834SOL    HW155176   4.958   2.330   6.215 -0.0579 -0.2233 -0.3364
17834SOL    HW255177   5.017   2.234   6.114  0.4179 -0.6591  0.3393
17835SOL     OW55178   8.016   0.672   9.014 -0.3803  0.2707 -0.5774
17835SOL    HW155179   7.929   0.701   8.984 -0.8761 -2.3482 -1.9366
17835SOL    HW255180   7.998   0.618   9.091  0.0157 -0.5632 -1.0677
17836SOL     OW55181   6.076   0.797   1.197  0.0491  0.5780 -0.4730
17836SOL    HW155182   6.085   0.880   1.245 -0.3566  0.7752 -0.7288
17836SOL    HW255183   6.068   0.824   1.106 -1.1467  0.3166 -0.4583
17837SOL     OW55184   4.687   5.276   6.351  0.0578 -0.2536  0.4860
17837SOL    HW155185   4.643   5.347   6.397  0.1396  0.7558 -0.9382
17837SOL    HW255186   4.711   5.214   6.420 -1.6498  0.1994  1.5558
17838SOL     OW55187   5.021   9.080   2.110  0.1560  0.3717 -0.3239
17838SOL    HW155188   4.940   9.101   2.156  0.2495 -1.3110  0.7085
17838SOL    HW255189   5.062   9.164   2.092 -0.5631  1.1446  1.4720
17839SOL     OW55190   7.977   8.093   4.981 -0.4521  0.4572  0.1924
17839SOL    HW155191   7.933   8.031   5.039 -0.3432  0.6990  0.5391
17839SOL    HW255192   7.938   8.077   4.895  0.0869 -0.5980  0.1220
17840SOL     OW55193   1.283   8.325   1.153  0.3744 -0.2004 -0.3601
17840SOL    HW155194   1.359   8.267   1.145 -0.4161 -1.2744 -0.2828
17840SOL    HW255195   1.237   8.294   1.231 -0.4370  0.0816 -0.7141
17841SOL     OW55196   9.389   9.050   8.984 -0.4420 -0.3347  0.2412
17841SOL    HW155197   9.382   8.962   8.946  0.1017  0.2173 -1.1796
17841SOL    HW255198   9.299   9.074   9.005 -1.0836  0.1701 -2.6863
17842SOL     OW55199   8.095   3.867   5.079 -0.0347  0.4339  0.3672
17842SOL    HW155200   8.124   3.956   5.061  2.7524 -0.4001  0.2446
17842SOL    HW255201   8.101   3.822   4.994  0.5917 -0.3398  0.8013
17843SOL     OW55202   7.741   0.691   8.703  0.0370 -0.4048  0.0871
17843SOL    HW155203   7.695   0.752   8.645 -1.1285  0.8948  2.2189
17843SOL    HW255204   7.758   0.743   8.782  0.5747 -2.3749  1.3246
17844SOL     OW55205   0.308   2.462   4.464 -0.4819 -0.1016 -0.1192
17844SOL    HW155206   0.275   2.536   4.514 -0.5283 -0.6583  0.6883
17844SOL    HW255207   0.236   2.399   4.465  0.1536 -0.8239  0.6044
17845SOL     OW55208   6.235   0.504   7.851 -0.3614 -0.5598  0.2891
17845SOL    HW155209   6.173   0.444   7.811  1.3053 -1.6719 -0.7361
17845SOL    HW255210   6.319   0.459   7.845  1.0762  2.0653 -1.0121
17846SOL     OW55211   6.206   7.999   5.521 -0.1842  0.0478  0.0538
17846SOL    HW155212   6.117   7.976   5.493 -0.0391 -0.1533 -0.2425
17846SOL    HW255213   6.221   7.944   5.598  0.0444 -0.6349 -0.4703
17847SOL     OW55214   1.650   8.410   6.719 -0.7115 -0.1905 -0.6091
17847SOL    HW155215   1.614   8.497   6.735  0.7176  0.3894 -0.4107
17847SOL    HW255216   1.651   8.401   6.624 -1.9536 -0.4899 -0.6140
17848SOL     OW55217   0.015   4.361   8.540  0.1956  0.0139 -0.2436
17848SOL    HW155218  -0.064   4.391   8.496 -0.1303 -0.7057 -0.1531
17848SOL    HW255219   0.084   4.420   8.508  0.3633 -1.5682 -3.1213
17849SOL     OW55220   3.413   6.496   1.227 -0.0164  0.2854 -0.1562
17849SOL    HW155221   3.488   6.497   1.287 -0.5809  0.4002  0.5509
17849SOL    HW255222   3.391   6.588   1.214  0.0762  0.2608 -0.5209
17850SOL     OW55223   0.032   7.756   8.932 -0.8073  0.1052 -0.6265
17850SOL    HW155224  -0.004   7.731   8.847 -1.0218  1.3189 -0.9050
17850SOL    HW255225   0.028   7.851   8.933  2.9536  0.4251 -0.9547
17851SOL     OW55226   1.979   4.526   6.745  0.6962 -0.2149  0.6024
17851SOL    HW155227   2.024   4.442   6.733 -1.4518 -1.6691  2.0366
17851SOL    HW255228   1.929   4.515   6.825 -0.9293  1.8731 -0.0387
17852SOL     OW55229   0.550   7.500   5.451  0.2810 -0.7460 -1.3155
17852SOL    HW155230   0.465   7.461   5.472  0.0716 -0.4959 -1.7049
17852SOL    HW255231   0.613   7.445   5.499 -0.2454  0.4886  0.9334
17853SOL     OW55232   4.476   8.473   8.541  0.0948  0.4598  0.2408
17853SOL    HW155233   4.408   8.434   8.596 -0.9096 -0.5466 -1.6240
17853SOL    HW255234   4.559   8.444   8.581 -0.6092 -1.6267  0.2778
17854SOL     OW55235   5.028   1.526   1.156 -0.0818 -0.1674 -0.0968
17854SOL    HW155236   5.017   1.438   1.193 -1.7393 -0.2681 -0.7294
17854SOL    HW255237   4.990   1.584   1.222 -1.3849 -0.1929 -0.7762
17855SOL     OW55238   7.170   7.860   7.988 -0.2107  0.1478  0.0376
17855SOL    HW155239   7.166   7.766   8.005 -0.6449  0.0631 -0.4972
17855SOL    HW255240   7.087   7.880   7.945  0.2333  0.6121 -0.6261
17856SOL     OW55241   2.534   7.660   9.024 -0.1168  0.2444 -0.0139
17856SOL    HW155242   2.491   7.740   8.992 -1.7247 -0.8024 -0.5702
17856SOL    HW255243   2.500   7.590   8.969  0.7266 -0.9519  0.9193
17857SOL     OW55244   2.963   5.596   8.816 -0.0022  0.5451 -0.5187
17857SOL    HW155245   2.964   5.666   8.882 -0.1122  0.0474  0.0200
17857SOL    HW255246   2.874   5.597   8.781 -0.0765  0.5225 -0.3364
17858SOL     OW55247   7.078   2.825   8.766 -0.0347  0.1495 -0.0592
17858SOL    HW155248   7.151   2.763   8.761 -0.5743 -0.7770  2.1007
17858SOL    HW255249   7.001   2.773   8.742 -0.3459  0.2964  0.5981
17859SOL     OW55250   2.518   2.515   4.247  0.2025  0.3557  0.1262
17859SOL    HW155251   2.570   2.444   4.209 -1.2783 -0.3643 -0.6698
17859SOL    HW255252   2.527   2.588   4.185 -1.3277 -0.4535 -1.1269
17860SOL     OW55253   3.744   2.350   6.297  0.0359  0.2661 -0.1923
17860SOL    HW155254   3.697   2.267   6.285  0.9880 -0.3940  0.5164
17860SOL    HW255255   3.738   2.367   6.391  1.6995 -0.1370  0.0154
17861SOL     OW55256   7.470   6.734   7.041 -0.3738 -0.0295 -0.1700
17861SOL    HW155257   7.379   6.753   7.019 -0.7527 -1.4036  0.1076
17861SOL    HW255258   7.474   6.743   7.136 -0.5803 -1.2818 -0.0228
17862SOL     OW55259   0.880   4.990   2.460  0.2659 -0.0691  0.0045
17862SOL    HW155260   0.880   5.039   2.378 -0.7241 -0.7155 -0.3981
17862SOL    HW255261   0.950   5.030   2.511  0.4754  0.7688 -0.8977
17863SOL     OW55262   5.899   3.356   8.967  0.2762  0.6409 -0.6014
17863SOL    HW155263   5.865   3.437   8.928 -2.1334 -0.3317 -0.7402
17863SOL    HW255264   5.966   3.386   9.028 -1.1758  2.8674  0.0586
17864SOL     OW55265   0.067   9.352   0.482 -0.0341  0.5210 -0.1300
17864SOL    HW155266  -0.001   9.309   0.534 -0.0655 -0.5205 -0.9863
17864SOL    HW255267   0.018   9.405   0.419 -0.1274 -0.8212 -1.2490
17865SOL     OW55268   2.686   0.007   7.383  0.7795 -0.6902 -0.3108
17865SOL    HW155269   2.635  -0.034   7.313  0.2321 -1.0434  0.2901
17865SOL    HW255270   2.621   0.046   7.441  1.2015 -0.9855  0.3613
17866SOL     OW55271   5.662   5.797   7.022  0.5826  0.5712 -0.2192
17866SOL    HW155272   5.706   5.818   6.940  2.9622 -0.7611  0.5886
17866SOL    HW255273   5.720   5.832   7.090 -0.1756 -0.2779  0.9179
17867SOL     OW55274   2.075   0.928   3.445 -0.5472  0.3049  0.6069
17867SOL    HW155275   2.100   1.015   3.412 -0.6984  0.7982  1.7446
17867SOL    HW255276   1.983   0.919   3.422 -0.0082 -0.4861 -1.4264
17868SOL     OW55277   5.021   0.443   3.750  0.0422  0.6376  0.5475
17868SOL    HW155278   5.011   0.356   3.712  1.9146  0.1467  1.0598
17868SOL    HW255279   4.932   0.477   3.759 -0.7785 -1.5130  0.9765
17869SOL     OW55280   4.559   4.173   1.676  0.3475 -0.0467  0.6175
17869SOL    HW155281   4.566   4.078   1.680  0.1601 -0.0981 -0.2302
17869SOL    HW255282   4.467   4.191   1.690  0.5372  0.0860  1.8513
17870SOL     OW55283   2.081   6.339   6.833  0.2496  0.3132  1.0534
17870SOL    HW155284   2.035   6.421   6.814  0.5049  0.4417  0.9825
17870SOL    HW255285   2.162   6.345   6.781  1.0352  0.7396  2.2779
17871SOL     OW55286   1.617   1.627   7.258  0.1861  0.1855 -0.1053
17871SOL    HW155287   1.635   1.560   7.324 -0.3927  0.2203  0.0967
17871SOL    HW255288   1.532   1.664   7.284  1.0682  1.8771  0.5223
17872SOL     OW55289   4.264   9.661   2.267 -0.0704 -0.0082 -0.0310
17872SOL    HW155290   4.354   9.636   2.290 -0.8783 -2.2674  0.9454
17872SOL    HW255291   4.273   9.706   2.182  1.6399 -4.1765 -2.3550
17873SOL     OW55292   1.724   2.298   1.737  0.2328  0.4606  0.1525
17873SOL    HW155293   1.813   2.293   1.704  0.6390  0.8903  1.1486
17873SOL    HW255294   1.678   2.227   1.693  1.4726 -0.7999  0.8150
17874SOL     OW55295   2.820   8.168   5.225 -0.7028  0.3887  0.1615
17874SOL    HW155296   2.764   8.124   5.290  1.2748 -1.5945  0.6355
17874SOL    HW255297   2.840   8.253   5.264 -0.8716 -0.1249  1.4185
17875SOL     OW55298   3.765   1.924   2.124 -0.3349  0.3575  0.0245
17875SOL    HW155299   3.683   1.971   2.138 -0.2403  0.5716 -0.1368
17875SOL    HW255300   3.832   1.992   2.125 -0.2807  0.3427 -1.0790
17876SOL     OW55301   4.127   2.102   4.311  0.1588 -0.1746  0.1596
17876SOL    HW155302   4.060   2.143   4.256 -0.6843 -1.3613  0.2479
17876SOL    HW255303   4.091   2.108   4.400  0.9622  0.6646  0.4452
17877SOL     OW55304   4.892   9.590   2.536 -0.2767  0.0770  0.1186
17877SOL    HW155305   4.890   9.495   2.525 -1.8967  0.2035 -0.9695
17877SOL    HW255306   4.984   9.614   2.527 -0.0529 -1.2114 -1.2898
17878SOL     OW55307   5.779   6.462   9.503  0.4817  0.1501  0.2274
17878SOL    HW155308   5.698   6.497   9.466  1.7260  1.1365 -1.7297
17878SOL    HW255309   5.810   6.531   9.562  0.3682  0.1666  0.2685
17879SOL     OW55310   7.104   6.963   3.333  0.4134  0.0192 -0.8164
17879SOL    HW155311   7.192   6.959   3.370 -0.2329 -0.6898  0.7079
17879SOL    HW255312   7.087   7.056   3.323  0.8352  0.2083  0.1266
17880SOL     OW55313   0.601   3.714   6.222  0.5009 -0.0364 -0.2513
17880SOL    HW155314   0.614   3.808   6.206  2.9000 -0.0079  1.3582
17880SOL    HW255315   0.510   3.706   6.249 -0.3029  1.5100 -2.2824
17881SOL     OW55316   7.927   3.218   6.706 -0.0438 -0.6059 -0.2717
17881SOL    HW155317   8.009   3.246   6.666 -0.6744  2.3933  0.2910
17881SOL    HW255318   7.863   3.284   6.680 -1.0355  0.2453  3.6387
17882SOL     OW55319   3.919   2.187   7.016 -0.4825 -0.2449  0.5528
17882SOL    HW155320   3.888   2.261   7.067 -0.8273  0.1955 -0.2800
17882SOL    HW255321   4.008   2.211   6.989 -0.6939 -0.0078  0.0541
17883SOL     OW55322   7.916   2.912   5.139 -0.1902  0.1955 -0.1541
17883SOL    HW155323   7.996   2.946   5.098 -0.0650 -0.3361 -0.3589
17883SOL    HW255324   7.888   2.841   5.081 -0.7574  0.3109 -0.0286
17884SOL     OW55325   3.785   6.746   0.780 -0.3112  0.2638  0.0081
17884SOL    HW155326   3.824   6.735   0.867 -1.6131 -0.6855  0.5014
17884SOL    HW255327   3.859   6.768   0.724  0.5919  0.7110  1.3111
17885SOL     OW55328   6.481   5.453   1.258  0.0242 -0.2609 -0.0147
17885SOL    HW155329   6.459   5.385   1.322 -1.2001  0.5732  0.4963
17885SOL    HW255330   6.398   5.472   1.214  0.2873  1.0474  0.0150
17886SOL     OW55331   0.413   0.591   0.184 -0.1908 -0.3129  0.6544
17886SOL    HW155332   0.495   0.631   0.211 -0.7518  1.4167 -0.0701
17886SOL    HW255333   0.348   0.661   0.192 -1.4116 -1.3562  0.2540
17887SOL     OW55334   6.482   7.270   6.590  0.0401  0.0350 -0.7240
17887SOL    HW155335   6.560   7.323   6.606  0.7132 -1.1905  0.3238
17887SOL    HW255336   6.409   7.331   6.596  0.7961  0.8893  0.1873
17888SOL     OW55337   4.423   0.083   5.776 -0.4908  0.1879 -0.1369
17888SOL    HW155338   4.475   0.163   5.787 -0.6368  0.4735 -1.2929
17888SOL    HW255339   4.484   0.012   5.791  0.4787  0.5044 -2.1575
17889SOL     OW55340   2.861   3.833   8.595 -0.0321  0.3404 -0.1946
17889SOL    HW155341   2.922   3.767   8.564  0.6391 -0.0734  1.8528
17889SOL    HW255342   2.778   3.811   8.553  0.6956 -0.4457 -1.2689
17890SOL     OW55343   7.566   6.261   0.979 -0.1701  0.5285 -0.0700
17890SOL    HW155344   7.526   6.277   1.064  0.0313  1.9344 -0.2164
17890SOL    HW255345   7.621   6.338   0.963 -0.1495  0.2633 -1.4399
17891SOL     OW55346   1.676   3.035   4.223 -0.4343 -0.6310 -0.5850
17891SOL    HW155347   1.638   3.102   4.166 -3.0556 -0.8898  0.6977
17891SOL    HW255348   1.684   3.078   4.308  0.2318 -1.2295 -0.3424
17892SOL     OW55349   5.697   3.530   5.316 -0.2983  0.3584  0.3102
17892SOL    HW155350   5.724   3.616   5.348 -2.0213  1.1397 -0.2007
17892SOL    HW255351   5.761   3.509   5.248 -0.3693  1.6820 -0.2010
17893SOL     OW55352   4.566   5.706   4.214  0.7251 -0.7494  0.0098
17893SOL    HW155353   4.618   5.632   4.184  2.7909  0.9047 -0.8229
17893SOL    HW255354   4.615   5.741   4.289 -0.4512 -0.4958  0.6805
17894SOL     OW55355   7.548   9.276   1.321 -0.5677  0.9185 -0.2063
17894SOL    HW155356   7.634   9.309   1.348 -0.0491 -0.3424 -0.2462
17894SOL    HW255357   7.544   9.187   1.356 -1.3411  0.5206 -1.2513
17895SOL     OW55358   6.184   8.134   1.012  0.2984 -1.0513 -0.0359
17895SOL    HW155359   6.185   8.215   0.962 -1.6903 -0.2055  1.1803
17895SOL    HW255360   6.251   8.079   0.971 -0.5087 -0.0329 -2.8916
17896SOL     OW55361   8.247   4.385   3.109  0.1101  0.3436 -0.0427
17896SOL    HW155362   8.179   4.449   3.129 -0.7240 -0.6581  0.4092
17896SOL    HW255363   8.201   4.302   3.105  0.9355 -0.0791 -1.9855
17897SOL     OW55364   4.142   0.500   0.992 -0.0346  0.0548  0.4493
17897SOL    HW155365   4.187   0.554   0.927 -0.0718  0.6491  0.9058
17897SOL    HW255366   4.184   0.415   0.986  0.0676  0.1471 -0.2422
17898SOL     OW55367   2.196   8.364   4.640 -1.1327 -0.0021  0.3774
17898SOL    HW155368   2.154   8.435   4.590  0.4618  0.6174 -0.1595
17898SOL    HW255369   2.275   8.404   4.675 -0.5698 -1.3367  0.6653
17899SOL     OW55370   2.726   3.539   6.010  0.1640 -0.2094 -0.0265
17899SOL    HW155371   2.815   3.572   5.999  0.2580 -0.3579  0.2725
17899SOL    HW255372   2.678   3.611   6.049 -0.0099  0.0955 -0.7905
17900SOL     OW55373   1.799   4.662   0.370  0.3846 -0.0093 -0.1073
17900SOL    HW155374   1.731   4.730   0.372  0.6062  0.2118 -0.1177
17900SOL    HW255375   1.803   4.631   0.461 -1.0341 -1.3217 -0.4622
17901SOL     OW55376   0.274   0.267   6.735  0.1012  0.4717  0.7109
17901SOL    HW155377   0.202   0.322   6.768  0.1921  0.1498  1.4568
17901SOL    HW255378   0.321   0.324   6.674 -0.1443  1.0391  1.0446
17902SOL     OW55379   8.544   2.639   2.471 -0.2157  0.5526 -0.0798
17902SOL    HW155380   8.609   2.709   2.466 -0.0981  0.5638  1.1065
17902SOL    HW255381   8.577   2.581   2.541  0.1477 -1.1896 -1.6158
17903SOL     OW55382   1.043   5.409   8.376  0.1223  0.5776  0.1409
17903SOL    HW155383   1.032   5.406   8.281  2.9353  0.9675 -0.2814
17903SOL    HW255384   0.971   5.355   8.410 -0.6177 -0.0508 -2.2119
17904SOL     OW55385   9.381   5.532   6.370  0.3426  0.6177  0.3301
17904SOL    HW155386   9.431   5.564   6.295 -0.3574  0.1517 -0.3648
17904SOL    HW255387   9.442   5.477   6.419  0.8176  0.9558  0.1192
17905SOL     OW55388   1.925   6.768   2.350 -0.6619  0.8507 -0.0743
17905SOL    HW155389   1.975   6.728   2.278 -0.1659  1.3620 -0.0117
17905SOL    HW255390   1.955   6.722   2.428 -2.7852 -1.2866 -0.3912
17906SOL     OW55391   4.261   8.275   4.996  0.0299  0.1101  0.1666
17906SOL    HW155392   4.250   8.319   5.080  1.0645  1.5452 -0.4157
17906SOL    HW255393   4.241   8.183   5.015 -1.7877  0.7145  1.4984
17907SOL     OW55394   8.508   2.886   5.661  0.1345 -0.0567 -0.7454
17907SOL    HW155395   8.546   2.906   5.747 -0.2044 -0.6220 -0.4603
17907SOL    HW255396   8.570   2.923   5.598 -1.2807  3.5123 -0.2771
17908SOL     OW55397   7.972   9.557   2.748 -0.3997  0.4614 -0.0137
17908SOL    HW155398   8.023   9.549   2.667  0.7576 -0.3946  0.7620
17908SOL    HW255399   7.981   9.648   2.774 -0.3659  0.6232 -0.5745
17909SOL     OW55400   7.861   2.223   8.576  0.1955 -0.2372 -0.4815
17909SOL    HW155401   7.832   2.207   8.487  3.5055  1.1625 -2.0066
17909SOL    HW255402   7.849   2.317   8.589 -0.5036 -0.4641  0.6932
17910SOL     OW55403   2.170   1.706   2.516  0.0381 -0.2486  0.0648
17910SOL    HW155404   2.083   1.682   2.484 -0.4380  0.3252  0.8824
17910SOL    HW255405   2.182   1.654   2.595  0.5928 -0.5867 -0.2367
17911SOL     OW55406   3.365   7.983   2.212  0.3671  0.6199  0.1776
17911SOL    HW155407   3.415   8.064   2.210 -0.8339  1.3891  0.1796
17911SOL    HW255408   3.297   7.998   2.277 -0.2159 -0.1763 -0.2289
17912SOL     OW55409   3.087   6.755   8.673  0.1058  0.2112 -0.1343
17912SOL    HW155410   3.152   6.794   8.615 -0.2944  0.0619 -0.6869
17912SOL    HW255411   3.042   6.831   8.713  0.8615  0.3157  0.5392
17913SOL     OW55412   6.646   9.508   4.624  0.0268  0.2234 -0.2654
17913SOL    HW155413   6.660   9.565   4.699 -0.7348  0.1594 -0.0656
17913SOL    HW255414   6.583   9.555   4.569  0.3852  0.1571 -0.7398
17914SOL     OW55415   7.138   7.775   0.324  0.0020  0.7926  0.5327
17914SOL    HW155416   7.136   7.750   0.232 -0.7353  1.8825  0.2336
17914SOL    HW255417   7.194   7.709   0.366  3.1572  2.1186 -1.2438
17915SOL     OW55418   3.007   9.647   9.050  0.2234 -0.3027 -0.2395
17915SOL    HW155419   3.030   9.677   8.962  0.2485 -1.4506 -0.6425
17915SOL    HW255420   2.914   9.625   9.044 -0.5289  2.2388  0.7972
17916SOL     OW55421   5.950   2.850   8.319  0.2578  0.0549 -0.2128
17916SOL    HW155422   6.039   2.871   8.291  0.5140 -1.8800 -1.0283
17916SOL    HW255423   5.911   2.806   8.244 -0.4669 -1.5235  1.0136
17917SOL     OW55424   0.915   0.155   1.462 -0.5397 -0.0459 -0.2757
17917SOL    HW155425   1.003   0.120   1.473  0.7017  2.3013 -1.8175
17917SOL    HW255426   0.867   0.087   1.414 -0.0630 -1.9289  1.7801
17918SOL     OW55427   3.429   4.015   7.866 -0.4515 -0.1807  0.1317
17918SOL    HW155428   3.445   3.973   7.781 -1.5211 -0.6684  0.1598
17918SOL    HW255429   3.508   3.998   7.917  0.1972  0.1099 -0.7607
17919SOL     OW55430   4.286   7.902   4.141 -0.3549  1.0767  0.8340
17919SOL    HW155431   4.317   7.826   4.093 -1.8529  1.6173 -1.1217
17919SOL    HW255432   4.303   7.881   4.233 -0.7085 -1.5975  0.3726
17920SOL     OW55433   1.534   5.201   0.809 -0.6755  0.1723 -0.0914
17920SOL    HW155434   1.540   5.227   0.901  0.4358  0.3702 -0.2057
17920SOL    HW255435   1.606   5.140   0.797 -1.3287 -0.5195 -0.6327
17921SOL     OW55436   7.553   8.522   2.183 -0.7477  0.0886  0.3839
17921SOL    HW155437   7.554   8.457   2.112  1.3482  0.1659  0.2579
17921SOL    HW255438   7.626   8.581   2.162 -0.8003  0.7860  2.0063
17922SOL     OW55439   8.371   3.617   3.866  0.1973  0.2327  0.1054
17922SOL    HW155440   8.465   3.603   3.854 -0.2150 -0.7378 -2.7281
17922SOL    HW255441   8.345   3.672   3.792 -1.5411  0.1268  0.5950
17923SOL     OW55442   6.346   1.756   2.565  0.2851 -0.0709 -0.8329
17923SOL    HW155443   6.406   1.757   2.639 -0.2286  0.1940 -0.4146
17923SOL    HW255444   6.360   1.841   2.522 -1.1978  0.8585  0.4279
17924SOL     OW55445   4.498   9.423   0.471 -0.3265  0.3179 -0.9904
17924SOL    HW155446   4.556   9.499   0.469 -0.7188  0.6161 -1.2799
17924SOL    HW255447   4.440   9.436   0.395 -2.3700  1.2976  0.6337
17925SOL     OW55448   1.118   3.930   0.837 -0.1147 -0.6974  0.5158
17925SOL    HW155449   1.101   4.001   0.774 -0.2328 -1.5120 -0.4049
17925SOL    HW255450   1.034   3.918   0.882 -1.7601 -3.5127 -2.7855
17926SOL     OW55451   4.197   2.784   2.655 -0.3384 -0.1341  0.5096
17926SOL    HW155452   4.202   2.763   2.749 -1.7647 -0.4450  0.5320
17926SOL    HW255453   4.182   2.700   2.612 -0.5571  0.1213  0.0806
17927SOL     OW55454   7.219   4.642   6.810 -0.0727 -0.2979 -0.2487
17927SOL    HW155455   7.202   4.601   6.894  0.4242 -0.9107 -0.4404
17927SOL    HW255456   7.178   4.728   6.817 -1.3277 -0.8895  0.0858
17928SOL     OW55457   6.292   9.035   7.758  0.6105  0.2225 -0.1889
17928SOL    HW155458   6.215   9.089   7.742  1.8402  2.1190 -0.0423
17928SOL    HW255459   6.292   8.971   7.686  0.4737  2.0675 -1.9177
17929SOL     OW55460   0.530   1.572   4.731 -0.9458  0.1201 -0.1846
17929SOL    HW155461   0.550   1.665   4.740  2.4084 -0.4281 -0.9738
17929SOL    HW255462   0.480   1.551   4.810  1.9578  1.7226  2.2819
17930SOL     OW55463   3.331   4.524   5.501  0.1893  0.7185  0.7491
17930SOL    HW155464   3.384   4.599   5.476  0.0547  0.3108 -0.8869
17930SOL    HW255465   3.353   4.456   5.437 -1.0691 -0.0065  1.0422
17931SOL     OW55466   8.337   8.583   8.431 -0.1053  0.1352 -0.1462
17931SOL    HW155467   8.244   8.573   8.413 -0.0833 -0.2827 -0.0468
17931SOL    HW255468   8.363   8.500   8.471  0.5561 -0.2048 -1.2284
17932SOL     OW55469   5.342   8.393   2.864 -0.1836 -0.1414  0.0452
17932SOL    HW155470   5.376   8.463   2.808 -1.9449 -0.5760 -1.6503
17932SOL    HW255471   5.343   8.431   2.952  0.2255  1.5054 -0.6339
17933SOL     OW55472   9.560   2.056   0.187 -0.2589 -0.6728  0.4217
17933SOL    HW155473   9.544   1.980   0.131 -0.9683 -0.7822  0.7684
17933SOL    HW255474   9.613   2.021   0.259  2.4856 -0.1357 -1.1778
17934SOL     OW55475   5.473   1.037   1.047  0.1879  0.5027 -0.1671
17934SOL    HW155476   5.554   1.040   1.099 -0.2046 -0.2602  0.5039
17934SOL    HW255477   5.502   1.057   0.958  1.2180 -0.2881 -0.0385
17935SOL     OW55478   1.725   0.355   1.875  0.1027 -0.0616 -0.3431
17935SOL    HW155479   1.730   0.383   1.783  0.3048 -0.4322 -0.4456
17935SOL    HW255480   1.798   0.400   1.917 -1.6102  2.3649  0.2533
17936SOL     OW55481   7.479   4.001   9.637 -0.5380 -0.2220 -0.1329
17936SOL    HW155482   7.566   4.021   9.673 -1.6866 -0.4291  3.0649
17936SOL    HW255483   7.478   3.906   9.629 -0.6803 -0.2867  0.5492
17937SOL     OW55484   2.972   7.193   6.484  0.0610 -0.1744  0.4182
17937SOL    HW155485   3.035   7.190   6.556 -0.8733  1.5983  1.3787
17937SOL    HW255486   2.893   7.233   6.522 -0.4527  0.8788 -1.5705
17938SOL     OW55487   8.128   2.663   8.696  0.1435  0.2168  0.3378
17938SOL    HW155488   8.209   2.613   8.707  0.6336  0.9090 -0.0687
17938SOL    HW255489   8.154   2.753   8.712 -0.2318  0.6326 -1.2373
17939SOL     OW55490   3.089   0.640   8.707 -0.0071 -0.1511 -1.0551
17939SOL    HW155491   3.021   0.622   8.771  0.3496 -0.0500 -0.6473
17939SOL    HW255492   3.131   0.721   8.736 -0.1332  0.1388 -1.6587
17940SOL     OW55493   1.103   0.656   7.015  0.4311  0.5520  0.0428
17940SOL    HW155494   1.192   0.673   6.983 -0.4156  2.0939 -1.6877
17940SOL    HW255495   1.062   0.742   7.020 -0.9693 -0.1269  0.8311
17941SOL     OW55496   8.910   3.875   7.862  0.1056  0.2797 -0.1975
17941SOL    HW155497   8.897   3.801   7.921  1.2092 -0.6127 -1.0079
17941SOL    HW255498   9.005   3.880   7.851 -0.0738 -0.5721 -3.0207
17942SOL     OW55499   5.696   8.439   7.442  0.5149  0.2202 -0.0173
17942SOL    HW155500   5.694   8.385   7.521 -0.6133  1.5638  0.9363
17942SOL    HW255501   5.606   8.468   7.430  0.4126 -0.8625 -2.5103
17943SOL     OW55502   9.551   3.488   6.099 -0.2337  0.0153  0.3550
17943SOL    HW155503   9.621   3.427   6.077  0.5379  1.5042 -1.6138
17943SOL    HW255504   9.592   3.574   6.094 -2.3902  1.0131 -1.9888
17944SOL     OW55505   5.616   6.850   6.075  0.5623  0.0678  0.2248
17944SOL    HW155506   5.708   6.871   6.087  1.5079 -3.5229  0.5013
17944SOL    HW255507   5.614   6.754   6.070 -3.1802 -0.0055  0.3668
17945SOL     OW55508   4.083   9.490   5.368  0.7943 -0.4212  0.4953
17945SOL    HW155509   4.077   9.569   5.315 -0.4233  0.1707  1.4701
17945SOL    HW255510   4.085   9.521   5.458 -0.2323 -1.5132  0.9239
17946SOL     OW55511   7.984   7.924   8.913  0.0669 -0.5942  0.0027
17946SOL    HW155512   8.001   7.855   8.849 -1.9888 -0.9447 -0.2348
17946SOL    HW255513   7.984   7.879   8.998  0.2942 -0.5956  0.0016
17947SOL     OW55514   0.153   1.029   2.919 -0.1522 -0.3761  0.2970
17947SOL    HW155515   0.205   0.951   2.937  1.2528  0.8078  1.6362
17947SOL    HW255516   0.089   1.033   2.990  1.0559  0.7036  1.3700
17948SOL     OW55517   5.839   6.631   7.626 -0.4102  0.6327  0.2273
17948SOL    HW155518   5.867   6.712   7.584  1.6957  0.3153  0.9172
17948SOL    HW255519   5.851   6.564   7.559 -2.2580  0.8538 -0.3803
17949SOL     OW55520   7.840   3.370   3.100  0.0060  0.1755 -0.6213
17949SOL    HW155521   7.766   3.310   3.111  1.9986 -2.6037 -1.3013
17949SOL    HW255522   7.813   3.450   3.146 -3.4073 -0.6303 -0.9419
17950SOL     OW55523   9.464   9.469   9.488 -0.1585 -0.1490 -0.0700
17950SOL    HW155524   9.445   9.376   9.497  1.3354 -0.7853 -2.5507
17950SOL    HW255525   9.546   9.482   9.536  0.9851 -0.7293 -1.7777
17951SOL     OW55526   5.944   0.639   4.212 -0.2240 -0.0584  0.1659
17951SOL    HW155527   6.007   0.598   4.153 -1.0492  1.4733 -1.9169
17951SOL    HW255528   5.863   0.589   4.200 -0.1827 -0.2301  0.6009
17952SOL     OW55529   5.613   1.035   6.708 -0.0878 -0.2966  0.2371
17952SOL    HW155530   5.652   1.009   6.792 -0.0814 -0.9741  0.0251
17952SOL    HW255531   5.684   1.079   6.661 -0.0591 -0.0183  0.5329
17953SOL     OW55532   6.682   7.276   4.378 -0.0852  0.8866  0.0332
17953SOL    HW155533   6.607   7.312   4.425 -0.0751 -1.8369  2.4146
17953SOL    HW255534   6.752   7.273   4.444  1.4155  1.1600 -1.4811
17954SOL     OW55535   4.201   3.818   4.905  0.3599 -0.2185  0.0020
17954SOL    HW155536   4.252   3.754   4.954  0.4731 -0.4737 -0.4447
17954SOL    HW255537   4.144   3.858   4.970  1.4665  0.4226  0.6034
17955SOL     OW55538   5.675   2.114   4.452 -0.2622 -0.4607  0.0537
17955SOL    HW155539   5.700   2.051   4.385  0.9843 -1.1427  1.1203
17955SOL    HW255540   5.632   2.062   4.519  0.2986 -0.0990  0.6995
17956SOL     OW55541   4.803   5.189   1.247  0.3830  0.4640 -0.5332
17956SOL    HW155542   4.878   5.174   1.190  2.0024 -2.6450  2.0446
17956SOL    HW255543   4.837   5.240   1.320  0.0641 -0.8799  0.6118
17957SOL     OW55544   2.256   5.312   8.501  0.0211 -0.1052 -0.2580
17957SOL    HW155545   2.274   5.300   8.408 -1.6850  0.5330 -0.7161
17957SOL    HW255546   2.238   5.406   8.510 -0.8990 -0.3376  0.4844
17958SOL     OW55547   2.576   3.044   1.771 -0.0073  0.4168 -0.0267
17958SOL    HW155548   2.644   3.084   1.827  1.0879 -0.7130 -0.5094
17958SOL    HW255549   2.512   3.009   1.833  1.5558 -1.4769  0.6215
17959SOL     OW55550   0.118   4.341   0.831  0.5579 -0.1200 -0.4153
17959SOL    HW155551   0.094   4.250   0.850 -1.7164 -0.0022 -2.2363
17959SOL    HW255552   0.160   4.337   0.746  1.5402  0.4369  0.0275
17960SOL     OW55553   1.548   8.528   8.618 -0.1309 -0.1681  0.2914
17960SOL    HW155554   1.522   8.580   8.693  0.9050  0.0753  0.4970
17960SOL    HW255555   1.476   8.536   8.556 -1.4558 -1.1901  1.6497
17961SOL     OW55556   5.907   6.235   5.270  0.4074 -0.5679  0.7479
17961SOL    HW155557   5.863   6.248   5.354  1.2703  0.8158  1.0218
17961SOL    HW255558   5.976   6.171   5.289 -0.2888 -1.3345  0.7457
17962SOL     OW55559   1.022   0.937   2.863 -0.0867  0.3890  0.0132
17962SOL    HW155560   1.058   0.853   2.894  1.9798  1.0140 -0.5072
17962SOL    HW255561   0.973   0.914   2.784  0.9992 -0.3030 -0.4953
17963SOL     OW55562   7.116   4.418   7.297 -0.5358  0.1627 -0.0433
17963SOL    HW155563   7.108   4.513   7.307 -1.6835 -0.1244  2.8788
17963SOL    HW255564   7.064   4.397   7.219  2.1005  2.1214 -2.5379
17964SOL     OW55565   2.422   5.960   0.040  0.1858  0.6871 -0.0137
17964SOL    HW155566   2.412   5.873   0.080  0.9071 -0.3175 -1.8971
17964SOL    HW255567   2.515   5.980   0.047 -0.0809  1.6661  1.0396
17965SOL     OW55568   4.706   8.683   7.790  0.5200  0.1012  0.1532
17965SOL    HW155569   4.687   8.625   7.717  0.6120 -0.0738  0.2656
17965SOL    HW255570   4.777   8.738   7.759 -1.0046  1.6401 -0.7290
17966SOL     OW55571   7.271   0.816   0.703 -0.0789 -0.0103 -0.2646
17966SOL    HW155572   7.312   0.807   0.618  1.9687  0.9814  0.5493
17966SOL    HW255573   7.228   0.902   0.700 -0.7570 -0.3534 -0.5722
17967SOL     OW55574   3.834   6.818   3.734 -0.0248  0.2862  0.0612
17967SOL    HW155575   3.740   6.805   3.744  0.0205  1.6244  3.5225
17967SOL    HW255576   3.845   6.912   3.726  1.0265  0.0691 -1.7511
17968SOL     OW55577   0.163   4.870   2.066  0.5470 -0.1859 -0.1575
17968SOL    HW155578   0.159   4.944   2.004 -0.4451 -0.2590 -0.2021
17968SOL    HW255579   0.075   4.833   2.063  1.3192 -2.0707 -0.9604
17969SOL     OW55580   8.237   9.466   7.020 -0.0064 -0.2227 -0.1682
17969SOL    HW155581   8.258   9.391   7.076 -0.0403 -0.5395 -0.5786
17969SOL    HW255582   8.272   9.542   7.068 -1.6044 -0.2595  1.1779
17970SOL     OW55583   9.458   0.262   3.945 -0.1009 -0.2883  0.0724
17970SOL    HW155584   9.470   0.170   3.967 -2.0508 -0.5378  0.2090
17970SOL    HW255585   9.547   0.295   3.931  0.6580 -2.0476  0.5331
17971SOL     OW55586   6.544   7.832   6.597  0.2135 -0.0611  0.0122
17971SOL    HW155587   6.607   7.892   6.557  1.2583 -0.8570  0.4039
17971SOL    HW255588   6.572   7.826   6.688 -1.4174  0.7997  0.6055
17972SOL     OW55589   3.703   2.006   0.654  0.2210 -0.2722 -0.3032
17972SOL    HW155590   3.719   2.076   0.718  0.9502 -0.8665  0.1819
17972SOL    HW255591   3.773   2.016   0.590 -1.7940  1.7730 -2.3685
17973SOL     OW55592   4.973   1.804   4.643 -0.0273 -0.4131  0.3952
17973SOL    HW155593   5.050   1.857   4.664  1.1801 -2.4286  1.3164
17973SOL    HW255594   4.904   1.868   4.626  1.2849  1.4528  1.7219
17974SOL     OW55595   4.534   7.583   6.062 -0.2118  0.2562 -0.0299
17974SOL    HW155596   4.551   7.560   5.971 -0.9297  2.1306 -0.6783
17974SOL    HW255597   4.469   7.519   6.091  0.5394 -0.7901 -0.5952
17975SOL     OW55598   5.867   2.603   2.245 -0.1035  0.0864  0.2547
17975SOL    HW155599   5.909   2.640   2.322 -1.8672  0.1464  1.2177
17975SOL    HW255600   5.914   2.642   2.171  1.9774 -0.3947  1.2478
17976SOL     OW55601   6.071   8.977   2.209  0.3013  0.0037  0.4936
17976SOL    HW155602   6.155   8.963   2.166  0.3820  1.4015  0.1492
17976SOL    HW255603   6.039   9.060   2.174 -2.1660 -1.3715 -0.8919
17977SOL     OW55604   1.848   2.945   7.528  0.6449  0.2703 -0.3868
17977SOL    HW155605   1.876   2.858   7.500  0.9823  0.1381  0.3253
17977SOL    HW255606   1.926   2.983   7.569  0.3309  0.6715 -0.1518
17978SOL     OW55607   2.754   3.169   9.530  0.1889 -0.0161  0.5358
17978SOL    HW155608   2.697   3.204   9.598 -0.0080  0.0417  0.3425
17978SOL    HW255609   2.817   3.114   9.577  0.4974  0.5905  0.8396
17979SOL     OW55610   2.147   1.426   8.539 -0.0994  0.2167 -0.1898
17979SOL    HW155611   2.072   1.473   8.575 -1.9643 -2.0420 -0.9065
17979SOL    HW255612   2.113   1.381   8.462  1.9447 -1.0404 -0.4304
17980SOL     OW55613   9.668   6.250   5.003 -0.4148  0.2245 -0.8614
17980SOL    HW155614   9.751   6.295   4.985  0.3747 -1.0564 -0.6022
17980SOL    HW255615   9.603   6.299   4.954  0.1862  2.3298  0.3178
17981SOL     OW55616   8.576   9.536   7.637  0.0432 -0.7318 -0.2187
17981SOL    HW155617   8.582   9.557   7.544  0.5407 -2.2041 -0.5465
17981SOL    HW255618   8.637   9.596   7.680  0.0778 -0.2901 -0.8770
17982SOL     OW55619   3.247   0.771   1.553 -0.1882 -0.6779  0.2166
17982SOL    HW155620   3.286   0.694   1.594 -1.1860 -2.3285 -1.7810
17982SOL    HW255621   3.207   0.738   1.473  0.5644  2.1760 -1.4637
17983SOL     OW55622   6.629   6.296   1.592  0.0848  0.3566  0.1441
17983SOL    HW155623   6.595   6.223   1.540 -0.4783  0.0019  0.9865
17983SOL    HW255624   6.656   6.361   1.528 -0.1592 -0.2628 -0.5996
17984SOL     OW55625   1.516   1.455   3.252 -0.1941  0.2380 -0.2629
17984SOL    HW155626   1.511   1.396   3.327 -0.1734 -0.0377 -0.4760
17984SOL    HW255627   1.540   1.540   3.289  0.2542  0.0017 -0.0054
17985SOL     OW55628   2.362   1.732   3.410 -0.3108 -0.3950 -0.5800
17985SOL    HW155629   2.327   1.741   3.321 -0.7094 -0.5950 -0.4448
17985SOL    HW255630   2.326   1.807   3.457 -0.7294 -0.7207 -0.3843
17986SOL     OW55631   4.208   1.477   7.694  0.1100  0.0264 -0.3163
17986SOL    HW155632   4.180   1.433   7.774 -0.0078 -2.1187 -1.4782
17986SOL    HW255633   4.300   1.498   7.710  0.2883 -1.0386  0.1296
17987SOL     OW55634   1.780   3.894   2.434 -0.5403  0.4025  0.0189
17987SOL    HW155635   1.821   3.809   2.417 -1.1524 -0.0393  0.6638
17987SOL    HW255636   1.812   3.951   2.363 -0.4762 -0.4809 -0.6842
17988SOL     OW55637   8.215   3.738   9.497 -0.6741 -0.4422  0.0499
17988SOL    HW155638   8.277   3.714   9.566 -0.7817 -2.1745 -0.3965
17988SOL    HW255639   8.129   3.726   9.537 -0.7665  1.1269  0.3993
17989SOL     OW55640   4.609   6.843   9.399 -0.2078  0.7050 -0.5604
17989SOL    HW155641   4.615   6.896   9.320 -1.8005  2.0733  0.1607
17989SOL    HW255642   4.515   6.833   9.414  0.0530 -1.2163  0.0916
17990SOL     OW55643   2.306   0.088   6.230  0.1959  0.5026 -0.1734
17990SOL    HW155644   2.251   0.085   6.152 -0.1941  0.6714  0.0937
17990SOL    HW255645   2.386   0.132   6.201  0.0883  0.4898 -0.4984
17991SOL     OW55646   4.249   7.827   7.609 -0.3369  0.2451 -0.0419
17991SOL    HW155647   4.323   7.769   7.624 -1.9082 -1.4496  1.6629
17991SOL    HW255648   4.268   7.905   7.661  0.3236 -0.1034  0.2465
17992SOL     OW55649   1.199   6.936   1.213  0.1355  0.5128 -0.2396
17992SOL    HW155650   1.276   6.993   1.220  0.3006  0.2005  0.6433
17992SOL    HW255651   1.207   6.896   1.126  2.2027 -1.2209  0.6565
17993SOL     OW55652   2.698   9.309   5.863  0.3198  0.9488 -0.1978
17993SOL    HW155653   2.753   9.232   5.848 -0.4008  0.3573  0.1337
17993SOL    HW255654   2.644   9.315   5.785  0.3774  1.1249 -0.2242
17994SOL     OW55655   0.400   1.800   3.743  0.0797  0.4453 -0.2504
17994SOL    HW155656   0.335   1.745   3.788 -0.0204  1.7723  1.3258
17994SOL    HW255657   0.351   1.840   3.672 -0.3363 -0.0065 -0.2306
17995SOL     OW55658   2.563   4.493   1.682 -0.0744  0.3046  0.0986
17995SOL    HW155659   2.641   4.440   1.695 -0.2719 -0.2644 -0.9680
17995SOL    HW255660   2.527   4.505   1.770  0.6091 -0.3378  0.4714
17996SOL     OW55661   9.064   3.778   7.166 -0.8318  0.0193 -0.2708
17996SOL    HW155662   9.159   3.779   7.156 -0.7870 -0.8675 -0.0133
17996SOL    HW255663   9.043   3.862   7.207 -0.2807  0.6814 -1.2929
17997SOL     OW55664   4.495   5.298   2.819  0.6675  0.2385  0.1371
17997SOL    HW155665   4.437   5.359   2.774  1.5286  1.4394  0.6187
17997SOL    HW255666   4.582   5.317   2.784  0.8126 -1.4809 -0.5117
17998SOL     OW55667   5.163   5.509   4.362 -0.1220  0.5933 -0.1345
17998SOL    HW155668   5.142   5.542   4.275  2.1208 -0.2877 -1.0911
17998SOL    HW255669   5.090   5.452   4.384  0.6529 -1.7543 -2.9291
17999SOL     OW55670   5.848   7.597   6.080  0.3216  0.4709 -0.0265
17999SOL    HW155671   5.776   7.647   6.044  1.4047  2.7987  0.8305
17999SOL    HW255672   5.873   7.645   6.160  0.5454 -2.2449  1.6734
18000SOL     OW55673   1.975   4.266   8.670 -0.0349 -0.3382  0.6158
18000SOL    HW155674   1.969   4.357   8.639  0.5009 -0.1717  0.9919
18000SOL    HW255675   1.997   4.216   8.592 -0.4651 -0.1703  0.3780
18001SOL     OW55676   4.121   4.048   3.089 -0.0059 -0.4063  0.3760
18001SOL    HW155677   4.152   3.986   3.024  1.4427 -0.8581  1.4351
18001SOL    HW255678   4.154   4.133   3.060  0.4822 -0.5802  0.4097
18002SOL     OW55679   3.698   6.616   9.178 -0.3904  0.0063  0.0532
18002SOL    HW155680   3.668   6.612   9.087  1.1097 -0.6676 -0.4402
18002SOL    HW255681   3.680   6.706   9.205 -0.7848  0.2402 -0.9388
18003SOL     OW55682   7.324   0.990   7.198  0.2121  0.5085  0.1432
18003SOL    HW155683   7.365   0.913   7.159 -0.3817  0.6560 -0.7943
18003SOL    HW255684   7.303   0.964   7.287  0.6229 -0.1911  0.0395
18004SOL     OW55685   3.834   8.334   1.971  0.0754 -0.9678 -0.4686
18004SOL    HW155686   3.800   8.356   2.058  2.6742 -1.9046  0.8716
18004SOL    HW255687   3.925   8.308   1.986  0.5398 -1.4143 -3.4552
18005SOL     OW55688   1.034   0.155   1.944  0.2602 -0.1864 -0.5388
18005SOL    HW155689   0.942   0.170   1.923 -0.2982  0.2785  1.8476
18005SOL    HW255690   1.057   0.075   1.897 -1.8996 -1.2900  0.1262
18006SOL     OW55691   7.011   8.250   6.304 -0.3392 -0.3518  0.6576
18006SOL    HW155692   7.086   8.291   6.261 -0.3659  0.6651  1.5098
18006SOL    HW255693   7.019   8.277   6.396 -1.2588 -0.9643  0.9356
18007SOL     OW55694   5.989   5.557   7.715 -0.4722  0.9164  0.3008
18007SOL    HW155695   5.954   5.646   7.702 -1.4363  0.4172 -0.6517
18007SOL    HW255696   5.924   5.514   7.771  0.9502  1.3531  2.4360
18008SOL     OW55697   6.246   9.129   1.601 -0.4389  0.1378 -0.1451
18008SOL    HW155698   6.337   9.103   1.583 -0.2288  1.4292 -1.0831
18008SOL    HW255699   6.213   9.061   1.660  1.6527  0.5102  1.5700
18009SOL     OW55700   4.430   7.432   7.597  0.1646 -0.7091 -0.1861
18009SOL    HW155701   4.493   7.471   7.657 -2.1196  1.2361  1.1048
18009SOL    HW255702   4.349   7.479   7.613 -1.4799 -2.5982 -2.2841
18010SOL     OW55703   8.423   3.127   7.314 -0.4849  0.3644 -0.1198
18010SOL    HW155704   8.385   3.143   7.227  0.8517  1.8649 -0.4708
18010SOL    HW255705   8.494   3.064   7.298 -0.9393 -0.2077  0.0778
18011SOL     OW55706   8.855   8.242   6.134 -0.3505 -0.3279 -0.4383
18011SOL    HW155707   8.902   8.324   6.148 -0.5313 -0.2913 -0.0331
18011SOL    HW255708   8.888   8.210   6.050 -1.3409  0.9034 -1.3492
18012SOL     OW55709   7.074   3.381   7.860  0.5505  0.0252 -0.2059
18012SOL    HW155710   7.042   3.468   7.882  2.7540  1.1252 -1.0440
18012SOL    HW255711   7.106   3.346   7.944 -0.0181  0.1469  0.0691
18013SOL     OW55712   5.471   1.252   6.868  0.0666 -0.1393  0.2506
18013SOL    HW155713   5.385   1.221   6.896  0.4976 -0.2265  1.5472
18013SOL    HW255714   5.518   1.172   6.844  0.5852 -0.3792  1.9103
18014SOL     OW55715   7.955   0.488   9.575  0.3666  0.1851 -0.0492
18014SOL    HW155716   8.040   0.509   9.537  0.1942 -0.4495 -0.8201
18014SOL    HW255717   7.919   0.420   9.518 -0.6227  0.3794  0.3158
18015SOL     OW55718   6.301   6.919   1.295 -0.2751 -0.0806 -0.3379
18015SOL    HW155719   6.302   6.823   1.294 -0.7401 -0.0995  0.3366
18015SOL    HW255720   6.363   6.945   1.226  1.7555 -0.8758  1.0917
18016SOL     OW55721   9.128   2.723   8.750  0.5444 -0.8588  0.0318
18016SOL    HW155722   9.078   2.767   8.682  0.3589 -1.6310 -0.3381
18016SOL    HW255723   9.164   2.645   8.707  1.4068 -0.7329  0.5011
18017SOL     OW55724   3.638   5.847   1.277  0.5497 -0.4352 -0.1100
18017SOL    HW155725   3.566   5.909   1.276  0.8492 -0.0526  0.9100
18017SOL    HW255726   3.610   5.778   1.337  1.1349 -0.1545  0.4915
18018SOL     OW55727   8.104   9.388   0.269 -0.3792 -0.0842 -0.2285
18018SOL    HW155728   8.090   9.312   0.212  1.6017  0.5554 -1.7072
18018SOL    HW255729   8.085   9.463   0.213  0.2446  0.5355  0.3718
18019SOL     OW55730   6.281   8.447   8.398  0.2162  0.3489  0.1010
18019SOL    HW155731   6.359   8.468   8.347 -0.3954 -0.9552 -1.4678
18019SOL    HW255732   6.208   8.477   8.343 -0.4891 -1.5574 -0.0869
18020SOL     OW55733   6.366   2.632   7.431  0.4835  0.3908 -0.0519
18020SOL    HW155734   6.392   2.715   7.391 -1.7781  0.5816 -1.2941
18020SOL    HW255735   6.291   2.654   7.487 -1.4601 -0.9717 -1.9151
18021SOL     OW55736   0.102   5.565   1.891  0.0322  0.5892  0.0750
18021SOL    HW155737   0.051   5.609   1.823 -3.1290 -2.2285  0.3631
18021SOL    HW255738   0.171   5.519   1.844 -1.1318 -0.0369 -1.0467
18022SOL     OW55739   9.032   0.788   5.513  0.3497 -0.2899 -0.0140
18022SOL    HW155740   9.082   0.753   5.587 -0.5620 -1.9737 -0.1491
18022SOL    HW255741   9.098   0.814   5.449  1.0890 -2.5535 -0.2340
18023SOL     OW55742   7.693   1.795   3.466 -0.0572  0.4032 -0.1177
18023SOL    HW155743   7.674   1.709   3.505 -0.4331  0.7858  0.5544
18023SOL    HW255744   7.760   1.833   3.523  0.6372  0.2689 -0.8277
18024SOL     OW55745   6.798   1.916   3.935  0.1536 -0.4336  0.1428
18024SOL    HW155746   6.812   2.010   3.947  2.2137 -0.9172  2.4318
18024SOL    HW255747   6.716   1.909   3.886  0.2961  2.5435 -0.6783
18025SOL     OW55748   6.330   3.362   1.365  0.0358 -0.9027  0.2486
18025SOL    HW155749   6.286   3.401   1.290  0.7948 -0.7779 -0.1450
18025SOL    HW255750   6.268   3.298   1.400  0.3653 -2.2881 -1.5845
18026SOL     OW55751   5.440   9.415   8.541 -0.1996  0.3042 -1.1505
18026SOL    HW155752   5.497   9.405   8.465 -0.8040  3.2899 -2.1408
18026SOL    HW255753   5.357   9.447   8.504 -0.9774  0.4453  0.6417
18027SOL     OW55754   0.956   3.169   1.597 -0.5188 -0.3329  0.0087
18027SOL    HW155755   0.963   3.143   1.689  1.0324  0.3979  0.1241
18027SOL    HW255756   1.040   3.144   1.559 -0.2776  1.4341 -0.6711
18028SOL     OW55757   9.117   0.437   5.309 -0.1123  0.0319 -0.5780
18028SOL    HW155758   9.116   0.360   5.251 -1.5499 -0.8809  0.5700
18028SOL    HW255759   9.138   0.510   5.251 -0.3506 -0.9986 -2.0328
18029SOL     OW55760   5.313   3.753   2.857  0.0602 -0.2571  0.2159
18029SOL    HW155761   5.283   3.803   2.932  0.8619  0.6942 -0.0832
18029SOL    HW255762   5.241   3.760   2.793 -0.4387 -0.7121  0.7185
18030SOL     OW55763   4.085   0.783   8.506 -0.4497  0.2612  0.9684
18030SOL    HW155764   4.100   0.872   8.539 -0.8710  0.7182 -0.0510
18030SOL    HW255765   4.122   0.726   8.574  0.3851  1.2216  1.3440
18031SOL     OW55766   8.991   4.148   8.687 -0.4428 -0.0923  0.2376
18031SOL    HW155767   8.978   4.053   8.684  1.4595 -0.5371  2.6036
18031SOL    HW255768   8.917   4.184   8.639 -1.2963 -2.7626 -0.6185
18032SOL     OW55769   1.892   4.247   7.273 -0.0473 -0.1114 -0.2436
18032SOL    HW155770   1.806   4.258   7.233  0.3967  0.9140 -0.9702
18032SOL    HW255771   1.885   4.167   7.324 -1.3838 -0.1251 -0.4148
18033SOL     OW55772   0.081   0.943   3.502 -0.2508  0.0192  0.6349
18033SOL    HW155773   0.050   0.853   3.496 -2.4503  0.4826  3.1234
18033SOL    HW255774   0.022   0.985   3.564  0.3971  3.3473 -0.7703
18034SOL     OW55775   5.109   0.045   8.713  0.0451  0.3310  0.0433
18034SOL    HW155776   5.061  -0.001   8.644  1.3450  0.2063 -0.7937
18034SOL    HW255777   5.127   0.131   8.676  1.5201 -0.0345 -0.1521
18035SOL     OW55778   2.348   9.237   2.050  0.1140  0.3735  0.1260
18035SOL    HW155779   2.356   9.305   1.984  0.8397  0.9023  0.7480
18035SOL    HW255780   2.373   9.279   2.132 -2.3039  0.1849  1.0533
18036SOL     OW55781   3.148   9.506   3.199  0.0820  0.0588 -0.4963
18036SOL    HW155782   3.166   9.414   3.217 -2.0244 -0.4188 -0.5545
18036SOL    HW255783   3.061   9.521   3.238  1.2325  2.5912  1.4007
18037SOL     OW55784   4.066   3.116   5.211 -0.0145  0.3660 -0.1325
18037SOL    HW155785   4.078   3.178   5.139  0.8921  0.5833  0.1948
18037SOL    HW255786   4.125   3.147   5.280  0.6005 -0.9574 -0.0322
18038SOL     OW55787   9.495   4.718   4.120  0.1590 -0.0619 -0.1835
18038SOL    HW155788   9.588   4.722   4.142 -0.0208 -0.7930  0.7751
18038SOL    HW255789   9.491   4.741   4.027  1.4505 -1.4117 -0.6056
18039SOL     OW55790   2.685   5.599   7.251  0.6762  0.5275  0.2676
18039SOL    HW155791   2.762   5.549   7.278 -0.0871 -0.9910 -0.2338
18039SOL    HW255792   2.720   5.683   7.222  2.1183 -0.0213  0.3140
18040SOL     OW55793   5.272   2.842   3.902 -0.5374  0.1116  0.1513
18040SOL    HW155794   5.209   2.806   3.839  0.4221 -2.3109  0.4811
18040SOL    HW255795   5.338   2.885   3.848 -1.2236  0.6240 -0.3066
18041SOL     OW55796   7.964   9.616   6.641 -0.1193 -0.2376  0.1285
18041SOL    HW155797   8.057   9.595   6.634 -0.1875 -0.4605 -0.1167
18041SOL    HW255798   7.951   9.634   6.734  0.0115 -0.9532  0.2917
18042SOL     OW55799   9.246   7.920   6.791 -0.2594  0.5519 -0.0163
18042SOL    HW155800   9.246   7.957   6.703 -0.3646  1.2512  0.2766
18042SOL    HW255801   9.165   7.868   6.795  0.9147 -1.5304 -1.1634
18043SOL     OW55802   3.885   1.813   3.502 -0.1243  0.6555  0.1259
18043SOL    HW155803   3.918   1.852   3.583  1.5024  1.1485 -0.7368
18043SOL    HW255804   3.957   1.821   3.440 -0.3787 -2.0890 -0.6485
18044SOL     OW55805   5.436   1.138   5.373  0.2985 -0.0062  0.4753
18044SOL    HW155806   5.368   1.088   5.417 -1.0262  0.4523 -0.9371
18044SOL    HW255807   5.404   1.229   5.376  1.5396  0.4345  0.9933
18045SOL     OW55808   5.457   8.047   5.584  0.5262  0.1287  0.3855
18045SOL    HW155809   5.539   8.048   5.534  0.9146 -1.1744  0.9510
18045SOL    HW255810   5.427   7.956   5.579  1.1862 -0.3690  3.4371
18046SOL     OW55811   4.652   5.233   9.086 -0.4543 -0.0442 -0.3764
18046SOL    HW155812   4.638   5.311   9.140  0.4046  0.9522 -1.5474
18046SOL    HW255813   4.584   5.172   9.114 -1.0002  1.0286  0.7315
18047SOL     OW55814   5.454   0.987   7.089 -0.1747  0.6796 -0.1088
18047SOL    HW155815   5.394   0.952   7.022 -0.2984  0.2811  0.2073
18047SOL    HW255816   5.422   1.076   7.106 -0.2271  0.7341 -0.4775
18048SOL     OW55817   1.293   6.193   6.609 -0.0900  0.6874  0.3270
18048SOL    HW155818   1.260   6.112   6.571 -0.2760  0.9226 -0.0144
18048SOL    HW255819   1.312   6.171   6.700  0.1721  0.1723  0.1529
18049SOL     OW55820   5.330   5.039   6.274  0.1348 -0.1345  0.0974
18049SOL    HW155821   5.409   5.071   6.231  1.1049 -0.5531  1.4987
18049SOL    HW255822   5.316   4.951   6.239 -0.5417  0.4577 -1.1859
18050SOL     OW55823   0.796   8.720   2.983  0.1759 -0.1977 -0.3027
18050SOL    HW155824   0.737   8.761   3.046  1.1961  0.6548  0.1200
18050SOL    HW255825   0.739   8.666   2.929 -0.7192 -1.1574  1.4992
18051SOL     OW55826   2.165   1.982   4.454 -0.6692  0.0366 -0.4006
18051SOL    HW155827   2.154   1.892   4.486  0.0261 -0.1157 -0.5702
18051SOL    HW255828   2.253   2.007   4.482 -0.4257  0.2606 -1.3358
18052SOL     OW55829   5.566   8.703   6.308 -0.5910 -0.0525 -0.9903
18052SOL    HW155830   5.544   8.613   6.285  0.9050 -0.4349 -1.0060
18052SOL    HW255831   5.660   8.710   6.291  0.2512  0.2298  2.9898
18053SOL     OW55832   3.733   8.432   5.447  0.3247  0.6136 -0.3860
18053SOL    HW155833   3.761   8.400   5.532 -1.6043 -0.7912 -0.2039
18053SOL    HW255834   3.691   8.516   5.465  0.7215  0.7504 -0.0963
18054SOL     OW55835   8.035   5.123   4.728 -0.4750  0.0886 -0.3478
18054SOL    HW155836   8.042   5.206   4.776 -0.5147 -0.4475  0.6113
18054SOL    HW255837   7.965   5.138   4.665 -0.3614  0.8422 -0.3044
18055SOL     OW55838   3.566   6.880   4.455  0.6410 -0.0328 -0.2134
18055SOL    HW155839   3.527   6.870   4.542  1.3206  0.7885  0.1996
18055SOL    HW255840   3.626   6.805   4.446  0.1739 -0.4095 -0.1977
18056SOL     OW55841   4.345   6.390   3.215 -0.2348 -0.5847 -0.1447
18056SOL    HW155842   4.393   6.433   3.144 -0.9566  0.2253 -0.1594
18056SOL    HW255843   4.258   6.373   3.178 -0.1616 -1.4693  0.0818
18057SOL     OW55844   8.210   2.584   2.077 -0.2447  0.0121 -0.3524
18057SOL    HW155845   8.250   2.594   2.164 -0.1987 -0.1497 -0.3545
18057SOL    HW255846   8.275   2.535   2.027  1.3997  3.1412 -1.5943
18058SOL     OW55847   3.298   0.261   0.777  0.0494  0.2923  0.5544
18058SOL    HW155848   3.268   0.350   0.798 -1.5573  0.7991 -3.1110
18058SOL    HW255849   3.220   0.207   0.785  0.2236 -0.1287 -0.4905
18059SOL     OW55850   0.118   7.350   1.137 -0.3112 -0.7934 -0.2102
18059SOL    HW155851   0.044   7.371   1.080 -0.6996 -0.9143  0.2379
18059SOL    HW255852   0.196   7.375   1.087 -0.6629 -0.5337 -0.6301
18060SOL     OW55853   6.541   1.028   4.385  0.1469 -0.1805 -0.5263
18060SOL    HW155854   6.593   1.004   4.308  1.2059 -0.7162  0.3393
18060SOL    HW255855   6.596   1.006   4.460 -0.6811  0.7682  0.3955
18061SOL     OW55856   5.424   5.836   7.306  0.6175 -0.3144 -0.1605
18061SOL    HW155857   5.467   5.912   7.265 -0.4243  0.0073 -0.6827
18061SOL    HW255858   5.343   5.872   7.343 -0.4642 -1.3666 -1.4225
18062SOL     OW55859   3.287   2.415   3.858 -1.0129 -0.7517 -0.1688
18062SOL    HW155860   3.247   2.485   3.807  1.2569  0.4220 -0.4374
18062SOL    HW255861   3.303   2.345   3.795  0.2127  0.0207 -0.7454
18063SOL     OW55862   5.226   1.155   3.241  0.1492  0.0281 -0.2178
18063SOL    HW155863   5.160   1.220   3.266 -0.8774 -0.8464 -0.5250
18063SOL    HW255864   5.225   1.091   3.312  2.0854  0.9627  0.7209
18064SOL     OW55865   8.678   3.400   1.666  0.0949 -0.7906 -0.3937
18064SOL    HW155866   8.743   3.337   1.634  0.4607  0.4638 -2.3088
18064SOL    HW255867   8.651   3.448   1.588 -0.3241  1.2968  0.9570
18065SOL     OW55868   2.739   9.126   5.570  0.1015  0.2154  0.0331
18065SOL    HW155869   2.819   9.173   5.547  0.0840  1.1899  1.7753
18065SOL    HW255870   2.691   9.118   5.488  1.0864  1.3609 -0.6895
18066SOL     OW55871   0.160   6.384   5.474  0.2658 -0.0783 -0.6675
18066SOL    HW155872   0.076   6.413   5.439 -1.0601 -0.5083  1.8743
18066SOL    HW255873   0.179   6.446   5.545  0.2877 -1.9095  1.0375
18067SOL     OW55874   6.487   7.835   8.590  0.7758 -0.3968 -0.3129
18067SOL    HW155875   6.527   7.896   8.529 -1.6879  0.2782 -1.3696
18067SOL    HW255876   6.545   7.759   8.589  2.2219  0.6606 -1.4113
18068SOL     OW55877   0.336   6.496   1.886 -0.2904  0.1093 -0.0882
18068SOL    HW155878   0.386   6.478   1.966 -1.8194  1.4166  1.2195
18068SOL    HW255879   0.397   6.544   1.831  1.7577 -3.2095 -1.0298
18069SOL     OW55880   7.923   9.397   8.262 -0.2036 -0.1446  0.2069
18069SOL    HW155881   7.863   9.322   8.268 -1.6352  1.0449  1.8479
18069SOL    HW255882   7.968   9.385   8.179 -1.3383 -2.1212 -0.1914
18070SOL     OW55883   1.577   4.857   4.292 -0.4522  0.1567  0.3322
18070SOL    HW155884   1.557   4.840   4.200  0.1634  0.8357  0.0636
18070SOL    HW255885   1.595   4.951   4.296 -0.0361  0.0541  1.0665
18071SOL     OW55886   2.348   8.360   2.078  0.4833 -0.0999  0.3211
18071SOL    HW155887   2.334   8.392   2.167  1.8322 -0.8333  0.8186
18071SOL    HW255888   2.346   8.439   2.024  2.8882  0.7986  1.4179
18072SOL     OW55889   4.870   2.639   2.215  0.0496  0.1169 -0.1004
18072SOL    HW155890   4.831   2.553   2.201  2.3476 -0.9828 -0.1486
18072SOL    HW255891   4.799   2.691   2.252 -1.6306 -1.5462 -0.7986
18073SOL     OW55892   9.227   0.057   6.540 -0.2709  0.0656  0.2365
18073SOL    HW155893   9.315   0.071   6.576  0.2501  0.5624 -1.1758
18073SOL    HW255894   9.172   0.043   6.617  0.4536  2.9064  1.3882
18074SOL     OW55895   2.120   9.124   1.751  0.4816 -0.7422 -0.0396
18074SOL    HW155896   2.168   9.200   1.719 -3.1402  1.7853 -0.0223
18074SOL    HW255897   2.104   9.071   1.673  1.3477 -0.4966 -0.3967
18075SOL     OW55898   6.343   0.094   0.333 -0.7916  0.4102 -0.4257
18075SOL    HW155899   6.302   0.108   0.248 -1.1015 -0.8280 -0.4893
18075SOL    HW255900   6.409   0.163   0.339 -1.6341  1.3115 -1.1053
18076SOL     OW55901   7.802   9.389   7.187 -0.5117 -0.1386  0.3578
18076SOL    HW155902   7.762   9.305   7.211 -0.5268  0.0555  1.0277
18076SOL    HW255903   7.785   9.397   7.093 -1.8646 -0.1606  0.5801
18077SOL     OW55904   4.014   9.240   4.840  0.0048 -0.2971 -0.2122
18077SOL    HW155905   4.069   9.317   4.854 -1.4876  0.7396  0.1583
18077SOL    HW255906   3.941   9.252   4.900 -1.2751 -0.9932 -1.5866
18078SOL     OW55907   0.223   8.108   8.588  0.5966 -0.2404  0.0078
18078SOL    HW155908   0.237   8.163   8.511 -0.1105 -0.5869 -0.3747
18078SOL    HW255909   0.276   8.149   8.657  1.9948 -0.4797 -0.9088
18079SOL     OW55910   2.167   7.747   9.100  0.1151  0.3093  0.2780
18079SOL    HW155911   2.107   7.676   9.076 -1.4568  1.0174  1.9518
18079SOL    HW255912   2.229   7.751   9.026 -0.6736 -1.7503 -0.5771
18080SOL     OW55913   1.415   6.885   0.521 -0.0105  0.0067  0.2763
18080SOL    HW155914   1.389   6.974   0.499  1.8104  0.0595 -2.0069
18080SOL    HW255915   1.511   6.885   0.515  0.0608 -2.0391  0.4885
18081SOL     OW55916   0.145   6.659   1.968 -0.0072  0.1797 -0.7249
18081SOL    HW155917   0.176   6.750   1.963 -1.1925  0.5536 -2.4880
18081SOL    HW255918   0.216   6.607   1.932  0.6760  0.3904  0.2822
18082SOL     OW55919   2.579   2.073   3.512  0.1472  0.6140  0.0430
18082SOL    HW155920   2.639   2.139   3.480  1.0854 -1.4327 -2.8994
18082SOL    HW255921   2.633   2.016   3.567  0.2972  0.2036 -0.5210
18083SOL     OW55922   2.709   9.546   6.230 -0.0883  0.0678  0.3395
18083SOL    HW155923   2.672   9.591   6.305 -1.4880 -0.4406 -0.0132
18083SOL    HW255924   2.636   9.539   6.168  0.2392 -2.1072  0.1344
18084SOL     OW55925   0.853   0.191   7.210  0.0597 -0.2044  0.1783
18084SOL    HW155926   0.772   0.181   7.260 -1.0618  2.2743 -0.9982
18084SOL    HW255927   0.905   0.252   7.261  0.1630  0.0614 -0.2429
18085SOL     OW55928   9.578   6.526   2.688  1.0432  0.4604 -0.1925
18085SOL    HW155929   9.619   6.549   2.605 -0.3392  0.9230 -0.7868
18085SOL    HW255930   9.484   6.530   2.670  0.7033 -1.7353  0.7671
18086SOL     OW55931   8.564   4.885   7.913  0.5061  0.1951 -0.0398
18086SOL    HW155932   8.637   4.829   7.889 -0.4258 -1.0294 -0.1409
18086SOL    HW255933   8.547   4.865   8.005 -0.2551 -0.1912 -0.2584
18087SOL     OW55934   2.658   6.848   0.828  0.3468  0.3775 -0.9359
18087SOL    HW155935   2.742   6.848   0.874  0.9156  1.2305 -1.9450
18087SOL    HW255936   2.671   6.790   0.753 -0.3374 -0.3950 -0.4797
18088SOL     OW55937   8.797   8.091   2.679 -0.3532  0.3438  0.2639
18088SOL    HW155938   8.884   8.088   2.720  0.4578  1.1209 -1.3104
18088SOL    HW255939   8.794   8.012   2.624 -0.3781  0.6436 -0.1684
18089SOL     OW55940   8.894   4.460   3.315 -0.2450 -0.3698  0.5334
18089SOL    HW155941   8.870   4.540   3.362 -2.5254 -1.1900  0.8859
18089SOL    HW255942   8.844   4.391   3.358 -0.2896 -1.5871 -1.3479
18090SOL     OW55943   3.321   4.533   8.334 -0.3125  0.1793 -0.3017
18090SOL    HW155944   3.321   4.623   8.303 -1.0635  0.1299 -0.4795
18090SOL    HW255945   3.383   4.487   8.277 -0.0060  0.5569 -0.2731
18091SOL     OW55946   6.564   2.990   3.161 -0.0519 -0.0954 -0.3618
18091SOL    HW155947   6.529   2.925   3.222 -0.7433  1.3531  0.8418
18091SOL    HW255948   6.655   2.964   3.148 -0.3756 -1.4450 -0.1301
18092SOL     OW55949   6.198   1.933   3.704 -0.0121 -0.3109 -0.0652
18092SOL    HW155950   6.258   2.007   3.700 -0.1315 -0.1734  0.5326
18092SOL    HW255951   6.121   1.962   3.654  0.4067 -0.4827 -0.8179
18093SOL     OW55952   8.710   4.244   8.604  0.1783  0.5456  0.7211
18093SOL    HW155953   8.706   4.337   8.629  0.2637  0.1806  2.1889
18093SOL    HW255954   8.659   4.239   8.523  0.9151  2.0186  0.1259
18094SOL     OW55955   2.814   3.204   7.667  0.6613 -0.2155  0.4135
18094SOL    HW155956   2.785   3.253   7.744 -0.3419 -1.2352  0.7242
18094SOL    HW255957   2.737   3.154   7.640  1.2713 -0.5978 -0.6885
18095SOL     OW55958   2.036   0.168   4.422 -0.2792  0.3546 -0.2221
18095SOL    HW155959   2.033   0.178   4.326  1.7873 -2.1596 -0.6546
18095SOL    HW255960   1.999   0.082   4.438 -2.1802  1.4169  1.4902
18096SOL     OW55961   0.921   1.515   6.675 -0.7053  0.0153  0.0704
18096SOL    HW155962   0.846   1.507   6.734 -0.8543 -0.6634 -0.1938
18096SOL    HW255963   0.920   1.433   6.624 -2.1886  1.6251 -2.7885
18097SOL     OW55964   3.381   4.271   5.701  0.6086  0.4198  0.7125
18097SOL    HW155965   3.370   4.185   5.659  0.2720  0.3328  0.9669
18097SOL    HW255966   3.436   4.321   5.640 -0.6957  0.6472 -0.3384
18098SOL     OW55967   4.903   6.188   0.348  0.2230 -0.1558 -0.2686
18098SOL    HW155968   4.976   6.224   0.297  0.4765  0.2807  0.3932
18098SOL    HW255969   4.825   6.230   0.312  0.5371  1.3017  0.6807
18099SOL     OW55970   6.457   7.168   5.808 -0.0063 -0.4250 -0.0320
18099SOL    HW155971   6.504   7.238   5.854 -0.0803 -0.1115 -0.4274
18099SOL    HW255972   6.522   7.098   5.797 -0.9700 -2.2476  4.1304
18100SOL     OW55973   1.261   7.745   3.852 -0.5651 -0.2180  0.1234
18100SOL    HW155974   1.185   7.799   3.829  0.8741  2.0064  0.2684
18100SOL    HW255975   1.283   7.700   3.770 -1.6232 -0.3887 -0.0915
18101SOL     OW55976   9.063   5.870   3.772  0.1570  0.3606 -0.5943
18101SOL    HW155977   9.064   5.962   3.748 -2.6814  0.9973  1.2192
18101SOL    HW255978   9.041   5.824   3.691  2.7237  1.0765 -1.7758
18102SOL     OW55979   9.424   5.352   1.217 -0.1090  0.3507 -0.1738
18102SOL    HW155980   9.473   5.318   1.291  0.4127  0.5202 -0.4395
18102SOL    HW255981   9.374   5.425   1.254 -0.2978  0.0687  0.1328
18103SOL     OW55982   8.359   3.499   4.116  0.3336  0.4914  0.1463
18103SOL    HW155983   8.275   3.544   4.123  0.6583  0.9548  1.3441
18103SOL    HW255984   8.386   3.513   4.026 -1.1399 -0.1799 -0.4442
18104SOL     OW55985   7.385   1.890   2.280  0.4115 -0.9157 -0.0796
18104SOL    HW155986   7.412   1.980   2.296 -1.0455 -0.4713  0.0503
18104SOL    HW255987   7.363   1.887   2.187  0.4841 -1.1478 -0.0918
18105SOL     OW55988   9.063   4.310   5.637  0.3001 -0.1481  0.1724
18105SOL    HW155989   9.095   4.337   5.723 -0.6313 -1.2089  0.8761
18105SOL    HW255990   9.122   4.240   5.610 -0.2837 -0.8264  0.6277
18106SOL     OW55991   7.555   8.714   1.831  0.0126  0.6035 -0.2957
18106SOL    HW155992   7.470   8.716   1.787  0.7103  1.4474 -1.6779
18106SOL    HW255993   7.602   8.641   1.791  0.2814  0.7269 -0.2128
18107SOL     OW55994   5.612   8.703   8.149  0.0634 -0.1209 -0.1502
18107SOL    HW155995   5.542   8.640   8.164 -0.7361  0.4479 -1.3353
18107SOL    HW255996   5.640   8.687   8.059 -0.7250  1.7236 -0.7667
18108SOL     OW55997   4.527   2.646   2.891 -1.2358 -0.0801  0.3230
18108SOL    HW155998   4.449   2.605   2.854 -1.7256 -0.0954  1.3314
18108SOL    HW255999   4.599   2.588   2.867 -2.0477 -2.3904  2.8485
18109SOL     OW56000   9.173   4.944   3.578  0.1570  0.3829  0.3254
18109SOL    HW156001   9.158   4.951   3.484  1.3914 -0.7597  0.0026
18109SOL    HW256002   9.090   4.968   3.618 -1.0472 -1.0937 -1.1429
18110SOL     OW56003   1.640   4.617   6.645 -0.2149  0.0372 -0.1533
18110SOL    HW156004   1.694   4.539   6.635  0.5822  0.6244 -0.5027
18110SOL    HW256005   1.578   4.613   6.572  0.8346  0.5210 -1.0973
18111SOL     OW56006   7.211   2.851   5.758  0.0747  0.4413 -0.6867
18111SOL    HW156007   7.290   2.850   5.810 -0.9012  1.0229  0.8745
18111SOL    HW256008   7.233   2.800   5.679  1.2956 -1.3373  0.7274
18112SOL     OW56009   2.897   9.645   2.459  0.5498 -0.0235 -1.0230
18112SOL    HW156010   2.909   9.552   2.480 -0.8472 -0.5850 -2.5404
18112SOL    HW256011   2.937   9.655   2.373 -0.2155  0.5619 -1.3145
18113SOL     OW56012   1.054   9.645   7.208  0.4069  0.6224 -0.1976
18113SOL    HW156013   1.012   9.730   7.220 -0.3767  0.2892 -0.5126
18113SOL    HW256014   1.001   9.585   7.261  1.7825  0.5578  1.1671
18114SOL     OW56015   8.459   9.423   9.661  1.0717  0.1037  0.1053
18114SOL    HW156016   8.529   9.483   9.634 -1.8326  3.5897 -0.5740
18114SOL    HW256017   8.393   9.432   9.592 -1.0746 -1.0573  1.8843
18115SOL     OW56018   7.439   4.376   9.032 -0.3480  0.4022  0.5155
18115SOL    HW156019   7.462   4.469   9.040  0.8290  0.0891  1.1261
18115SOL    HW256020   7.436   4.360   8.938  0.1610  0.9065  0.4042
18116SOL     OW56021   1.355   0.177   3.679  0.0287  0.1199  0.5881
18116SOL    HW156022   1.333   0.258   3.634  0.3939  0.5752  1.2151
18116SOL    HW256023   1.384   0.205   3.766 -1.2807 -0.7640  1.3561
18117SOL     OW56024   8.989   8.645   5.044 -0.0575 -0.5632 -0.2449
18117SOL    HW156025   9.072   8.613   5.078 -0.6212 -0.1063  1.6856
18117SOL    HW256026   9.011   8.725   4.997  0.8031 -1.4570 -1.4220
18118SOL     OW56027   0.598   6.000   7.077 -0.1721 -0.5193 -0.0829
18118SOL    HW156028   0.668   5.936   7.090 -0.1490 -0.4861 -0.0473
18118SOL    HW256029   0.573   5.990   6.985 -0.2114 -0.6228 -0.0609
18119SOL     OW56030   0.325   3.387   1.178  0.0971 -0.2415 -0.2885
18119SOL    HW156031   0.381   3.398   1.101  0.9287  0.8265  0.4375
18119SOL    HW256032   0.380   3.415   1.251 -0.6271 -1.3717  0.7260
18120SOL     OW56033   2.527   1.865   2.691  0.4473 -0.1520 -0.8787
18120SOL    HW156034   2.599   1.827   2.741 -0.0559 -1.5393 -1.1747
18120SOL    HW256035   2.470   1.905   2.757  0.0063 -1.5890 -0.3656
18121SOL     OW56036   1.793   3.488   9.617  0.9298  0.7639  0.2353
18121SOL    HW156037   1.786   3.445   9.703  1.4600 -1.4978 -0.7786
18121SOL    HW256038   1.702   3.499   9.588  0.7778 -0.2454  0.2832
18122SOL     OW56039   2.390   1.336   4.121 -0.3647  0.2118 -0.5340
18122SOL    HW156040   2.469   1.346   4.068 -0.8068  1.9739 -0.9211
18122SOL    HW256041   2.317   1.348   4.060 -0.9167  0.1713  0.0970
18123SOL     OW56042   6.917   0.425   1.487 -0.2889  0.8806 -0.2306
18123SOL    HW156043   7.006   0.394   1.505 -0.7873 -0.4774 -0.0032
18123SOL    HW256044   6.866   0.345   1.476 -1.2066  1.6555 -1.8164
18124SOL     OW56045   4.653   6.035   7.881  0.0174 -0.5940  0.2510
18124SOL    HW156046   4.581   6.044   7.942  1.8127 -1.4550  2.6317
18124SOL    HW256047   4.614   5.993   7.804 -2.8275  2.7493 -0.3586
18125SOL     OW56048   1.508   3.165   5.809 -0.0600 -0.1107 -0.2968
18125SOL    HW156049   1.497   3.124   5.723  1.7701  2.1834 -1.7307
18125SOL    HW256050   1.423   3.205   5.828 -0.1649  0.2778 -1.5446
18126SOL     OW56051   3.997   3.968   0.934  0.4661 -0.2495 -0.2120
18126SOL    HW156052   3.955   3.992   1.017 -0.8849 -0.0498 -0.9236
18126SOL    HW256053   4.023   4.052   0.895  0.6623 -0.3125 -0.2182
18127SOL     OW56054   4.769   9.224   1.144 -0.1243 -0.1563  0.2673
18127SOL    HW156055   4.848   9.195   1.097 -0.8037  0.3528 -1.2522
18127SOL    HW256056   4.802   9.258   1.227  1.0418 -1.8715  0.5531
18128SOL     OW56057   6.050   9.351   1.912 -0.5340  0.3303  0.4559
18128SOL    HW156058   5.980   9.287   1.896 -0.1538 -0.1988  0.8782
18128SOL    HW256059   6.003   9.431   1.934 -1.0366  0.6553 -1.6493
18129SOL     OW56060   2.235   1.742   1.497  0.2748  0.1318  0.1891
18129SOL    HW156061   2.322   1.780   1.485 -0.7680  3.1205  1.2874
18129SOL    HW256062   2.251   1.658   1.540  2.6177  0.4543  0.0433
18130SOL     OW56063   5.416   6.794   7.304 -0.4395  0.3138  0.3577
18130SOL    HW156064   5.332   6.748   7.313  0.4882 -1.4631  0.4355
18130SOL    HW256065   5.393   6.887   7.301 -2.6396 -0.2015 -2.1739
18131SOL     OW56066   0.972   5.336   0.738  0.0782 -0.6274  0.1167
18131SOL    HW156067   0.929   5.383   0.809  1.1538 -0.4274  0.6475
18131SOL    HW256068   0.909   5.268   0.712 -0.5976 -0.2624  0.7860
18132SOL     OW56069   2.934   3.115   1.747 -0.0442 -0.0844 -0.0332
18132SOL    HW156070   2.957   3.156   1.830 -2.0006 -0.0595  0.5334
18132SOL    HW256071   2.975   3.028   1.751  2.1842  0.8897 -0.2623
18133SOL     OW56072   3.542   3.191   4.011  0.4546 -0.0272  0.3343
18133SOL    HW156073   3.460   3.216   3.967 -0.1956 -0.3347  1.3393
18133SOL    HW256074   3.573   3.272   4.050  2.7530  1.0315 -3.2591
18134SOL     OW56075   5.315   5.885   4.229  0.8201  0.1219 -0.2861
18134SOL    HW156076   5.363   5.966   4.246  0.5174  0.2713 -0.1276
18134SOL    HW256077   5.271   5.900   4.146  4.3521 -1.5512 -2.7399
18135SOL     OW56078   3.859   6.476   5.973  0.3232  0.2925  0.4248
18135SOL    HW156079   3.912   6.488   5.894  1.5740 -0.7227  1.0754
18135SOL    HW256080   3.857   6.381   5.986 -2.6325  0.1584 -0.1906
18136SOL     OW56081   5.624   6.574   6.075 -0.0333 -0.4445 -0.1634
18136SOL    HW156082   5.554   6.540   6.019 -0.4928 -1.5555  1.0264
18136SOL    HW256083   5.619   6.520   6.154 -0.5935  2.2153  1.7331
18137SOL     OW56084   7.309   7.157   5.355 -0.3411 -0.1102  0.2005
18137SOL    HW156085   7.386   7.152   5.300  0.2497 -0.7959  1.0618
18137SOL    HW256086   7.251   7.089   5.321  0.4624 -1.2597  1.0523
18138SOL     OW56087   3.162   4.324   3.112 -0.1090  0.4205 -0.3939
18138SOL    HW156088   3.155   4.231   3.133 -1.2099  0.4670 -0.4621
18138SOL    HW256089   3.126   4.331   3.023  0.3245  0.8564 -0.5374
18139SOL     OW56090   8.067   2.431   5.464 -0.0424 -0.8459  0.2587
18139SOL    HW156091   7.982   2.475   5.472 -0.3938 -1.2340 -1.0850
18139SOL    HW256092   8.131   2.498   5.490 -0.6905 -0.2124  0.2659
18140SOL     OW56093   7.155   0.143   1.437  0.0285  0.2776  0.2059
18140SOL    HW156094   7.245   0.163   1.408 -0.3875 -0.9050 -2.2157
18140SOL    HW256095   7.127   0.221   1.484  1.0919  2.2064 -2.1483
18141SOL     OW56096   5.269   0.108   6.291 -0.1722 -0.2013  0.2907
18141SOL    HW156097   5.182   0.130   6.323 -0.1408  0.7931 -0.2747
18141SOL    HW256098   5.296   0.183   6.239  0.9882 -0.5347  0.3667
18142SOL     OW56099   6.551   6.562   9.621 -0.1067 -0.1431 -0.0152
18142SOL    HW156100   6.546   6.637   9.561  0.8395  0.2911  0.4312
18142SOL    HW256101   6.470   6.567   9.671  0.1646  0.8869  0.3506
18143SOL     OW56102   7.181   6.532   6.976 -0.5749 -0.6752  0.1245
18143SOL    HW156103   7.179   6.544   6.881 -1.9304 -0.2763  0.1794
18143SOL    HW256104   7.217   6.444   6.988 -0.2309 -0.6634 -0.7480
18144SOL     OW56105   1.562   2.872   7.114  0.0245  0.4264  0.3578
18144SOL    HW156106   1.504   2.948   7.114 -1.6227 -0.7552 -1.1608
18144SOL    HW256107   1.524   2.812   7.178 -0.0418 -0.0719 -0.1408
18145SOL     OW56108   6.767   3.591   6.332  0.2497 -1.0969  0.7511
18145SOL    HW156109   6.844   3.592   6.388  0.2706 -2.2892  0.7658
18145SOL    HW256110   6.789   3.532   6.260 -0.4151 -0.9545  0.4126
18146SOL     OW56111   3.422   5.007   0.571  0.0256 -0.1758 -0.0546
18146SOL    HW156112   3.422   4.915   0.544 -1.3978 -0.1481 -0.2206
18146SOL    HW256113   3.510   5.021   0.605  0.2765 -1.5951 -0.0284
18147SOL     OW56114   2.546   1.736   8.882 -0.1758 -0.1635  0.0198
18147SOL    HW156115   2.525   1.829   8.870 -0.3095 -0.1756  0.1693
18147SOL    HW256116   2.566   1.705   8.793  2.3229  0.6051  0.2330
18148SOL     OW56117   2.015   3.412   2.631  0.2425 -0.7049  0.1909
18148SOL    HW156118   1.943   3.431   2.691 -0.0016 -1.8585  0.2843
18148SOL    HW256119   2.093   3.442   2.678 -0.1855  0.8608 -0.0495
18149SOL     OW56120   0.367   3.773   7.224 -0.7382  0.5268  0.2832
18149SOL    HW156121   0.454   3.762   7.262 -1.4164  0.0436  1.7929
18149SOL    HW256122   0.378   3.839   7.156  0.7423  0.6870  0.6484
18150SOL     OW56123   2.297   3.847   4.736 -0.6090 -0.6407 -0.0927
18150SOL    HW156124   2.269   3.908   4.804  0.3909 -0.1962 -0.0508
18150SOL    HW256125   2.272   3.890   4.654  2.6639  1.3721 -0.2433
18151SOL     OW56126   7.198   9.622   2.051 -0.3698  0.2378  0.5737
18151SOL    HW156127   7.190   9.658   1.963 -0.4099  0.1313  0.5341
18151SOL    HW256128   7.286   9.586   2.054 -1.1684 -1.9814 -0.2583
18152SOL     OW56129   1.510   0.820   4.096 -0.3295  0.5642 -0.8287
18152SOL    HW156130   1.530   0.829   4.190  1.9379  3.3171 -1.4163
18152SOL    HW256131   1.587   0.775   4.060 -0.8312  0.2254 -1.4940
18153SOL     OW56132   9.595   8.625   6.161  0.3150 -0.4578 -1.1591
18153SOL    HW156133   9.657   8.568   6.116 -0.2977 -1.0665 -1.2341
18153SOL    HW256134   9.534   8.653   6.093  1.0547  0.9268 -1.2901
18154SOL     OW56135   3.456   7.133   8.405 -0.3422 -0.3703  0.8480
18154SOL    HW156136   3.541   7.153   8.367 -1.1462 -0.0713 -0.9116
18154SOL    HW256137   3.404   7.212   8.388 -1.3260 -1.0300  0.7493
18155SOL     OW56138   7.126   7.580   7.442 -0.3408 -0.2666  0.4520
18155SOL    HW156139   7.220   7.591   7.455 -0.2316  2.5073 -1.6612
18155SOL    HW256140   7.119   7.531   7.360 -0.6550  1.1121 -0.3769
18156SOL     OW56141   6.309   7.297   5.263 -0.7253  0.5521 -0.2448
18156SOL    HW156142   6.299   7.384   5.223 -2.3323  0.6051  0.1865
18156SOL    HW256143   6.326   7.315   5.355  1.0571  0.4075 -0.5212
18157SOL     OW56144   5.161   8.755   9.055 -0.5981 -0.3949 -0.3072
18157SOL    HW156145   5.176   8.817   9.126 -0.3151 -0.7583 -0.0425
18157SOL    HW256146   5.245   8.751   9.009 -0.0800 -1.8379  0.6936
18158SOL     OW56147   1.216   7.301   6.249  0.0061 -0.2004 -0.4013
18158SOL    HW156148   1.131   7.257   6.240  0.2202 -0.3820 -1.7026
18158SOL    HW256149   1.257   7.291   6.163 -0.2724  3.2447 -1.0618
18159SOL     OW56150   1.562   1.941   0.825 -0.0101 -0.0612 -0.5697
18159SOL    HW156151   1.526   1.990   0.751 -1.7560 -0.0310  0.2553
18159SOL    HW256152   1.606   2.007   0.878 -1.1587  0.3984 -0.1703
18160SOL     OW56153   9.132   4.302   0.366  0.3740 -0.0516 -0.1093
18160SOL    HW156154   9.088   4.307   0.281 -0.9295  1.2257  0.5906
18160SOL    HW256155   9.062   4.317   0.430  1.3570 -0.7796  1.1867
18161SOL     OW56156   4.643   8.793   2.214 -0.5550 -0.6825 -0.5739
18161SOL    HW156157   4.731   8.830   2.223 -1.1101  0.6931 -0.6423
18161SOL    HW256158   4.629   8.747   2.297 -0.3693  0.4125  0.0827
18162SOL     OW56159   5.257   5.282   2.048 -0.3689  0.5233  0.4399
18162SOL    HW156160   5.212   5.206   2.011 -1.7155  0.6382  1.7509
18162SOL    HW256161   5.207   5.303   2.127 -0.3947  3.1268 -0.1819
18163SOL     OW56162   9.215   3.066   6.501  0.3019  0.1747  0.2719
18163SOL    HW156163   9.207   3.011   6.424  0.1779 -0.2859  0.6092
18163SOL    HW256164   9.125   3.077   6.532  0.2690  1.0040 -0.0936
18164SOL     OW56165   4.861   5.677   0.527 -0.3406  0.0705 -0.0366
18164SOL    HW156166   4.944   5.630   0.532 -0.3459  0.1161  0.5822
18164SOL    HW256167   4.878   5.749   0.465  0.9499  1.7570  2.1236
18165SOL     OW56168   2.325   0.714   8.384  0.3702  0.3989  0.3464
18165SOL    HW156169   2.301   0.637   8.436  0.0798  0.2045 -0.0647
18165SOL    HW256170   2.292   0.788   8.434  2.6294  0.4505  1.8858
18166SOL     OW56171   1.022   3.454   2.494 -0.4890 -0.3180  0.1706
18166SOL    HW156172   1.075   3.532   2.512  0.8571 -0.9609 -0.7798
18166SOL    HW256173   0.935   3.487   2.473 -0.5391  0.7683  1.9484
18167SOL     OW56174   6.321   0.423   7.496  0.3891 -0.0193 -0.6990
18167SOL    HW156175   6.282   0.336   7.501  1.0113 -0.2679  0.2009
18167SOL    HW256176   6.398   0.412   7.440  0.3990 -0.0243 -0.6842
18168SOL     OW56177   7.767   4.287   3.112  0.3092 -0.0191 -0.1346
18168SOL    HW156178   7.692   4.232   3.091 -0.1293 -0.4033  2.1706
18168SOL    HW256179   7.833   4.226   3.145  0.7730  0.5568  0.0219
18169SOL     OW56180   8.603   8.977   9.079 -0.1818 -0.0670 -0.5213
18169SOL    HW156181   8.624   8.931   8.998  1.4894 -0.5120  0.1155
18169SOL    HW256182   8.667   8.944   9.142 -0.2261  1.6696  0.4804
18170SOL     OW56183   4.779   6.988   1.417  0.7074  0.3372  0.1849
18170SOL    HW156184   4.745   6.917   1.362  2.8301 -1.4994  1.0772
18170SOL    HW256185   4.850   6.947   1.467  0.7944  2.6617  2.1324
18171SOL     OW56186   8.754   5.328   3.333 -0.4176  0.4539 -0.1139
18171SOL    HW156187   8.792   5.349   3.248  0.5211  0.2242  0.2358
18171SOL    HW256188   8.660   5.346   3.322  0.0967  3.7275 -0.1674
18172SOL     OW56189   6.488   4.542   8.191  0.1765 -0.1068  0.3269
18172SOL    HW156190   6.416   4.560   8.251 -0.2971  0.1752 -0.3189
18172SOL    HW256191   6.559   4.512   8.247 -0.2820  0.0920  1.0196
18173SOL     OW56192   5.261   6.035   7.838  0.1011  1.0327  0.6082
18173SOL    HW156193   5.187   6.082   7.798  0.7804  1.8815  0.3279
18173SOL    HW256194   5.309   6.102   7.886 -0.1245  0.2129  2.0292
18174SOL     OW56195   5.120   2.599   1.051 -0.0477 -0.0651  0.5011
18174SOL    HW156196   5.122   2.610   0.956  0.7013  0.4177  0.5686
18174SOL    HW256197   5.207   2.567   1.074 -0.0700  0.2591  1.0732
18175SOL     OW56198   0.221   3.330   8.497 -0.1373  0.3716  0.2827
18175SOL    HW156199   0.200   3.348   8.588 -1.8503 -3.0828  0.7373
18175SOL    HW256200   0.314   3.305   8.498  0.6199  2.9259  0.5208
18176SOL     OW56201   8.642   4.520   0.114  0.2761 -0.7628  0.2672
18176SOL    HW156202   8.684   4.579   0.176 -0.2823 -0.1311  0.0616
18176SOL    HW256203   8.588   4.462   0.168 -1.1470  0.5505  0.3221
18177SOL     OW56204   8.952   4.940   1.325 -0.7141 -0.2041 -0.6966
18177SOL    HW156205   8.857   4.939   1.334 -0.6136 -0.8502  0.4032
18177SOL    HW256206   8.980   5.016   1.377 -0.4896 -1.2384  0.7591
18178SOL     OW56207   8.437   5.599   0.462 -0.4775  0.3198  0.4380
18178SOL    HW156208   8.403   5.621   0.548  0.4505  3.3013  0.1575
18178SOL    HW256209   8.397   5.662   0.402 -1.5882 -2.0457 -1.5236
18179SOL     OW56210   0.580   2.835   1.742  0.8610  0.2419  0.6494
18179SOL    HW156211   0.632   2.915   1.734 -0.1781  0.7276 -2.2347
18179SOL    HW256212   0.498   2.855   1.698  0.7919 -2.5578 -0.6899
18180SOL     OW56213   5.012   0.799   2.444 -0.2353 -0.4708  0.5633
18180SOL    HW156214   4.950   0.851   2.392 -0.1331  0.4768  1.3680
18180SOL    HW256215   4.959   0.762   2.514 -0.5476 -2.4589 -0.6517
18181SOL     OW56216   5.230   1.365   7.457  0.0126 -0.1656 -0.0878
18181SOL    HW156217   5.267   1.450   7.481  0.8923 -0.7865  0.8505
18181SOL    HW256218   5.215   1.321   7.541 -0.7217 -0.8227 -0.5480
18182SOL     OW56219   4.662   2.237   0.954  0.4008 -0.1254  0.1562
18182SOL    HW156220   4.638   2.173   1.021 -0.3621 -1.3046 -1.2030
18182SOL    HW256221   4.744   2.275   0.986  0.3382 -1.0491  1.4846
18183SOL     OW56222   4.902   1.086   7.259  1.0491  0.0103  0.2789
18183SOL    HW156223   4.883   1.051   7.172 -1.5821  0.9051  0.3985
18183SOL    HW256224   4.913   1.009   7.314 -1.3438 -0.6814 -0.1054
18184SOL     OW56225   7.538   4.972   3.678 -0.4074  0.5360  0.4056
18184SOL    HW156226   7.482   4.901   3.708 -1.2270  1.5433  1.3810
18184SOL    HW256227   7.518   4.982   3.585  0.2393 -0.9327  0.0786
18185SOL     OW56228   3.686   4.101   4.402 -0.2031 -0.0257 -0.2384
18185SOL    HW156229   3.730   4.169   4.452 -0.0141  0.7393 -1.3958
18185SOL    HW256230   3.594   4.108   4.427 -0.1574  0.5559 -0.2173
18186SOL     OW56231   8.421   9.036   4.743 -0.0006  0.2023  0.9718
18186SOL    HW156232   8.334   9.026   4.782  0.2142  0.6710  1.5757
18186SOL    HW256233   8.480   9.048   4.817  0.6315 -0.4343  0.5852
18187SOL     OW56234   6.149   7.932   2.647  0.1787 -0.3952  0.6031
18187SOL    HW156235   6.182   7.993   2.713  1.7970  0.0366 -0.5399
18187SOL    HW256236   6.193   7.958   2.566 -0.7631 -1.7192 -0.3791
18188SOL     OW56237   3.342   7.987   4.009 -0.1880 -0.2158  0.3677
18188SOL    HW156238   3.265   8.042   4.020 -2.4620 -2.9291 -0.7517
18188SOL    HW256239   3.375   8.008   3.922 -0.0184  0.4946  0.5966
18189SOL     OW56240   1.973   0.468   6.641  0.0631 -0.0834 -0.2109
18189SOL    HW156241   1.936   0.536   6.697 -0.1602  0.2673 -0.7700
18189SOL    HW256242   2.039   0.514   6.589 -0.8032 -0.0615 -1.3211
18190SOL     OW56243   7.583   8.617   8.782  1.0310 -0.7224  0.3824
18190SOL    HW156244   7.598   8.527   8.753  0.8707 -0.5802 -0.1753
18190SOL    HW256245   7.495   8.616   8.820 -0.1325 -0.2689 -2.0857
18191SOL     OW56246   2.681   9.132   0.940  0.2786 -0.1524 -0.5200
18191SOL    HW156247   2.591   9.113   0.968 -0.7142  1.3062 -2.4324
18191SOL    HW256248   2.718   9.047   0.919 -0.9004 -0.7368 -0.3422
18192SOL     OW56249   6.449   6.335   6.602  0.1710 -0.4520  0.1008
18192SOL    HW156250   6.535   6.312   6.567  0.5410 -1.8680  1.8232
18192SOL    HW256251   6.396   6.256   6.589 -0.5213 -0.0116  0.1791
18193SOL     OW56252   4.010   8.239   5.977  0.9171 -0.1497 -0.0707
18193SOL    HW156253   3.948   8.167   5.970  1.4363 -0.5730 -0.3614
18193SOL    HW256254   3.968   8.311   5.930  0.2103 -0.1247  0.5763
18194SOL     OW56255   1.937   1.278   7.902 -0.8296 -0.3660 -0.1073
18194SOL    HW156256   1.853   1.312   7.872 -0.4947  0.5088 -0.0823
18194SOL    HW256257   1.964   1.338   7.971 -0.4334 -0.9542  0.2627
18195SOL     OW56258   8.943   6.244   5.411 -0.2464 -0.2117 -0.0546
18195SOL    HW156259   9.014   6.292   5.368 -0.5201  0.5055  0.2767
18195SOL    HW256260   8.985   6.202   5.487 -0.2756  0.6430  0.4432
18196SOL     OW56261   2.148   5.481   9.395 -0.0964 -0.4810 -0.7045
18196SOL    HW156262   2.160   5.506   9.304  0.2396 -3.4957 -1.5847
18196SOL    HW256263   2.235   5.451   9.423  0.3092  2.1665  1.3226
18197SOL     OW56264   3.939   5.665   5.870  0.2187 -0.0802 -0.2216
18197SOL    HW156265   3.948   5.572   5.849 -0.3573  0.0303 -1.0083
18197SOL    HW256266   3.941   5.668   5.965  0.7736 -0.8416 -0.1971
18198SOL     OW56267   6.445   6.259   2.105 -0.0775 -0.0040 -0.2051
18198SOL    HW156268   6.402   6.216   2.179  0.5685  0.8513  0.7063
18198SOL    HW256269   6.536   6.228   2.109  0.3010  1.1109  0.2347
18199SOL     OW56270   5.076   6.622   8.567  0.0693 -0.4073 -0.0402
18199SOL    HW156271   5.146   6.587   8.623  0.6273  0.2032 -0.3445
18199SOL    HW256272   5.074   6.715   8.587  0.7673 -0.0399 -1.5311
18200SOL     OW56273   1.401   8.822   1.803 -0.0830  1.0085 -0.1487
18200SOL    HW156274   1.409   8.739   1.757  0.7800  1.1574 -0.2891
18200SOL    HW256275   1.426   8.803   1.894 -0.4790  0.9910 -0.0418
18201SOL     OW56276   1.316   7.807   8.594  0.3912 -0.2079 -0.3526
18201SOL    HW156277   1.397   7.803   8.543 -1.0619 -1.4835 -2.7082
18201SOL    HW256278   1.268   7.728   8.570 -0.9850 -0.2217  2.0728
18202SOL     OW56279   8.060   5.077   1.051  0.2008  0.3819  0.0423
18202SOL    HW156280   7.982   5.131   1.049 -0.9232 -1.1976 -0.6734
18202SOL    HW256281   8.080   5.067   1.145 -0.4065  0.8504  0.2257
18203SOL     OW56282   6.282   4.506   4.837 -0.2461  0.0119  0.0939
18203SOL    HW156283   6.293   4.601   4.831  0.2074 -0.0490 -0.1396
18203SOL    HW256284   6.342   4.471   4.771  1.3608 -0.5301  1.7483
18204SOL     OW56285   8.409   1.232   0.054  0.1691  0.3484 -0.4014
18204SOL    HW156286   8.452   1.248   0.138 -1.1718 -1.2953  0.6684
18204SOL    HW256287   8.464   1.165   0.012 -0.9045 -1.2921  0.6891
18205SOL     OW56288   7.503   7.074   6.461 -1.2320  0.0560 -0.0955
18205SOL    HW156289   7.492   6.981   6.481 -1.4374 -0.0068 -0.4862
18205SOL    HW256290   7.589   7.081   6.420 -0.9284  0.1445  0.5380
18206SOL     OW56291   2.963   4.381   5.779 -0.5890 -0.6023  0.2307
18206SOL    HW156292   2.930   4.306   5.729  1.3355 -1.3185 -0.0767
18206SOL    HW256293   2.972   4.451   5.714 -1.0444 -0.5396  0.2307
18207SOL     OW56294   6.569   6.599   8.598 -0.1422  0.0645  0.0355
18207SOL    HW156295   6.504   6.607   8.667 -0.5780 -0.2725 -0.3239
18207SOL    HW256296   6.615   6.517   8.618 -0.9767 -0.5895 -0.6461
18208SOL     OW56297   1.840   7.067   0.742  0.1129  0.1536  0.2858
18208SOL    HW156298   1.898   6.991   0.749 -0.0069  0.0899  0.5877
18208SOL    HW256299   1.759   7.032   0.705  0.4600  0.3448 -0.6855
18209SOL     OW56300   7.635   6.411   8.587 -0.1449 -0.0340  0.2971
18209SOL    HW156301   7.720   6.366   8.586 -0.5508 -0.8147  0.1212
18209SOL    HW256302   7.633   6.457   8.671 -0.5568 -2.0083  1.4298
18210SOL     OW56303   1.920   1.252   6.784 -0.2851 -0.0861  0.5083
18210SOL    HW156304   1.896   1.220   6.871  0.4505 -1.7611  0.1469
18210SOL    HW256305   2.013   1.272   6.791 -0.2920  0.0614  0.1996
18211SOL     OW56306   5.537   9.015   0.047  0.4264  0.1675 -0.0472
18211SOL    HW156307   5.613   8.967   0.012  0.7766 -0.3206  1.3147
18211SOL    HW256308   5.524   9.087  -0.015  0.7489 -0.8737 -1.3945
18212SOL     OW56309   4.207   6.094   7.510  0.1649 -0.2463 -0.8441
18212SOL    HW156310   4.142   6.084   7.441  0.5832  0.6045 -1.3840
18212SOL    HW256311   4.158   6.124   7.586  0.0332  1.3162 -1.5128
18213SOL     OW56312   5.160   5.384   2.515 -0.0677  0.1515 -0.4465
18213SOL    HW156313   5.252   5.400   2.536 -0.4609  1.8256  0.1545
18213SOL    HW256314   5.143   5.295   2.547  1.0289  0.2686  0.5050
18214SOL     OW56315   7.336   7.617   2.813  0.5133 -0.3313 -0.6623
18214SOL    HW156316   7.405   7.560   2.846  0.6305  0.3679  0.3274
18214SOL    HW256317   7.298   7.657   2.891 -0.9082 -0.5732 -1.1938
18215SOL     OW56318   8.358   4.725   4.027 -0.0763  1.0240 -0.7439
18215SOL    HW156319   8.345   4.646   4.080  0.7260  1.8539  0.7637
18215SOL    HW256320   8.431   4.704   3.969 -0.0571  0.5533 -0.5500
18216SOL     OW56321   3.183   0.732   3.437 -0.3414  0.0958  0.1065
18216SOL    HW156322   3.217   0.814   3.400  0.1353  0.7884  1.9583
18216SOL    HW256323   3.247   0.666   3.413  1.1826  0.9661  1.5756
18217SOL     OW56324   7.457   5.049   7.319 -0.3341  0.0403 -0.2071
18217SOL    HW156325   7.529   4.995   7.289 -1.1836 -1.2487 -0.0058
18217SOL    HW256326   7.498   5.115   7.375  0.6923 -0.5461 -0.2496
18218SOL     OW56327   0.152   5.147   0.416 -0.5523  0.1850 -0.0214
18218SOL    HW156328   0.157   5.172   0.323  0.9527 -0.8904 -0.2605
18218SOL    HW256329   0.160   5.230   0.463  2.2973  0.4935 -0.8266
18219SOL     OW56330   6.115   6.859   5.850 -0.2931 -0.0380 -0.0922
18219SOL    HW156331   6.043   6.916   5.823  0.1317  0.4012 -0.3313
18219SOL    HW256332   6.086   6.771   5.829 -0.9769  0.0855  0.3056
18220SOL     OW56333   7.277   6.541   6.289  0.4869  0.2267 -0.5336
18220SOL    HW156334   7.184   6.541   6.266  0.3000 -2.2700 -0.1275
18220SOL    HW256335   7.318   6.599   6.225 -1.4752  2.4454  0.0967
18221SOL     OW56336   8.302   8.451   1.270 -0.1263 -0.1878  0.7115
18221SOL    HW156337   8.255   8.371   1.246 -0.1411 -0.2984  1.1048
18221SOL    HW256338   8.235   8.509   1.307 -0.2988  0.3944 -0.4795
18222SOL     OW56339   1.317   5.770   0.198  1.0635  0.0937  0.2677
18222SOL    HW156340   1.332   5.834   0.129  0.3440 -0.7334 -0.6863
18222SOL    HW256341   1.401   5.724   0.207  1.1278  0.1237 -0.1553
18223SOL     OW56342   0.434   7.251   4.249  0.6319 -0.3968  0.2814
18223SOL    HW156343   0.520   7.279   4.281 -0.1201  1.9439  0.4353
18223SOL    HW256344   0.444   7.249   4.154  0.4082  1.7987  0.1490
18224SOL     OW56345   3.180   7.569   0.006 -0.5774  0.1873 -0.1525
18224SOL    HW156346   3.254   7.591  -0.050 -0.2031  0.2538  0.3663
18224SOL    HW256347   3.175   7.473   0.002  0.6940  0.0280  1.2581
18225SOL     OW56348   0.874   3.667   4.113 -0.1061 -0.9667 -0.1873
18225SOL    HW156349   0.948   3.702   4.163  0.9467 -0.8706 -1.7357
18225SOL    HW256350   0.812   3.636   4.180  1.1149 -0.6162  1.1555
18226SOL     OW56351   7.011   6.874   1.676  0.7589  0.2723  0.1590
18226SOL    HW156352   7.003   6.801   1.736  1.2217  0.2655  0.2194
18226SOL    HW256353   6.951   6.854   1.604  0.9338 -0.1931  0.1454
18227SOL     OW56354   3.145   5.496   8.331  0.8198  0.3340 -0.4480
18227SOL    HW156355   3.099   5.413   8.321  2.4766 -0.6227 -0.3445
18227SOL    HW256356   3.157   5.506   8.425  0.4848  0.7963 -0.4465
18228SOL     OW56357   0.717   5.752   6.652 -0.4197 -0.0584  0.1248
18228SOL    HW156358   0.713   5.774   6.559 -0.4891 -1.8608 -0.3271
18228SOL    HW256359   0.766   5.824   6.692  0.1496  0.4327 -1.3991
18229SOL     OW56360   1.144   8.330   8.800  0.0582  0.2064 -0.2228
18229SOL    HW156361   1.152   8.425   8.793 -0.1550  0.1360 -1.7938
18229SOL    HW256362   1.052   8.312   8.780  0.1705 -0.3587 -0.2500
18230SOL     OW56363   4.850   4.173   6.683  0.0225  0.2736 -0.3797
18230SOL    HW156364   4.936   4.137   6.659 -1.1440 -1.4674 -2.2811
18230SOL    HW256365   4.838   4.247   6.624 -0.0928  0.0411 -0.6504
18231SOL     OW56366   8.329   5.064   2.564 -0.0087  0.1098  0.2249
18231SOL    HW156367   8.331   5.100   2.652 -0.7297  1.7468 -0.3798
18231SOL    HW256368   8.322   4.969   2.577  2.5319  0.0500  1.8850
18232SOL     OW56369   3.603   2.637   9.170  1.0108 -0.4240  0.2911
18232SOL    HW156370   3.679   2.627   9.227  1.0893 -0.6225  0.1536
18232SOL    HW256371   3.634   2.695   9.100  0.5403  0.8765  1.1134
18233SOL     OW56372   0.641   4.898   0.678 -0.0068 -0.2333 -0.1142
18233SOL    HW156373   0.697   4.824   0.652 -0.4687 -0.3460 -0.8274
18233SOL    HW256374   0.563   4.888   0.624  0.1495  1.0844 -0.6054
18234SOL     OW56375   1.878   4.363   0.857  0.1197 -0.0679 -1.1372
18234SOL    HW156376   1.798   4.315   0.878  0.0673 -0.3827 -1.9925
18234SOL    HW256377   1.948   4.310   0.894 -0.1112  0.7946  0.6302
18235SOL     OW56378   1.049   6.115   4.548  0.2033 -0.3297  0.2883
18235SOL    HW156379   1.088   6.196   4.515 -0.3386 -0.3184 -0.3390
18235SOL    HW256380   1.108   6.087   4.618  0.2902  0.7022  0.6358
18236SOL     OW56381   0.842   2.422   8.051 -0.3997  0.0306  0.1671
18236SOL    HW156382   0.756   2.464   8.055 -0.8849 -0.4905 -2.6330
18236SOL    HW256383   0.839   2.368   7.972  2.3432 -0.3700  0.2255
18237SOL     OW56384   4.587   3.156   6.673 -0.5658  0.9262 -0.2750
18237SOL    HW156385   4.661   3.105   6.641 -1.9100 -0.6306 -1.0565
18237SOL    HW256386   4.594   3.239   6.627  1.3581  1.2972  0.5930
18238SOL     OW56387   4.070   7.134   4.237  0.2164 -0.5600 -0.2462
18238SOL    HW156388   4.093   7.188   4.313  0.4971 -0.8881 -0.0966
18238SOL    HW256389   4.127   7.165   4.167  0.8313 -1.0945  0.0128
18239SOL     OW56390   9.375   7.464   0.172  0.1666 -0.0297  0.5686
18239SOL    HW156391   9.425   7.473   0.091 -0.3676 -1.1531  0.0838
18239SOL    HW256392   9.437   7.424   0.233  0.0698 -0.8011  0.1736
18240SOL     OW56393   4.944   6.637   8.321  0.1384 -0.6486 -0.0653
18240SOL    HW156394   4.979   6.619   8.408 -1.3375 -2.0783  0.2998
18240SOL    HW256395   5.016   6.619   8.261  0.9678 -0.3261  0.8165
18241SOL     OW56396   9.267   5.244   4.950  0.0174  0.0155  0.1348
18241SOL    HW156397   9.238   5.180   5.015  0.5769  0.7069  1.0952
18241SOL    HW256398   9.363   5.235   4.949  0.0600  0.4772 -0.0982
18242SOL     OW56399   3.511   0.432   7.701 -0.6697 -0.2203 -0.1503
18242SOL    HW156400   3.431   0.471   7.737 -0.0015  0.0931  1.0468
18242SOL    HW256401   3.512   0.344   7.737  0.4145  0.3556  1.3105
18243SOL     OW56402   8.392   1.990   3.358  0.6820  0.0794  0.1713
18243SOL    HW156403   8.412   2.059   3.294 -0.2057  0.2021  0.0225
18243SOL    HW256404   8.300   1.968   3.342 -0.0401  1.2111  2.4208
18244SOL     OW56405   1.698   2.469   4.751  0.4272 -0.0531  0.0905
18244SOL    HW156406   1.756   2.449   4.824  1.3689 -0.7624 -0.8170
18244SOL    HW256407   1.716   2.400   4.686 -0.8253  0.1960 -0.5629
18245SOL     OW56408   5.553   5.737   6.256 -0.0379  0.1089 -0.3393
18245SOL    HW156409   5.638   5.750   6.215  0.2210  0.5019  0.3081
18245SOL    HW256410   5.527   5.824   6.286 -1.1462  0.1880 -1.4161
18246SOL     OW56411   1.064   2.600   6.081  0.4440 -0.4763 -0.0723
18246SOL    HW156412   0.974   2.597   6.112  0.1909 -1.1558 -0.8288
18246SOL    HW256413   1.061   2.656   6.003  0.5106 -1.1600 -0.5780
18247SOL     OW56414   0.383   7.667   3.653  0.0878  0.2786  0.4703
18247SOL    HW156415   0.449   7.700   3.593 -0.9117  0.2545 -0.6804
18247SOL    HW256416   0.431   7.647   3.733  1.4126  0.5193 -0.2389
18248SOL     OW56417   9.517   2.261   5.526 -0.2320 -0.6190 -0.4148
18248SOL    HW156418   9.491   2.193   5.590 -0.1169 -0.8590 -0.6219
18248SOL    HW256419   9.527   2.213   5.444 -1.0956 -0.1915 -0.7839
18249SOL     OW56420   6.964   9.453   5.826 -0.2891  0.3709  0.6312
18249SOL    HW156421   7.020   9.530   5.838 -0.9678  1.3191 -1.7718
18249SOL    HW256422   7.022   9.387   5.790 -0.1075  0.3516  0.9504
18250SOL     OW56423   9.555   8.947   9.353  0.1790  0.1793 -0.7790
18250SOL    HW156424   9.572   9.023   9.297 -0.9978  0.7665 -0.3626
18250SOL    HW256425   9.636   8.937   9.404 -0.1739  2.1220  0.2562
18251SOL     OW56426   6.987   8.985   8.047 -0.1918 -0.4588  0.1413
18251SOL    HW156427   7.026   9.046   7.985 -0.7720  0.8719  1.0618
18251SOL    HW256428   7.060   8.930   8.076  0.2832 -0.4021 -0.9046
18252SOL     OW56429   9.387   7.361   3.200  0.4455  0.3202  0.4906
18252SOL    HW156430   9.292   7.352   3.197  0.1358  2.7974  0.8671
18252SOL    HW256431   9.410   7.402   3.116  1.2334 -0.4832  0.2939
18253SOL     OW56432   9.581   7.572   6.730 -0.6084 -0.1288  0.2445
18253SOL    HW156433   9.643   7.536   6.793 -0.1395 -1.8694 -1.1217
18253SOL    HW256434   9.636   7.604   6.658 -1.0463  2.9176  1.1139
18254SOL     OW56435   4.471   4.832   5.835  0.4700  0.0684 -0.1097
18254SOL    HW156436   4.557   4.802   5.865  1.0996  1.5159 -0.3779
18254SOL    HW256437   4.422   4.751   5.817  2.1644 -0.8033 -1.0518
18255SOL     OW56438   9.478   5.667   2.360 -0.7405 -0.1365  0.4650
18255SOL    HW156439   9.454   5.753   2.325 -0.4962  0.1223  0.9264
18255SOL    HW256440   9.454   5.671   2.453  2.5726  0.7666  1.4138
18256SOL     OW56441   1.573   9.503   6.033 -0.0218  0.0405  0.1202
18256SOL    HW156442   1.518   9.582   6.029  0.3321  0.4407  2.0600
18256SOL    HW256443   1.528   9.446   6.095 -1.1245 -2.0549 -2.4096
18257SOL     OW56444   4.218   9.569   3.015  0.4085 -0.2021 -0.1036
18257SOL    HW156445   4.243   9.486   2.974  0.3536 -1.2205  1.7996
18257SOL    HW256446   4.281   9.581   3.086 -0.6272  0.4713  0.7464
18258SOL     OW56447   9.602   6.946   5.511 -0.1611  0.4151 -0.4974
18258SOL    HW156448   9.635   6.916   5.426 -1.0431  0.8874 -1.0304
18258SOL    HW256449   9.513   6.977   5.492 -0.4243  0.3937  0.6322
18259SOL     OW56450   0.208   9.585   3.736 -0.3438  0.3200  0.2168
18259SOL    HW156451   0.263   9.620   3.806  0.9749  0.7229 -0.9501
18259SOL    HW256452   0.215   9.490   3.743 -0.3131  0.3586  0.6891
18260SOL     OW56453   9.482   5.973   6.738  0.0007 -0.5733  0.6561
18260SOL    HW156454   9.493   6.026   6.816 -1.4807 -0.7609  1.0178
18260SOL    HW256455   9.571   5.961   6.704  0.4235  1.6721  0.8370
18261SOL     OW56456   8.056   9.044   3.406  0.1107  0.2058  0.3272
18261SOL    HW156457   8.110   8.998   3.470  0.6562 -0.9935 -0.9259
18261SOL    HW256458   8.099   9.026   3.322 -0.2882  2.1437 -0.3313
18262SOL     OW56459   2.498   7.269   6.258 -0.4662 -0.0943  0.9227
18262SOL    HW156460   2.435   7.206   6.223 -1.0516 -0.9060  3.2169
18262SOL    HW256461   2.568   7.272   6.193 -0.6182 -2.8325  0.5050
18263SOL     OW56462   8.481   4.179   4.054  0.0840  0.1525 -0.0120
18263SOL    HW156463   8.491   4.095   4.099 -0.2423  1.0663  1.8769
18263SOL    HW256464   8.566   4.221   4.062  0.0633  0.2669 -0.3925
18264SOL     OW56465   9.408   6.765   0.360 -0.8077  0.1231  0.3777
18264SOL    HW156466   9.384   6.832   0.296 -2.7434  0.0110  0.9055
18264SOL    HW256467   9.325   6.722   0.382  0.0890 -1.1101  1.5436
18265SOL     OW56468   6.027   1.237   7.511  0.3175 -0.0825 -0.2109
18265SOL    HW156469   6.000   1.324   7.485 -0.7447 -0.6416 -1.0443
18265SOL    HW256470   6.118   1.247   7.540  0.6251  1.0621 -1.5226
18266SOL     OW56471   7.008   6.212   6.395  0.2362 -0.8447 -0.0020
18266SOL    HW156472   6.958   6.137   6.364 -0.5101 -0.5963  0.5659
18266SOL    HW256473   7.049   6.248   6.317  0.5847 -1.8274 -0.2826
18267SOL     OW56474   1.189   3.287   8.531 -0.4037  0.4152  0.6793
18267SOL    HW156475   1.165   3.301   8.439  0.3251 -0.3656  0.3522
18267SOL    HW256476   1.108   3.256   8.572 -1.0116  1.7669  0.5574
18268SOL     OW56477   4.176   9.569   0.310 -0.1107 -0.0810  0.2315
18268SOL    HW156478   4.149   9.640   0.252  0.2836 -0.9211 -1.0274
18268SOL    HW256479   4.156   9.601   0.398 -3.8091 -0.0312 -0.4844
18269SOL     OW56480   5.318   5.361   7.182  0.2997  0.0863  0.0424
18269SOL    HW156481   5.270   5.418   7.241  0.0671  0.0980 -0.1583
18269SOL    HW256482   5.407   5.398   7.180 -0.2214  1.3895 -1.2894
18270SOL     OW56483   5.752   5.064   6.721  0.3987 -0.1434  0.0309
18270SOL    HW156484   5.683   5.129   6.735 -0.8875 -1.7369  1.4306
18270SOL    HW256485   5.809   5.072   6.798  1.3129  0.5373 -0.6839
18271SOL     OW56486   1.986   0.898   5.907 -0.0814 -0.4589 -0.2041
18271SOL    HW156487   1.925   0.867   5.974  0.0988 -2.6177 -0.9675
18271SOL    HW256488   2.071   0.899   5.951 -0.0087 -1.5833 -0.2934
18272SOL     OW56489   5.120   1.733   0.280 -0.3327 -0.0727 -0.5917
18272SOL    HW156490   5.060   1.660   0.263 -0.9636 -0.3128  2.2171
18272SOL    HW256491   5.064   1.801   0.316  0.4441  1.4555 -2.1245
18273SOL     OW56492   9.124   3.566   6.089 -0.0700 -0.5223 -0.1832
18273SOL    HW156493   9.194   3.629   6.067  0.4998 -1.4299 -1.0501
18273SOL    HW256494   9.170   3.491   6.127 -0.3975 -1.6972 -1.9957
18274SOL     OW56495   5.431   7.242   5.111  0.0821  0.2267  0.3098
18274SOL    HW156496   5.438   7.176   5.180  0.9421 -1.5763 -1.4186
18274SOL    HW256497   5.474   7.203   5.035  0.1534  2.5856 -0.9607
18275SOL     OW56498   1.331   1.853   4.323  0.0893  0.2732 -0.1892
18275SOL    HW156499   1.239   1.857   4.296  0.2145 -0.0202 -0.6762
18275SOL    HW256500   1.331   1.800   4.402 -0.1728  0.3438 -0.1413
18276SOL     OW56501   5.053   2.929   6.221  0.1641  0.4893 -0.2011
18276SOL    HW156502   5.041   2.949   6.128  0.8137  0.4276 -0.2973
18276SOL    HW256503   4.979   2.972   6.264 -0.2940  0.2853 -0.7724
18277SOL     OW56504   1.856   7.498   6.859 -0.3768  0.0478 -0.4471
18277SOL    HW156505   1.826   7.515   6.770  1.2615  0.3726 -0.9588
18277SOL    HW256506   1.923   7.564   6.876  0.0550 -0.6317  0.6600
18278SOL     OW56507   7.517   8.087   1.193  0.1106  1.0959 -0.3214
18278SOL    HW156508   7.602   8.114   1.229  0.4242 -0.1420 -0.0756
18278SOL    HW256509   7.540   8.032   1.118 -0.4565  0.1914  0.1588
18279SOL     OW56510   0.296   5.723   1.554  0.1205 -0.2400 -0.0876
18279SOL    HW156511   0.278   5.765   1.639 -0.5790  0.6911 -0.6731
18279SOL    HW256512   0.210   5.695   1.523  0.1456  0.7740 -1.1509
18280SOL     OW56513   7.797   6.969   1.854 -0.0251  0.0892  0.3356
18280SOL    HW156514   7.768   7.042   1.799 -1.0945 -0.6590 -0.1311
18280SOL    HW256515   7.844   7.011   1.927 -1.9023  1.3821  0.8908
18281SOL     OW56516   7.360   9.582   0.780  0.1481 -0.5165 -0.0871
18281SOL    HW156517   7.302   9.547   0.713 -0.2955 -1.9639  0.9975
18281SOL    HW256518   7.436   9.523   0.780  0.2660 -0.3779  0.4800
18282SOL     OW56519   6.110   0.785   4.944 -0.8152  0.2669  0.4590
18282SOL    HW156520   6.044   0.831   4.997 -0.3417  0.7318  0.6547
18282SOL    HW256521   6.164   0.739   5.009  0.2152  1.4271  0.4418
18283SOL     OW56522   6.856   1.444   8.831 -0.2833 -0.1675 -0.4596
18283SOL    HW156523   6.922   1.490   8.778 -0.6445  0.7354 -0.1273
18283SOL    HW256524   6.783   1.428   8.771  0.3240 -1.4336 -0.9117
18284SOL     OW56525   3.011   0.098   3.261 -0.3026 -0.1282 -0.1696
18284SOL    HW156526   3.099   0.060   3.267 -0.9503 -1.8841 -1.0640
18284SOL    HW256527   2.955   0.036   3.309 -1.1775  0.5450 -0.2971
18285SOL     OW56528   3.681   1.462   6.792 -0.7674  0.3671  0.0765
18285SOL    HW156529   3.625   1.403   6.740 -0.7611  0.5520 -0.1422
18285SOL    HW256530   3.677   1.426   6.881  0.0792 -0.6096 -0.2523
18286SOL     OW56531   8.422   8.089   3.897 -0.2050  0.8516  0.1001
18286SOL    HW156532   8.389   8.159   3.954  0.8108  1.5858 -0.1962
18286SOL    HW256533   8.343   8.048   3.862 -0.8490  0.5979  1.7645
18287SOL     OW56534   3.026   1.320   8.779 -0.6976 -0.1242 -0.2122
18287SOL    HW156535   3.006   1.309   8.687  2.7620  1.7926 -1.3757
18287SOL    HW256536   3.027   1.415   8.792  1.0262 -0.2801  1.1786
18288SOL     OW56537   8.890   5.721   8.055 -0.4551 -0.0974  0.1943
18288SOL    HW156538   8.815   5.735   7.997 -2.2434 -1.5112  1.9979
18288SOL    HW256539   8.949   5.664   8.006 -1.6900 -0.8826 -0.4018
18289SOL     OW56540   4.776   3.007   9.647 -0.4448  0.0728  0.2068
18289SOL    HW156541   4.781   3.102   9.656  0.4696  0.2212 -1.4003
18289SOL    HW256542   4.860   2.982   9.609 -0.3710 -1.4944  1.2788
18290SOL     OW56543   6.756   0.747   1.724  0.4690  0.2293  0.2227
18290SOL    HW156544   6.778   0.707   1.808 -0.0626  0.9660  0.7244
18290SOL    HW256545   6.776   0.679   1.659  0.4617 -0.5066  0.9776
18291SOL     OW56546   8.826   5.576   8.914 -0.3140 -0.0827  0.3266
18291SOL    HW156547   8.901   5.525   8.945 -0.9092 -1.5409 -0.5235
18291SOL    HW256548   8.863   5.636   8.849 -0.1381 -2.3212 -1.7476
18292SOL     OW56549   2.266   0.253   1.296 -0.7028 -0.1328 -0.7349
18292SOL    HW156550   2.358   0.227   1.292 -0.2513  0.8285  1.5877
18292SOL    HW256551   2.258   0.324   1.232  0.8706  1.4677  0.7081
18293SOL     OW56552   6.930   0.607   0.939 -0.3711 -0.5343  0.5004
18293SOL    HW156553   6.934   0.525   0.989  0.1688 -1.2957 -0.7590
18293SOL    HW256554   6.989   0.666   0.986  1.0405 -1.6046  0.1650
18294SOL     OW56555   9.359   4.705   8.701  0.2328 -0.2852 -0.0190
18294SOL    HW156556   9.266   4.687   8.703  0.3555 -1.0585 -0.7233
18294SOL    HW256557   9.365   4.799   8.680 -0.3960  0.5207  3.0397
18295SOL     OW56558   1.536   1.785   3.894 -0.0141 -0.0846  0.2594
18295SOL    HW156559   1.488   1.867   3.901  0.5248  0.4107 -1.2884
18295SOL    HW256560   1.610   1.795   3.954 -0.5224  0.1209  0.8596
18296SOL     OW56561   6.213   4.056   6.251 -0.1176 -0.6241  0.0244
18296SOL    HW156562   6.139   4.040   6.310  0.4222 -0.8870  0.6418
18296SOL    HW256563   6.290   4.032   6.303  0.3754 -0.7116 -0.7419
18297SOL     OW56564   2.425   2.571   4.922 -0.0030  0.1067  0.1078
18297SOL    HW156565   2.401   2.499   4.980 -0.4204 -1.2853 -1.6798
18297SOL    HW256566   2.358   2.570   4.854  1.4371  0.4636 -1.3839
18298SOL     OW56567   9.427   2.466   2.948  0.1910  0.2872 -0.2084
18298SOL    HW156568   9.396   2.384   2.987  0.4555 -0.3463 -1.2868
18298SOL    HW256569   9.351   2.523   2.950 -0.1403 -0.1539  0.0952
18299SOL     OW56570   4.175   5.177   5.897  0.0842 -0.0123 -0.1506
18299SOL    HW156571   4.260   5.162   5.857  0.3738 -0.6275  0.6654
18299SOL    HW256572   4.128   5.094   5.886 -0.7331  0.5733 -1.3171
18300SOL     OW56573   7.637   4.896   3.994  0.7067 -0.0043  0.8793
18300SOL    HW156574   7.568   4.879   3.930  1.4917  0.4777 -0.1256
18300SOL    HW256575   7.637   4.819   4.051 -1.1385  0.3216  1.3720
18301SOL     OW56576   0.431   5.901   3.080 -0.1214  0.4228 -0.2245
18301SOL    HW156577   0.419   5.808   3.099  0.3828  0.7936  2.2756
18301SOL    HW256578   0.343   5.936   3.075 -0.3280  0.1528  1.0501
18302SOL     OW56579   1.985   0.556   8.573  0.4392  0.1293 -0.1283
18302SOL    HW156580   1.981   0.636   8.625 -0.4764 -0.8650  1.3913
18302SOL    HW256581   2.079   0.538   8.562  0.6872 -0.2674  2.2329
18303SOL     OW56582   5.572   1.839   7.985 -0.0957 -0.1346  0.3399
18303SOL    HW156583   5.661   1.872   7.999 -0.2190  0.1353  0.4868
18303SOL    HW256584   5.524   1.913   7.948 -0.7638  0.3192  2.0510
18304SOL     OW56585   9.406   6.961   9.594  0.8749  0.3930 -0.7582
18304SOL    HW156586   9.474   7.022   9.565  2.6749 -0.2691  1.7155
18304SOL    HW256587   9.376   6.996   9.678 -0.2407 -0.5114 -0.7552
18305SOL     OW56588   6.299   0.309   0.651 -0.1581 -0.3305  0.4582
18305SOL    HW156589   6.338   0.396   0.648 -0.9573  0.0217 -0.0670
18305SOL    HW256590   6.231   0.310   0.583  0.5283 -1.7181 -0.2996
18306SOL     OW56591   8.790   1.088   4.851  0.5683  0.4357  0.6248
18306SOL    HW156592   8.744   1.106   4.933 -0.2495 -0.9645  0.5065
18306SOL    HW256593   8.841   1.167   4.834 -1.9192  2.1726  0.6768
18307SOL     OW56594   6.332   2.296   7.635  0.1807  0.1614 -0.3183
18307SOL    HW156595   6.269   2.270   7.702 -0.1802 -0.8130 -1.0226
18307SOL    HW256596   6.303   2.251   7.556  1.1082  0.6054 -0.9239
18308SOL     OW56597   5.452   2.318   3.728 -0.3765 -0.3201 -0.1231
18308SOL    HW156598   5.411   2.274   3.653 -0.1497  2.2721 -1.8961
18308SOL    HW256599   5.545   2.321   3.706 -0.4875  1.6798 -0.4492
18309SOL     OW56600   6.335   4.282   2.900  0.2846 -0.2242 -0.0329
18309SOL    HW156601   6.331   4.352   2.835 -0.5762 -1.0999 -0.9512
18309SOL    HW256602   6.261   4.299   2.958 -0.1450 -0.5789 -0.4746
18310SOL     OW56603   5.387   0.941   7.962 -0.1008  0.3648  0.5666
18310SOL    HW156604   5.475   0.921   7.930  0.5179 -0.3305  2.5284
18310SOL    HW256605   5.331   0.936   7.884  1.2057 -1.7030 -0.3207
18311SOL     OW56606   1.402   2.235   6.991 -0.4499 -0.2708 -0.1740
18311SOL    HW156607   1.312   2.238   6.960  0.0836  0.0903 -1.7909
18311SOL    HW256608   1.413   2.316   7.041 -1.3386 -0.8900  1.0990
18312SOL     OW56609   5.574   9.048   3.654  0.2337 -0.4756 -0.2661
18312SOL    HW156610   5.644   9.103   3.690 -1.2052  1.8985 -0.8339
18312SOL    HW256611   5.603   9.029   3.565  0.2890  0.2798 -0.4175
18313SOL     OW56612   8.577   8.898   5.541 -0.0287  0.0474 -0.0017
18313SOL    HW156613   8.551   8.811   5.511 -0.1905  0.6336 -1.6837
18313SOL    HW256614   8.528   8.911   5.622 -1.1845 -0.8285 -0.5279
18314SOL     OW56615   5.645   5.323   8.846  0.4915  0.0522 -0.0325
18314SOL    HW156616   5.589   5.246   8.853  1.0601 -0.3528  0.1983
18314SOL    HW256617   5.640   5.349   8.754 -2.4550  1.8726  0.5190
18315SOL     OW56618   6.976   0.100   0.759  0.8711  0.4572  0.0657
18315SOL    HW156619   7.064   0.131   0.782  0.7161  1.7961 -1.0295
18315SOL    HW256620   6.992   0.017   0.713  1.5881  0.8624 -0.4346
18316SOL     OW56621   6.179   5.071   3.252  0.4160 -0.7057  0.7924
18316SOL    HW156622   6.199   5.153   3.296  0.5171 -0.1177 -0.3094
18316SOL    HW256623   6.199   5.003   3.316 -0.6387  0.1567  2.0734
18317SOL     OW56624   4.971   2.324   1.998  0.6579  0.1782 -0.0031
18317SOL    HW156625   4.995   2.265   1.926 -2.1256  1.2160 -1.9388
18317SOL    HW256626   4.941   2.265   2.067  0.1692 -0.7724 -0.9836
18318SOL     OW56627   1.254   3.126   7.804 -0.5619 -0.3829  0.6112
18318SOL    HW156628   1.197   3.122   7.881  0.3049 -0.7375  1.2513
18318SOL    HW256629   1.274   3.035   7.784 -2.3214 -0.4174 -1.2386
18319SOL     OW56630   2.689   6.913   6.677 -0.1081 -0.4212  0.2601
18319SOL    HW156631   2.609   6.861   6.678 -0.5138  0.1902  0.5193
18319SOL    HW256632   2.664   6.994   6.632  0.6991 -0.7325 -0.7817
18320SOL     OW56633   2.852   1.521   5.695  0.4456  0.3452  0.0380
18320SOL    HW156634   2.770   1.527   5.744  0.5587  2.5399  0.0292
18320SOL    HW256635   2.914   1.486   5.759 -0.3657 -0.9697  0.1571
18321SOL     OW56636   0.610   2.544   5.009  0.3531 -0.4547 -0.1499
18321SOL    HW156637   0.699   2.567   4.981  0.3254  1.0881  0.8600
18321SOL    HW256638   0.621   2.510   5.098  0.1611 -2.6498 -0.9182
18322SOL     OW56639   4.222   6.301   0.595  0.4445  0.3998 -0.7044
18322SOL    HW156640   4.243   6.213   0.566 -1.6096  0.0162 -1.2188
18322SOL    HW256641   4.240   6.301   0.689  1.5014 -0.2161 -0.8979
18323SOL     OW56642   5.094   3.029   7.803 -0.1362 -0.1163 -0.3244
18323SOL    HW156643   5.038   2.980   7.743  0.2763 -1.0117  0.0119
18323SOL    HW256644   5.148   3.084   7.746 -0.3509 -0.3100 -0.7206
18324SOL     OW56645   9.556   9.444   4.651 -0.2039 -0.1703 -0.0385
18324SOL    HW156646   9.507   9.525   4.658  0.9759  0.6568 -0.9843
18324SOL    HW256647   9.618   9.447   4.725  0.2880  0.1312 -0.4521
18325SOL     OW56648   8.060   4.038   8.802 -0.5140  0.1708 -0.2224
18325SOL    HW156649   8.034   4.088   8.879 -2.5449  1.2585 -1.5112
18325SOL    HW256650   7.987   3.977   8.787 -0.9636  1.0902 -2.1524
18326SOL     OW56651   3.220   3.022   8.378  0.2357 -0.1228 -0.4305
18326SOL    HW156652   3.134   3.060   8.390 -1.6552 -4.0249  0.0608
18326SOL    HW256653   3.272   3.054   8.452 -0.3936  2.9049 -1.1590
18327SOL     OW56654   2.403   9.342   0.429 -0.1808 -0.5617 -1.1272
18327SOL    HW156655   2.317   9.300   0.427 -0.4650 -0.3238  1.6648
18327SOL    HW256656   2.452   9.292   0.494  1.5296 -0.1895 -2.0822
18328SOL     OW56657   7.666   4.200   7.429 -0.4180  0.3390 -0.7813
18328SOL    HW156658   7.576   4.168   7.427  0.2969 -1.8965 -0.1144
18328SOL    HW256659   7.717   4.132   7.385  1.1136  0.9323 -0.0072
18329SOL     OW56660   7.536   3.752   9.548 -0.3150  0.2598 -0.2920
18329SOL    HW156661   7.556   3.672   9.597 -0.4793  0.0989 -0.4806
18329SOL    HW256662   7.548   3.726   9.456  3.0841  1.3755 -0.3038
18330SOL     OW56663   6.172   1.487   3.166  0.2699 -0.2480 -0.2617
18330SOL    HW156664   6.209   1.442   3.243  0.0793  0.8743  0.5057
18330SOL    HW256665   6.165   1.418   3.100  1.2002 -1.0706  0.4568
18331SOL     OW56666   9.270   4.036   2.965 -0.7283 -0.2502 -0.9474
18331SOL    HW156667   9.262   4.080   3.049  0.4078  0.7456 -1.3327
18331SOL    HW256668   9.277   4.107   2.901  2.5474 -0.8944 -1.4492
18332SOL     OW56669   2.185   0.968   4.164  0.3821 -0.3366  0.0784
18332SOL    HW156670   2.100   1.004   4.191  1.7712  3.1602  0.2954
18332SOL    HW256671   2.191   0.990   4.071  0.3296 -2.2355 -0.4012
18333SOL     OW56672   3.332   2.422   5.909  0.3330 -0.2467 -0.0285
18333SOL    HW156673   3.292   2.411   5.823  0.7774  0.4055 -0.3232
18333SOL    HW256674   3.295   2.503   5.944  2.1609  0.9595 -0.7629
18334SOL     OW56675   8.317   2.362   1.489 -0.4925 -0.1241  0.3722
18334SOL    HW156676   8.337   2.451   1.461  1.5729 -0.8276 -0.5375
18334SOL    HW256677   8.262   2.373   1.567  0.0650  1.9400  0.5206
18335SOL     OW56678   8.685   1.645   2.187 -0.3346 -0.5890 -0.5599
18335SOL    HW156679   8.653   1.713   2.127 -3.0279 -1.1065  0.1688
18335SOL    HW256680   8.641   1.663   2.270  0.8860 -1.7509  0.3855
18336SOL     OW56681   8.101   2.620   4.125 -0.1905  0.0940  0.5607
18336SOL    HW156682   8.058   2.583   4.048  0.1262  0.0043  0.4266
18336SOL    HW256683   8.029   2.635   4.187 -0.2685 -1.3448  0.8636
18337SOL     OW56684   0.780   9.419   4.917  0.0054  0.2983  0.6432
18337SOL    HW156685   0.740   9.332   4.915  0.7815 -0.0523 -0.1364
18337SOL    HW256686   0.828   9.426   4.834  0.5302  1.1875  1.0051
18338SOL     OW56687   5.652   5.522   7.083 -0.1711 -0.1918  0.3062
18338SOL    HW156688   5.673   5.608   7.045 -1.3771  0.7211  1.5795
18338SOL    HW256689   5.651   5.462   7.009 -2.2890  1.4836 -1.1365
18339SOL     OW56690   3.420   8.427   6.804  0.3430 -0.1768 -0.1547
18339SOL    HW156691   3.460   8.502   6.848  0.0018 -0.6868  1.0652
18339SOL    HW256692   3.464   8.423   6.719  3.5176 -1.2108  1.4064
18340SOL     OW56693   2.146   0.821   4.701  0.5189  0.0487  0.1492
18340SOL    HW156694   2.175   0.846   4.613  0.1229  0.1740  0.0566
18340SOL    HW256695   2.128   0.727   4.694  0.0168  0.1578 -0.0280
18341SOL     OW56696   6.568   1.388   6.842  0.1867  0.0178  0.0712
18341SOL    HW156697   6.646   1.441   6.855 -0.8063  1.0319  2.3542
18341SOL    HW256698   6.503   1.449   6.807 -0.1615 -0.3589  0.0519
18342SOL     OW56699   9.463   0.028   7.953 -0.1201  0.2910  0.0978
18342SOL    HW156700   9.377  -0.004   7.982  0.2439 -0.8295  0.0008
18342SOL    HW256701   9.443   0.093   7.886 -0.8995  0.3067  0.3353
18343SOL     OW56702   1.751   6.672   1.029  0.4719  0.1389 -0.1375
18343SOL    HW156703   1.706   6.689   0.947 -2.2625 -1.8085  0.7963
18343SOL    HW256704   1.844   6.669   1.006 -0.0035  1.9407 -2.6616
18344SOL     OW56705   3.247   1.255   3.727  0.2756  0.0768 -0.5571
18344SOL    HW156706   3.253   1.341   3.767  0.4612  0.4640 -1.3905
18344SOL    HW256707   3.334   1.217   3.740  0.2241  0.0482 -0.2789
18345SOL     OW56708   3.970   0.452   4.912  0.6867  0.1935  0.2504
18345SOL    HW156709   3.994   0.470   5.003  0.4336 -0.6697  0.4988
18345SOL    HW256710   3.991   0.360   4.900  0.3692  0.2115 -0.4609
18346SOL     OW56711   6.237   3.367   4.542 -0.1049 -0.3812  0.0999
18346SOL    HW156712   6.316   3.387   4.492  0.9061 -3.2217  0.3567
18346SOL    HW256713   6.269   3.335   4.627 -1.5909 -0.3239  0.7235
18347SOL     OW56714   5.580   0.106   6.534  0.4801 -0.0995  0.1227
18347SOL    HW156715   5.625   0.092   6.618  1.2381 -0.5977 -0.3490
18347SOL    HW256716   5.538   0.022   6.515 -0.9713  0.4668  0.7250
18348SOL     OW56717   0.870   5.978   4.399 -0.1477 -0.2079  0.0446
18348SOL    HW156718   0.786   5.953   4.436 -1.6505  1.5067 -1.9864
18348SOL    HW256719   0.917   6.020   4.471 -1.8995  0.7209  0.6881
18349SOL     OW56720   3.168   4.273   8.905 -0.1081  0.0807 -0.3454
18349SOL    HW156721   3.210   4.328   8.971  1.1370  0.6116 -1.5183
18349SOL    HW256722   3.241   4.232   8.858 -0.9799 -2.8723  0.6699
18350SOL     OW56723   4.139   7.838   0.601  0.1886  0.0967  0.0304
18350SOL    HW156724   4.097   7.909   0.553  1.1575 -0.2449 -1.3765
18350SOL    HW256725   4.151   7.769   0.536 -1.5604 -1.7740  1.5315
18351SOL     OW56726   2.821   7.927   2.485  0.0446 -0.1207  0.5730
18351SOL    HW156727   2.740   7.925   2.535  0.7732  0.7403  1.8372
18351SOL    HW256728   2.869   7.850   2.514 -0.8620 -1.4469 -1.2199
18352SOL     OW56729   8.286   9.544   7.596 -0.2046 -0.4705  0.0567
18352SOL    HW156730   8.284   9.479   7.526  1.4535  1.7117 -2.1890
18352SOL    HW256731   8.378   9.550   7.621  0.1425  2.4881 -1.4290
18353SOL     OW56732   0.047   4.793   2.854  0.0110  0.0647 -0.5668
18353SOL    HW156733  -0.024   4.855   2.841 -0.6670 -0.0462  2.0814
18353SOL    HW256734   0.078   4.809   2.943  1.8723 -1.3521 -0.8813
18354SOL     OW56735   6.359   5.593   1.487 -0.7320 -0.6644 -0.2005
18354SOL    HW156736   6.317   5.520   1.533 -2.2214 -0.5727 -1.3518
18354SOL    HW256737   6.404   5.552   1.413  0.2554 -0.6270  0.3615
18355SOL     OW56738   9.236   3.146   8.165  0.1716 -0.3728  0.1823
18355SOL    HW156739   9.252   3.233   8.201  1.5115 -1.0139  1.2153
18355SOL    HW256740   9.294   3.088   8.214 -1.3770 -2.0175  0.1807
18356SOL     OW56741   5.521   0.935   4.310  0.5566  0.3035 -0.3790
18356SOL    HW156742   5.516   1.001   4.241 -0.8916 -0.1523 -0.7387
18356SOL    HW256743   5.515   0.851   4.264  0.0888 -0.0211  0.2473
18357SOL     OW56744   4.598   6.404   2.699  0.1575 -0.5038 -0.6196
18357SOL    HW156745   4.632   6.494   2.708  0.2232 -0.1490 -3.5641
18357SOL    HW256746   4.670   6.349   2.728  0.4756  0.3340  0.2811
18358SOL     OW56747   0.976   0.305   3.081 -0.0185 -0.4621 -0.0254
18358SOL    HW156748   1.050   0.366   3.081 -0.2630 -0.1006 -1.7097
18358SOL    HW256749   1.001   0.237   3.142  1.9550 -0.5939 -0.9054
18359SOL     OW56750   2.309   8.046   8.362 -0.5228 -0.0211  0.2706
18359SOL    HW156751   2.315   7.993   8.441  1.4200 -1.2422 -0.6503
18359SOL    HW256752   2.292   7.984   8.292  0.8381  0.6402 -0.6973
18360SOL     OW56753   6.068   8.849   5.419  0.0869  0.3198  0.6686
18360SOL    HW156754   6.048   8.778   5.479  0.6566  0.2856  0.8281
18360SOL    HW256755   5.983   8.882   5.390 -0.2225 -1.9628 -1.2795
18361SOL     OW56756   7.203   0.428   0.440 -0.1537 -0.0487 -0.2401
18361SOL    HW156757   7.214   0.410   0.346 -0.9209  1.3613 -0.6321
18361SOL    HW256758   7.130   0.372   0.466  0.1602 -0.5625 -0.4466
18362SOL     OW56759   8.636   0.577   5.942  0.5678 -0.5657 -1.0598
18362SOL    HW156760   8.709   0.638   5.930  0.2885  0.2160  0.7871
18362SOL    HW256761   8.558   0.630   5.924  0.3944 -1.0036 -1.6218
18363SOL     OW56762   2.962   7.950   4.802  0.1366 -0.6662 -0.8942
18363SOL    HW156763   2.921   7.865   4.785  1.8138 -1.3628 -1.7216
18363SOL    HW256764   2.936   8.004   4.727 -0.5784 -0.5661 -0.5853
18364SOL     OW56765   7.634   8.642   3.976 -0.4782 -0.0755 -0.2015
18364SOL    HW156766   7.627   8.573   3.910 -0.3240  1.0262 -1.4218
18364SOL    HW256767   7.702   8.612   4.036 -0.7038 -1.1576 -0.4779
18365SOL     OW56768   4.656   7.904   6.670  0.1302  0.1062 -0.0725
18365SOL    HW156769   4.599   7.921   6.595 -0.1812 -1.2172 -0.1500
18365SOL    HW256770   4.745   7.908   6.635  0.0342  0.6927 -0.2581
18366SOL     OW56771   1.939   2.007   4.931 -0.2583 -0.2766  0.5976
18366SOL    HW156772   1.900   2.025   5.017 -2.0698 -1.6571  0.1369
18366SOL    HW256773   1.882   2.052   4.869  0.0866 -0.6280  0.0198
18367SOL     OW56774   8.695   4.757   5.323 -0.3836 -0.0066  0.1374
18367SOL    HW156775   8.633   4.782   5.391 -2.3762  1.2228 -1.9896
18367SOL    HW256776   8.741   4.838   5.300  1.2690 -0.6848  0.9132
18368SOL     OW56777   6.730   1.398   4.758  0.0074 -0.0605  0.3000
18368SOL    HW156778   6.761   1.475   4.804 -0.6499  0.0037  0.6394
18368SOL    HW256779   6.742   1.419   4.665  3.8295 -1.1987  0.3765
18369SOL     OW56780   8.252   7.022   6.468 -0.0736 -0.0115  0.5105
18369SOL    HW156781   8.291   6.954   6.412 -0.3321 -0.7516  1.2061
18369SOL    HW256782   8.174   6.981   6.505  0.0521  0.4842  1.3581
18370SOL     OW56783   6.101   1.377   2.940 -0.2988 -0.3364 -0.6259
18370SOL    HW156784   6.072   1.347   2.854  0.2357 -0.1298 -0.8826
18370SOL    HW256785   6.091   1.472   2.937  0.1500 -0.2852 -0.6301
18371SOL     OW56786   3.815   5.418   6.894  0.4939  1.0075 -0.6412
18371SOL    HW156787   3.795   5.505   6.928 -0.1506  0.3994  0.6116
18371SOL    HW256788   3.732   5.370   6.899  1.1419 -0.0914  0.0335
18372SOL     OW56789   0.542   4.000   8.542 -0.0386  0.1353  0.0124
18372SOL    HW156790   0.570   3.976   8.453 -0.5870 -1.2499  0.1806
18372SOL    HW256791   0.571   3.927   8.597 -0.4734  0.5554  0.8256
18373SOL     OW56792   4.066   6.315   2.750 -0.1287 -0.7937  0.0110
18373SOL    HW156793   4.063   6.316   2.655  0.4342 -1.3604 -0.0183
18373SOL    HW256794   4.131   6.249   2.772  1.3065  0.7626  0.7438
18374SOL     OW56795   5.899   2.877   2.881  0.0991 -0.4072  0.2426
18374SOL    HW156796   5.960   2.846   2.815  1.0404  1.0922  0.3772
18374SOL    HW256797   5.836   2.805   2.890  0.2071 -0.8453 -1.9198
18375SOL     OW56798   1.531   3.962   3.922  0.2910  0.1289 -0.1540
18375SOL    HW156799   1.497   4.050   3.938  2.8752  1.2280 -0.1628
18375SOL    HW256800   1.599   3.950   3.988  0.7520 -1.4153 -0.8565
18376SOL     OW56801   9.366   0.371   5.127  0.0169 -0.1337 -0.2359
18376SOL    HW156802   9.457   0.385   5.098  0.3318  0.1757  0.8599
18376SOL    HW256803   9.328   0.459   5.126 -1.0460 -0.5206 -3.0437
18377SOL     OW56804   6.817   6.721   1.476  0.2379  0.7537 -0.4118
18377SOL    HW156805   6.741   6.738   1.420 -0.9973 -0.9873  0.6295
18377SOL    HW256806   6.782   6.670   1.549  2.4903 -0.5898 -0.1571
18378SOL     OW56807   5.956   4.372   2.072  0.1810  0.0282 -0.1709
18378SOL    HW156808   5.901   4.296   2.053  0.6981 -1.1665  2.5936
18378SOL    HW256809   5.915   4.444   2.024 -2.1003 -1.3888 -0.5067
18379SOL     OW56810   0.029   2.862   0.376 -0.0849  0.1359 -0.2681
18379SOL    HW156811  -0.055   2.824   0.349  0.6924 -0.4122 -2.1099
18379SOL    HW256812   0.014   2.957   0.376 -0.8048  0.0224 -0.2535
18380SOL     OW56813   2.354   4.360   8.882 -0.3246  0.1942  0.1607
18380SOL    HW156814   2.286   4.293   8.878 -0.6519  0.5399 -0.1455
18380SOL    HW256815   2.425   4.326   8.828  0.1960 -0.6568  1.3351
18381SOL     OW56816   0.612   7.630   5.218  0.1488  0.0716 -0.0598
18381SOL    HW156817   0.584   7.614   5.308 -1.1421  0.7081 -0.3342
18381SOL    HW256818   0.538   7.602   5.164  0.8081 -0.0628 -0.9302
18382SOL     OW56819   2.790   7.089   1.909 -0.1823  0.1787 -0.0953
18382SOL    HW156820   2.812   7.139   1.830 -0.5119 -0.1229 -0.3802
18382SOL    HW256821   2.875   7.062   1.944  0.0832  2.0574  0.8090
18383SOL     OW56822   2.019   0.436   6.336 -0.7811 -0.1484 -0.0350
18383SOL    HW156823   1.942   0.404   6.383 -0.2926  0.8553  1.5441
18383SOL    HW256824   2.035   0.523   6.374  2.5400 -1.2721  1.4660
18384SOL     OW56825   7.518   8.983   2.247 -0.5021 -0.1662 -0.2713
18384SOL    HW156826   7.580   9.056   2.254 -0.3752 -0.2055 -0.8986
18384SOL    HW256827   7.560   8.912   2.295  0.8766 -0.7947 -2.2719
18385SOL     OW56828   3.251   7.798   7.503  0.0942 -0.1259  0.0210
18385SOL    HW156829   3.171   7.835   7.465  1.0651  1.2952 -0.7350
18385SOL    HW256830   3.221   7.749   7.579 -1.7718 -1.7573 -1.6243
18386SOL     OW56831   1.378   4.798   1.706 -0.3862  0.1939  0.3656
18386SOL    HW156832   1.435   4.871   1.683 -0.9151  0.0126 -1.7360
18386SOL    HW256833   1.294   4.838   1.727 -0.4611  0.2571 -0.0389
18387SOL     OW56834   3.171   0.002   6.807  0.1815 -0.0700 -0.2215
18387SOL    HW156835   3.078   0.008   6.829  0.0990  0.8106 -0.7730
18387SOL    HW256836   3.189   0.083   6.759  1.3670  0.0353  0.3827
18388SOL     OW56837   6.947   5.651   1.562 -0.4246 -0.0243  0.2379
18388SOL    HW156838   6.898   5.569   1.555 -1.1415  0.2643  1.5536
18388SOL    HW256839   6.898   5.714   1.509  0.3710 -0.5082 -1.1469
18389SOL     OW56840   4.801   8.962   7.889  0.5679  0.7213  0.3640
18389SOL    HW156841   4.869   9.016   7.928  0.5549  0.4048  0.8281
18389SOL    HW256842   4.770   8.907   7.960 -1.4420  2.0951  0.6527
18390SOL     OW56843   9.142   5.751   9.561 -0.2109  0.2849  0.4138
18390SOL    HW156844   9.210   5.805   9.601  1.6413 -2.3158  0.9730
18390SOL    HW256845   9.127   5.793   9.476 -0.0726  2.5717  1.4168
18391SOL     OW56846   4.557   1.487   0.664 -0.3370  0.6101 -0.3673
18391SOL    HW156847   4.535   1.458   0.752  0.7405  0.3098 -0.1856
18391SOL    HW256848   4.507   1.568   0.652 -1.2691  0.1282  0.1285
18392SOL     OW56849   3.155   7.653   9.342  0.0805 -0.8868 -0.2428
18392SOL    HW156850   3.106   7.698   9.273  0.8943  0.2934 -0.0786
18392SOL    HW256851   3.102   7.666   9.421  0.6560  0.4646 -0.0473
18393SOL     OW56852   1.182   1.745   7.484 -0.1958  0.0105  0.0323
18393SOL    HW156853   1.215   1.735   7.573 -3.3399  1.1405  1.4414
18393SOL    HW256854   1.196   1.659   7.444 -1.3705 -1.5104  2.6413
18394SOL     OW56855   6.590   3.051   6.322  0.0745  0.0429  0.0819
18394SOL    HW156856   6.622   3.054   6.231  0.4076 -0.3683  0.1837
18394SOL    HW256857   6.495   3.055   6.314  0.1309  1.1902 -0.2310
18395SOL     OW56858   5.959   6.429   9.160 -0.2484 -0.4704 -0.1006
18395SOL    HW156859   5.884   6.487   9.157  0.1850  0.0889 -0.2691
18395SOL    HW256860   5.982   6.414   9.068  1.1161  1.0546 -0.0584
18396SOL     OW56861   5.729   7.608   0.558  0.0146  0.4689 -0.2429
18396SOL    HW156862   5.757   7.536   0.615 -0.2528  1.1130  0.7254
18396SOL    HW256863   5.657   7.572   0.507  0.1314 -0.0642 -0.0351
18397SOL     OW56864   7.725   0.471   0.393  0.1241 -0.2935 -0.1849
18397SOL    HW156865   7.796   0.454   0.332 -0.2495  1.3986 -1.1549
18397SOL    HW256866   7.698   0.384   0.423  2.5482 -0.9786  0.2093
18398SOL     OW56867   1.667   4.082   2.589 -0.6084  0.4963 -0.3701
18398SOL    HW156868   1.730   4.153   2.597  0.3600 -0.4243  0.4173
18398SOL    HW256869   1.691   4.038   2.508  0.0589 -0.1138  0.1463
18399SOL     OW56870   1.588   5.927   7.766 -0.5058  0.2892  0.4659
18399SOL    HW156871   1.587   5.948   7.860 -0.7257 -0.4653  0.6405
18399SOL    HW256872   1.672   5.882   7.753  0.7504  2.6591 -0.2410
18400SOL     OW56873   0.153   6.149   4.571  0.3624  0.2724  0.0009
18400SOL    HW156874   0.140   6.073   4.515 -0.2618  0.7800 -0.5659
18400SOL    HW256875   0.069   6.195   4.569  0.9751  1.4217 -0.3588
18401SOL     OW56876   0.158   9.448   0.201 -0.3085  0.7112  0.4472
18401SOL    HW156877   0.221   9.487   0.140  1.6427 -0.3176  1.7274
18401SOL    HW256878   0.199   9.367   0.230 -1.2712  1.0394  2.9316
18402SOL     OW56879   7.225   8.360   0.508 -0.1127  0.0277 -0.2020
18402SOL    HW156880   7.278   8.409   0.445  0.2687 -1.1478 -0.8165
18402SOL    HW256881   7.177   8.296   0.455  1.4447 -2.1018  0.8019
18403SOL     OW56882   7.557   0.647   9.569  0.8026 -0.3605 -0.1261
18403SOL    HW156883   7.634   0.668   9.623  0.1955  1.2372  0.1596
18403SOL    HW256884   7.538   0.728   9.523 -1.9584 -0.0630  1.3618
18404SOL     OW56885   4.541   4.162   8.428  0.0319 -0.2701  0.0715
18404SOL    HW156886   4.598   4.122   8.494  0.0166  0.8103  0.7668
18404SOL    HW256887   4.453   4.138   8.455  0.0158  0.3179  0.5581
18405SOL     OW56888   4.383   9.547   4.269  0.1077  0.5905  0.1952
18405SOL    HW156889   4.376   9.458   4.303  1.5856 -0.6082 -2.3612
18405SOL    HW256890   4.298   9.587   4.290 -0.1397 -0.9566  2.4855
18406SOL     OW56891   2.077   4.418   1.975  0.0249 -0.5192  0.3988
18406SOL    HW156892   2.095   4.342   2.030  2.0306  0.1056  0.6844
18406SOL    HW256893   2.083   4.385   1.886 -0.2543 -0.9350  0.5349
18407SOL     OW56894   1.649   8.524   5.243 -0.0132  0.1654 -0.4965
18407SOL    HW156895   1.609   8.478   5.318  0.3847  0.3707 -0.1521
18407SOL    HW256896   1.743   8.516   5.258  0.1098 -1.1240 -1.7925
18408SOL     OW56897   5.767   2.305   7.168 -0.0717 -0.3580 -0.0139
18408SOL    HW156898   5.798   2.360   7.240  0.3949 -1.8449  0.9633
18408SOL    HW256899   5.724   2.366   7.108 -1.6313  0.7706  2.1235
18409SOL     OW56900   6.944   3.702   5.595  0.7257  0.4770  0.3283
18409SOL    HW156901   6.867   3.662   5.555  1.8848 -1.6628  0.0839
18409SOL    HW256902   6.917   3.722   5.684 -0.8535  2.1564 -0.4678
18410SOL     OW56903   6.039   6.306   1.156 -0.3069  0.4562 -0.4373
18410SOL    HW156904   6.060   6.251   1.231  1.4988  2.1930  0.4337
18410SOL    HW256905   5.967   6.361   1.187 -2.6082 -1.7264 -1.5436
18411SOL     OW56906   2.056   7.100   9.063  0.1181 -0.4156  0.3838
18411SOL    HW156907   2.082   7.009   9.049  0.3588 -0.1739 -0.8606
18411SOL    HW256908   2.073   7.117   9.156  4.7095 -0.1927 -0.2954
18412SOL     OW56909   1.386   2.247   4.667  0.4257 -0.2387  0.0932
18412SOL    HW156910   1.398   2.342   4.661 -1.3352  0.0073 -0.0822
18412SOL    HW256911   1.375   2.231   4.761 -1.0148  0.0145 -0.0008
18413SOL     OW56912   1.365   4.236   5.491 -0.0792  0.1799  0.1127
18413SOL    HW156913   1.456   4.214   5.472  0.6176  1.1489  1.9673
18413SOL    HW256914   1.364   4.251   5.586 -2.1202  0.4470  0.0923
18414SOL     OW56915   4.919   2.289   2.452  0.5047  0.2491 -0.7972
18414SOL    HW156916   4.861   2.299   2.528 -1.0939  2.6591 -2.1906
18414SOL    HW256917   4.974   2.367   2.453  0.7651  0.0984 -1.8482
18415SOL     OW56918   6.145   2.441   0.131  0.6512  0.7140 -0.4024
18415SOL    HW156919   6.070   2.500   0.141  1.6299  1.6712  2.1011
18415SOL    HW256920   6.215   2.497   0.096  1.1422  0.7371  0.5524
18416SOL     OW56921   0.330   9.538   8.116 -0.8599  0.2172  0.8270
18416SOL    HW156922   0.285   9.454   8.107 -0.3754 -0.2087  2.0772
18416SOL    HW256923   0.260   9.601   8.131 -1.1384 -0.2395  1.5166
18417SOL     OW56924   3.024   2.734   2.247  0.4656  0.2263 -0.2475
18417SOL    HW156925   2.974   2.809   2.215 -0.2488 -0.7615 -1.5251
18417SOL    HW256926   2.964   2.687   2.305 -0.3759 -1.2763 -2.2269
18418SOL     OW56927   7.184   6.943   8.498 -0.4993  0.4667 -0.0563
18418SOL    HW156928   7.187   6.856   8.459 -0.1411 -0.3292  1.6631
18418SOL    HW256929   7.276   6.969   8.507 -0.3435 -0.7254  3.0224
18419SOL     OW56930   8.761   6.428   5.957 -0.8966 -0.2769 -0.0491
18419SOL    HW156931   8.722   6.430   5.870  0.7194 -0.9851 -0.8439
18419SOL    HW256932   8.687   6.433   6.018 -2.0505  0.1769 -1.4599
18420SOL     OW56933   8.702   0.089   8.511  0.0122 -0.1957 -0.0983
18420SOL    HW156934   8.798   0.096   8.515  0.0874 -1.0612 -0.1695
18420SOL    HW256935   8.680   0.021   8.575 -0.7168  1.1240  1.0966
18421SOL     OW56936   7.781   9.210   0.267 -0.1009  0.2234  0.9415
18421SOL    HW156937   7.769   9.157   0.346 -0.3603 -0.1343  0.6671
18421SOL    HW256938   7.707   9.186   0.210  1.4457 -1.4447 -0.4776
18422SOL     OW56939   2.400   6.137   6.908 -0.0586  0.4783  0.4150
18422SOL    HW156940   2.371   6.085   6.983  0.6568 -0.1429  0.2851
18422SOL    HW256941   2.467   6.082   6.867  0.5339  1.4040  0.1194
18423SOL     OW56942   9.622   9.018   6.954  0.1201 -0.4005 -0.5052
18423SOL    HW156943   9.574   8.940   6.981 -0.3696 -0.1901 -0.7591
18423SOL    HW256944   9.708   8.986   6.927  0.8910 -0.5666  1.9208
18424SOL     OW56945   9.319   8.783   3.410  0.4209  0.3261  0.3090
18424SOL    HW156946   9.295   8.752   3.322 -0.3160 -2.3077  1.3297
18424SOL    HW256947   9.244   8.835   3.438 -0.9357 -1.6899  0.6289
18425SOL     OW56948   0.911   1.920   3.497  0.0371 -0.4133  0.7191
18425SOL    HW156949   0.950   2.006   3.504 -1.4371  0.2213  1.7355
18425SOL    HW256950   0.973   1.861   3.539  1.2049  0.0768 -0.2790
18426SOL     OW56951   6.701   6.217   2.285  0.5662 -0.4175 -0.1227
18426SOL    HW156952   6.729   6.170   2.363 -1.1063  1.3801  1.6915
18426SOL    HW256953   6.782   6.237   2.238  1.8284  0.0697  2.1511
18427SOL     OW56954   5.922   9.583   7.267 -0.1373  0.0040  0.3003
18427SOL    HW156955   5.887   9.578   7.178 -3.7113 -0.4119  1.5406
18427SOL    HW256956   5.936   9.492   7.293 -0.7750  0.0026  0.6810
18428SOL     OW56957   4.648   0.241   9.081 -1.0228 -0.2686 -0.0036
18428SOL    HW156958   4.613   0.218   9.167 -0.6690  1.4876  0.6652
18428SOL    HW256959   4.627   0.334   9.072  3.4579  1.0180  0.5217
18429SOL     OW56960   8.717   3.540   3.152 -0.0436 -0.3421  0.1859
18429SOL    HW156961   8.789   3.599   3.175  0.5876 -0.9845 -0.0683
18429SOL    HW256962   8.758   3.453   3.151 -0.9241 -0.7648  0.4358
18430SOL     OW56963   0.401   2.089   5.584 -0.2412 -0.1623 -0.0272
18430SOL    HW156964   0.406   1.997   5.560  0.7888  0.1037 -0.9145
18430SOL    HW256965   0.308   2.108   5.589 -0.4635 -1.1462 -0.2325
18431SOL     OW56966   4.405   2.547   0.298  0.2464  0.1047 -0.0836
18431SOL    HW156967   4.484   2.579   0.255  0.7637  1.4864  1.7584
18431SOL    HW256968   4.435   2.471   0.348  0.0332 -0.3847 -0.6862
18432SOL     OW56969   7.576   9.397   4.161  0.0216 -0.0712  0.0795
18432SOL    HW156970   7.533   9.478   4.188 -0.4582 -0.0503 -0.7230
18432SOL    HW256971   7.641   9.425   4.096  0.9999 -0.1473  0.9957
18433SOL     OW56972   1.287   2.970   5.926  0.0002  0.5032  0.2113
18433SOL    HW156973   1.302   3.026   6.002 -1.4563  1.7428 -0.3415
18433SOL    HW256974   1.191   2.963   5.920  0.1245 -0.9420 -0.5444
18434SOL     OW56975   3.129   7.509   3.692  0.0686 -0.2635  0.3354
18434SOL    HW156976   3.146   7.535   3.783  0.3028  1.7508 -0.2302
18434SOL    HW256977   3.099   7.589   3.650 -0.8896 -1.3709 -1.1833
18435SOL     OW56978   5.970   3.655   1.217  0.6030  0.1370 -0.0947
18435SOL    HW156979   5.966   3.656   1.312 -1.6956 -2.2450 -0.0590
18435SOL    HW256980   5.907   3.721   1.189 -0.9984 -1.2003  0.1522
18436SOL     OW56981   6.100   6.539   0.408 -0.4887 -0.0298  0.1211
18436SOL    HW156982   6.175   6.479   0.407 -0.1017  0.2986  2.5236
18436SOL    HW256983   6.043   6.508   0.338  0.8873 -1.6228 -0.3593
18437SOL     OW56984   7.648   1.952   4.198  0.5407  0.4363  0.1464
18437SOL    HW156985   7.609   2.038   4.184  1.0527  0.4873 -1.0816
18437SOL    HW256986   7.609   1.921   4.280 -2.0850  0.4634 -1.0172
18438SOL     OW56987   4.361   2.473   5.055 -0.0477 -0.0038 -0.0539
18438SOL    HW156988   4.409   2.451   5.135  0.2722  0.3885 -0.1335
18438SOL    HW256989   4.289   2.411   5.053 -0.6098  0.5814  1.0333
18439SOL     OW56990   7.155   2.945   3.152 -0.5275  0.2849 -0.3725
18439SOL    HW156991   7.099   2.868   3.147 -1.0611  0.5418  1.0850
18439SOL    HW256992   7.235   2.920   3.107 -1.1457 -0.6903 -0.9662
18440SOL     OW56993   1.784   0.731   5.108  0.1455 -0.7916 -0.3907
18440SOL    HW156994   1.706   0.773   5.145 -0.8264 -2.5300 -0.3498
18440SOL    HW256995   1.753   0.690   5.027  0.9221 -1.7696 -0.2169
18441SOL     OW56996   2.357   5.165   4.789  0.2021 -0.5388  0.3331
18441SOL    HW156997   2.268   5.136   4.770  0.7274 -1.9096 -0.1045
18441SOL    HW256998   2.377   5.227   4.719  0.5819 -2.3353 -1.2158
18442SOL     OW56999   6.933   2.410   4.356 -0.2396 -0.0855  0.2080
18442SOL    HW157000   6.908   2.346   4.423  1.6571 -1.1542 -0.0360
18442SOL    HW257001   6.947   2.358   4.277 -1.3992  1.0268 -0.7713
18443SOL     OW57002   6.777   9.408   8.601 -0.6717 -0.3247 -0.7878
18443SOL    HW157003   6.789   9.474   8.670 -0.2831  0.8169 -1.8976
18443SOL    HW257004   6.866   9.376   8.583 -0.9421 -1.8017  0.3122
18444SOL     OW57005   2.431   7.847   9.674 -0.2980 -0.4053 -0.1109
18444SOL    HW157006   2.350   7.805   9.645 -1.5443  0.4543  1.9180
18444SOL    HW257007   2.418   7.940   9.655  0.4045 -0.3222 -0.1901
18445SOL     OW57008   4.890   7.810   2.233 -0.2490  0.1808 -0.4664
18445SOL    HW157009   4.907   7.899   2.200 -0.9481 -0.0005 -1.3662
18445SOL    HW257010   4.812   7.782   2.186 -0.4865 -0.6280  0.3882
18446SOL     OW57011   2.537   0.602   1.260  0.2144  0.4935 -0.3367
18446SOL    HW157012   2.471   0.628   1.325 -0.8952  0.0701 -1.2468
18446SOL    HW257013   2.571   0.519   1.293 -1.3387 -0.4318 -0.9335
18447SOL     OW57014   8.944   3.908   1.909 -0.2880 -0.1329 -0.4474
18447SOL    HW157015   8.854   3.938   1.918 -0.7112 -1.6707  0.6536
18447SOL    HW257016   8.997   3.985   1.930 -1.3405  0.2715  0.8277
18448SOL     OW57017   7.932   3.630   2.249 -0.0397 -0.1045  0.1486
18448SOL    HW157018   7.990   3.664   2.317 -0.9302  0.0793  0.8436
18448SOL    HW257019   7.977   3.553   2.215  0.7696  0.2405  0.4236
18449SOL     OW57020   8.962   7.931   6.136  0.2695  0.1301 -0.0654
18449SOL    HW157021   9.040   7.894   6.178  1.1787  1.2566 -0.6891
18449SOL    HW257022   8.911   7.969   6.207  1.1078  0.8172  0.1767
18450SOL     OW57023   0.542   5.526   1.487  0.1216 -0.7621 -0.2340
18450SOL    HW157024   0.493   5.471   1.426 -0.2747  0.8624 -1.4399
18450SOL    HW257025   0.475   5.576   1.533  0.5064 -0.8322  0.4170
18451SOL     OW57026   2.013   7.652   4.448  0.1735 -0.1116 -0.2811
18451SOL    HW157027   2.105   7.676   4.441 -0.3128  2.1051  0.1132
18451SOL    HW257028   2.007   7.566   4.407  1.9680  0.8150 -2.7156
18452SOL     OW57029   0.576   3.577   1.131 -0.2168  0.5382 -0.2560
18452SOL    HW157030   0.642   3.596   1.198  0.2017  1.1751 -0.8318
18452SOL    HW257031   0.592   3.487   1.106  0.1447  0.5498 -0.0709
18453SOL     OW57032   7.447   6.997   8.429  0.0319  0.5439 -0.0491
18453SOL    HW157033   7.470   6.961   8.515 -2.1203 -0.1343  0.3007
18453SOL    HW257034   7.501   6.947   8.368 -0.2739 -0.8124  0.7298
18454SOL     OW57035   1.445   8.319   7.667 -0.4534  0.4160 -0.1313
18454SOL    HW157036   1.428   8.245   7.726 -0.6755 -0.1982 -0.9348
18454SOL    HW257037   1.411   8.290   7.583 -0.2547  1.3242 -0.5366
18455SOL     OW57038   6.942   5.461   6.080 -0.0891 -0.3566 -0.7076
18455SOL    HW157039   6.887   5.383   6.073  1.1820 -1.3746  0.1246
18455SOL    HW257040   6.950   5.476   6.175  0.0488  0.5299 -0.8467
18456SOL     OW57041   8.915   4.878   9.060  0.2876 -0.4653 -0.3576
18456SOL    HW157042   8.932   4.886   8.966  0.8973  0.0325 -0.2077
18456SOL    HW257043   8.998   4.852   9.098  0.7680  1.8781  0.3726
18457SOL     OW57044   5.436   0.554   8.574 -0.2276  0.8001  0.3604
18457SOL    HW157045   5.461   0.462   8.573  0.1718  0.9067 -0.1196
18457SOL    HW257046   5.346   0.554   8.607 -0.9373  0.0521 -1.4331
18458SOL     OW57047   8.670   0.690   9.144 -0.3858  0.0540 -0.4063
18458SOL    HW157048   8.613   0.623   9.107 -0.9315  0.5755 -0.5161
18458SOL    HW257049   8.617   0.732   9.211  0.2860 -0.2736  0.3491
18459SOL     OW57050   8.736   8.021   3.286  0.1087  0.4593 -0.1988
18459SOL    HW157051   8.686   7.992   3.210 -0.0380  0.4447 -0.0979
18459SOL    HW257052   8.709   8.112   3.299  0.8027  0.7518 -0.7066
18460SOL     OW57053   8.226   2.869   5.809 -0.4098 -0.2946 -0.7175
18460SOL    HW157054   8.243   2.794   5.866  0.9868  0.5454  0.0075
18460SOL    HW257055   8.307   2.882   5.760 -0.8082  0.4402 -1.2099
18461SOL     OW57056   0.446   1.643   2.230  0.4063  0.4732 -0.2976
18461SOL    HW157057   0.465   1.554   2.260 -1.1773  0.2001  0.0047
18461SOL    HW257058   0.382   1.632   2.160  1.4196  1.3128 -1.4091
18462SOL     OW57059   6.234   0.688   5.512  0.1882  0.3054  0.8517
18462SOL    HW157060   6.172   0.664   5.581 -0.0835  1.5232  1.0530
18462SOL    HW257061   6.290   0.754   5.552  0.6584  0.3100  0.1996
18463SOL     OW57062   9.622   2.709   7.438  0.3963  0.2158 -0.3097
18463SOL    HW157063   9.708   2.747   7.454  0.2909  0.3602 -0.0675
18463SOL    HW257064   9.566   2.784   7.417 -0.1901  0.4257  1.7852
18464SOL     OW57065   6.688   0.784   7.811  0.0070  0.3142 -0.1550
18464SOL    HW157066   6.733   0.866   7.793 -1.3519  1.3569  0.8830
18464SOL    HW257067   6.608   0.789   7.759  0.5674 -1.0470 -1.2069
18465SOL     OW57068   1.074   0.914   9.362 -0.3874 -0.1303 -0.4658
18465SOL    HW157069   1.089   0.828   9.322  1.5249  0.0829 -0.2959
18465SOL    HW257070   1.161   0.943   9.390 -1.1331  1.4463  0.3537
18466SOL     OW57071   5.555   6.204   6.950 -0.4171  0.1595 -0.2816
18466SOL    HW157072   5.551   6.219   6.856 -2.5568  2.1393  0.0363
18466SOL    HW257073   5.464   6.208   6.979  0.1898 -0.4308  1.8889
18467SOL     OW57074   0.810   0.492   4.531 -0.0081 -0.1206  0.3103
18467SOL    HW157075   0.890   0.532   4.497  0.3527 -0.2813  0.9517
18467SOL    HW257076   0.839   0.445   4.609 -1.0891  1.7468  1.9413
18468SOL     OW57077   8.557   4.128   7.982  0.3860  0.2298 -0.2445
18468SOL    HW157078   8.650   4.125   8.005  0.1123  1.0565  1.1075
18468SOL    HW257079   8.531   4.217   8.003 -1.2745 -0.6533  1.8600
18469SOL     OW57080   1.005   0.427   6.834  0.1670  0.0932  0.6790
18469SOL    HW157081   0.985   0.388   6.919  0.0111  1.8117  1.4718
18469SOL    HW257082   1.036   0.515   6.854 -1.1471  1.0388 -1.0875
18470SOL     OW57083   0.226   2.250   0.551 -0.3161 -0.5345 -0.4762
18470SOL    HW157084   0.223   2.174   0.609  0.4317  0.2881  0.6876
18470SOL    HW257085   0.134   2.271   0.534 -0.6651  0.3968  2.0857
18471SOL     OW57086   1.689   8.202   9.171 -0.0989  0.2299 -0.2814
18471SOL    HW157087   1.686   8.133   9.105  0.3893  0.1868 -0.2646
18471SOL    HW257088   1.765   8.255   9.147 -2.0444  2.4658 -1.9650
18472SOL     OW57089   6.788   1.515   6.899 -0.2946 -0.2976  0.7385
18472SOL    HW157090   6.839   1.532   6.979 -0.9492  2.0466  0.7254
18472SOL    HW257091   6.829   1.569   6.832 -2.3939  1.2606  0.6034
18473SOL     OW57092   8.324   6.375   3.538 -0.2501 -0.2121  0.1907
18473SOL    HW157093   8.272   6.439   3.587 -0.7408 -0.9311  0.6159
18473SOL    HW257094   8.317   6.294   3.588  0.1092 -0.6876 -0.5108
18474SOL     OW57095   8.122   4.399   2.387 -0.0425 -0.2076 -0.4537
18474SOL    HW157096   8.036   4.442   2.382 -0.1467 -0.3795 -0.1553
18474SOL    HW257097   8.103   4.306   2.372  0.1351 -0.2020 -0.7224
18475SOL     OW57098   8.239   3.008   9.279 -0.3278  0.0733  0.6686
18475SOL    HW157099   8.233   2.983   9.186  3.6614 -1.2441  0.5978
18475SOL    HW257100   8.270   2.929   9.323 -0.5654  1.1612  2.8885
18476SOL     OW57101   5.125   7.804   7.361  0.3183 -0.0542 -0.5482
18476SOL    HW157102   5.216   7.775   7.353  0.5384  0.5749 -0.3365
18476SOL    HW257103   5.102   7.785   7.452 -0.0102 -0.9001 -0.7923
18477SOL     OW57104   7.041   6.393   5.311  0.0681 -0.5033  0.1920
18477SOL    HW157105   7.088   6.476   5.303 -1.5490  0.4026 -0.3116
18477SOL    HW257106   7.067   6.343   5.234  0.3446 -0.0995  0.0168
18478SOL     OW57107   0.401   8.194   3.573  0.4904  0.1535  0.2499
18478SOL    HW157108   0.344   8.142   3.629 -0.3940 -0.1854 -0.9237
18478SOL    HW257109   0.471   8.223   3.631 -0.3371 -0.2519  1.5004
18479SOL     OW57110   9.085   6.813   8.748  0.5214  0.3884 -0.7293
18479SOL    HW157111   8.998   6.853   8.747 -0.0523 -0.6222  1.9301
18479SOL    HW257112   9.143   6.880   8.784 -0.0734 -0.3881  1.8451
18480SOL     OW57113   1.272   7.717   1.330  0.1535 -0.4740  0.3386
18480SOL    HW157114   1.210   7.649   1.358  1.4722 -1.2484  1.4878
18480SOL    HW257115   1.326   7.674   1.264 -0.4587  0.1861 -0.6219
18481SOL     OW57116   9.216   9.200   6.498 -0.3516 -0.1902  0.5263
18481SOL    HW157117   9.215   9.283   6.545  2.4050  1.3061 -1.7885
18481SOL    HW257118   9.278   9.145   6.547  0.0448  0.1894  0.4533
18482SOL     OW57119   3.659   3.339   4.581  0.1389 -0.2313 -0.0687
18482SOL    HW157120   3.669   3.380   4.495  0.1528  1.8899  0.8692
18482SOL    HW257121   3.566   3.317   4.587  0.0473  0.0529 -0.4548
18483SOL     OW57122   9.284   0.022   4.792 -0.0621 -0.1533  0.3805
18483SOL    HW157123   9.370   0.052   4.762  0.2922  1.1348  2.4545
18483SOL    HW257124   9.290  -0.073   4.791  0.7738 -0.1045 -1.1193
18484SOL     OW57125   3.277   8.791   8.541  0.0218  0.5598  0.2010
18484SOL    HW157126   3.267   8.869   8.596  0.8849 -0.2148  1.5009
18484SOL    HW257127   3.370   8.770   8.546 -0.3840 -1.2239  0.8317
18485SOL     OW57128   2.173   0.049   2.592 -0.7699  0.2476 -0.2255
18485SOL    HW157129   2.113   0.076   2.523 -0.5831 -1.1380 -0.9869
18485SOL    HW257130   2.242   0.115   2.592 -1.4423  0.9583 -0.4721
18486SOL     OW57131   3.478   8.125   8.614 -0.3561 -0.0488  0.0554
18486SOL    HW157132   3.410   8.163   8.558  1.9867  1.2824 -2.0885
18486SOL    HW257133   3.494   8.191   8.681 -1.6530 -0.7141  1.0728
18487SOL     OW57134   5.839   8.831   2.710  0.5432  0.4995 -0.2502
18487SOL    HW157135   5.885   8.757   2.670 -0.3050 -0.9328  1.3183
18487SOL    HW257136   5.791   8.871   2.638 -0.6267 -1.7615 -0.8180
18488SOL     OW57137   2.248   7.040   1.522 -0.0309 -0.0343 -0.1056
18488SOL    HW157138   2.194   6.961   1.523  1.0757 -0.8371 -0.5963
18488SOL    HW257139   2.319   7.022   1.583  1.1733 -0.1503 -1.4647
18489SOL     OW57140   3.878   6.941   9.431 -0.3731  0.6719 -0.6497
18489SOL    HW157141   3.893   6.910   9.342 -0.5787  0.4170 -0.5972
18489SOL    HW257142   3.922   7.026   9.435  0.7301  0.1158 -0.6098
18490SOL     OW57143   4.616   0.768   5.492 -0.4469  0.4436 -0.7493
18490SOL    HW157144   4.557   0.843   5.483  0.2333  0.9761 -0.7899
18490SOL    HW257145   4.648   0.752   5.403  0.0331  0.6117 -0.6060
18491SOL     OW57146   5.943   4.328   3.633 -0.7176  0.2998 -0.6976
18491SOL    HW157147   5.885   4.375   3.573 -0.2904  0.0276 -1.3412
18491SOL    HW257148   6.012   4.391   3.653 -1.0119  0.4871 -0.2564
18492SOL     OW57149   7.939   3.594   7.733  0.4807  0.6394 -0.4912
18492SOL    HW157150   7.873   3.556   7.789  1.0548 -1.8870 -1.3934
18492SOL    HW257151   8.021   3.584   7.781  0.8115 -0.4823 -1.2460
18493SOL     OW57152   2.583   9.117   5.007 -0.0361 -0.1321  0.0225
18493SOL    HW157153   2.568   9.032   4.965 -1.4083 -0.9322  1.9456
18493SOL    HW257154   2.635   9.095   5.085 -0.3618  0.7873  0.5072
18494SOL     OW57155   4.008   2.781   0.538 -0.9225 -0.0576 -0.0177
18494SOL    HW157156   4.039   2.811   0.452  2.6664  1.0181  1.4479
18494SOL    HW257157   3.980   2.860   0.583  0.5699 -0.0298  0.9408
18495SOL     OW57158   6.812   7.466   6.107 -0.0261 -0.0426  0.0110
18495SOL    HW157159   6.831   7.392   6.165  0.0709  0.6334  0.8536
18495SOL    HW257160   6.855   7.541   6.149  1.3810  0.1949 -1.7376
18496SOL     OW57161   9.295   7.981   8.015 -0.3360 -0.1109 -0.8525
18496SOL    HW157162   9.275   7.970   8.108 -0.0178 -0.6468 -0.8397
18496SOL    HW257163   9.308   8.075   8.004 -1.4051  0.0841 -0.5737
18497SOL     OW57164   7.267   6.238   6.976 -0.8672 -0.7245  0.0397
18497SOL    HW157165   7.189   6.186   6.993 -2.0152 -0.0430 -2.6632
18497SOL    HW257166   7.309   6.197   6.901 -0.2414  0.6040 -0.3851
18498SOL     OW57167   3.013   5.811   9.012 -0.3149 -0.4793 -0.5083
18498SOL    HW157168   3.100   5.831   9.047 -0.6790 -0.1808  0.2443
18498SOL    HW257169   2.965   5.774   9.086 -1.0116 -0.0934 -0.7591
18499SOL     OW57170   0.328   7.712   9.505 -0.0125  0.4698  0.4859
18499SOL    HW157171   0.414   7.742   9.532  0.2579 -0.6288  0.8571
18499SOL    HW257172   0.342   7.623   9.473 -0.8293  0.6616 -0.4557
18500SOL     OW57173   0.288   3.728   4.947  0.0375  0.4716 -0.1414
18500SOL    HW157174   0.293   3.746   4.853 -0.6425  2.6144  0.1744
18500SOL    HW257175   0.307   3.812   4.989 -1.2833 -0.0374  1.6031
18501SOL     OW57176   8.767   8.797   0.209 -0.8503  0.0025  0.0482
18501SOL    HW157177   8.704   8.771   0.276 -0.2477 -0.8082  0.3202
18501SOL    HW257178   8.833   8.848   0.256  0.6437 -2.2282  0.5100
18502SOL     OW57179   2.261   0.432   2.705 -0.1452  0.0421  0.0616
18502SOL    HW157180   2.216   0.387   2.634  0.5978 -0.5722 -0.0375
18502SOL    HW257181   2.311   0.501   2.661  0.6742 -0.6250 -0.0829
18503SOL     OW57182   7.403   2.621   4.004 -0.0560  0.3526 -1.0285
18503SOL    HW157183   7.436   2.533   4.019 -1.1862  0.2877  1.5702
18503SOL    HW257184   7.314   2.608   3.971 -0.4652  0.4723 -0.0190
18504SOL     OW57185   0.370   5.495   2.935  0.4248 -0.0803  0.1320
18504SOL    HW157186   0.307   5.564   2.913 -0.3963  0.1098  2.6896
18504SOL    HW257187   0.452   5.525   2.898 -0.5941  0.5898 -1.7011
18505SOL     OW57188   6.866   3.226   9.314  0.8373 -0.4856 -0.0483
18505SOL    HW157189   6.822   3.146   9.341 -0.3257  0.4057  0.7920
18505SOL    HW257190   6.919   3.200   9.238  1.5769 -2.3174  1.0486
18506SOL     OW57191   8.943   2.024   3.971 -0.2866 -0.9197 -0.2927
18506SOL    HW157192   8.858   2.058   4.001 -0.0992 -0.4835 -0.2467
18506SOL    HW257193   8.926   1.932   3.951 -0.3841 -1.2819  1.3334
18507SOL     OW57194   4.767   2.106   8.597 -0.3114  0.0852  0.1169
18507SOL    HW157195   4.758   2.144   8.510  3.4939  0.2327 -0.3821
18507SOL    HW257196   4.796   2.179   8.652  0.9325 -0.7581  0.6250
18508SOL     OW57197   7.142   3.366   6.140  0.0607 -0.4353  0.1433
18508SOL    HW157198   7.226   3.394   6.105  0.3969  1.4463  2.2430
18508SOL    HW257199   7.163   3.310   6.214 -0.5645 -0.5992  0.2098
18509SOL     OW57200   1.353   3.058   0.642 -0.4489 -0.8314  0.0859
18509SOL    HW157201   1.403   3.042   0.561 -1.4286 -1.4774 -0.4113
18509SOL    HW257202   1.372   3.149   0.664  0.5185 -0.8970 -0.3856
18510SOL     OW57203   4.325   5.375   7.422 -0.2400  0.0891  0.2105
18510SOL    HW157204   4.337   5.349   7.331 -0.3820 -0.2742  0.2933
18510SOL    HW257205   4.241   5.336   7.448  0.7290 -1.5415  1.0940
18511SOL     OW57206   2.928   2.446   6.485 -0.5820 -0.2521 -0.2152
18511SOL    HW157207   3.016   2.465   6.519  0.4474  1.4026 -3.3900
18511SOL    HW257208   2.943   2.385   6.413 -1.7130  1.5213 -2.0493
18512SOL     OW57209   5.752   6.125   3.057 -0.2506  0.3953 -0.6548
18512SOL    HW157210   5.750   6.164   3.144  1.2510 -0.2502 -0.3089
18512SOL    HW257211   5.825   6.168   3.012  0.1855 -0.5993 -0.9308
18513SOL     OW57212   7.532   7.046   1.577 -0.2145  0.3564 -0.6336
18513SOL    HW157213   7.517   7.139   1.560  1.0943  0.4295 -1.5006
18513SOL    HW257214   7.624   7.033   1.558  0.3004 -0.5662  2.0964
18514SOL     OW57215   9.353   9.337   2.637 -0.1211 -0.3295 -0.4886
18514SOL    HW157216   9.388   9.296   2.716 -0.3662  3.2553  1.6690
18514SOL    HW257217   9.420   9.401   2.611 -0.4959 -0.7241 -2.6779
18515SOL     OW57218   2.146   1.290   3.643 -0.0458 -0.6061  0.0197
18515SOL    HW157219   2.139   1.256   3.554  0.5180 -1.3180  0.2365
18515SOL    HW257220   2.198   1.370   3.633  1.2168 -1.4096 -0.1457
18516SOL     OW57221   2.478   0.486   4.969  0.2783  0.4092  0.3368
18516SOL    HW157222   2.447   0.517   4.883  0.5619  0.4475  0.2468
18516SOL    HW257223   2.558   0.536   4.985  1.2789 -0.9478 -0.2497
18517SOL     OW57224   0.776   8.734   8.325  0.0751  0.3525 -0.0525
18517SOL    HW157225   0.860   8.763   8.289  0.5222 -0.0818  0.6308
18517SOL    HW257226   0.731   8.694   8.250  1.5675 -1.7991  0.1085
18518SOL     OW57227   5.665   3.374   7.280  0.5294  0.2838 -0.2208
18518SOL    HW157228   5.637   3.446   7.337 -0.6461 -0.3446  0.0291
18518SOL    HW257229   5.596   3.367   7.214 -0.1308 -1.4945  0.5796
18519SOL     OW57230   9.627   5.941   1.212 -0.1161  0.3889  0.2398
18519SOL    HW157231   9.564   5.881   1.173  0.1028  0.6641 -0.5421
18519SOL    HW257232   9.701   5.941   1.152  1.1269 -0.7840  1.6782
18520SOL     OW57233   0.934   5.686   2.598 -0.5871 -0.7506  0.6591
18520SOL    HW157234   0.918   5.766   2.648 -0.6028 -0.1735 -0.2341
18520SOL    HW257235   0.894   5.617   2.650 -0.0261 -0.2689  1.7502
18521SOL     OW57236   4.377   2.777   7.697 -0.0036 -0.4837  0.1728
18521SOL    HW157237   4.395   2.845   7.763 -0.3988 -0.9638  0.7907
18521SOL    HW257238   4.300   2.731   7.731  0.9884 -2.0372  0.4054
18522SOL     OW57239   2.575   7.820   2.882 -0.0399 -0.6522 -0.3348
18522SOL    HW157240   2.619   7.760   2.942  0.0205  0.4750  0.7893
18522SOL    HW257241   2.482   7.814   2.905  0.0346  0.1293  0.2282
18523SOL     OW57242   5.019   8.008   6.164  0.2647  0.4115 -0.6386
18523SOL    HW157243   5.038   7.921   6.128 -0.3919  0.3223 -0.7693
18523SOL    HW257244   5.011   8.064   6.087 -1.7638  0.1020 -0.7106
18524SOL     OW57245   2.638   0.110   4.386  0.1609 -0.3669 -0.3966
18524SOL    HW157246   2.612   0.163   4.311  0.5727 -0.8300 -0.8671
18524SOL    HW257247   2.569   0.127   4.451  0.2085  0.6335 -0.5826
18525SOL     OW57248   9.333   6.314   4.849 -0.4216 -0.4403  0.2635
18525SOL    HW157249   9.354   6.327   4.756 -0.3826 -0.6275  0.2456
18525SOL    HW257250   9.257   6.370   4.865 -1.4765 -1.6651 -0.2950
18526SOL     OW57251   6.276   7.137   0.054 -0.5730  0.0879 -0.1974
18526SOL    HW157252   6.234   7.204  -0.001 -0.7450  0.4237  0.3393
18526SOL    HW257253   6.292   7.064  -0.006  1.8287  1.4904 -1.4205
18527SOL     OW57254   6.399   4.073   5.480 -0.1224  0.2940  0.6920
18527SOL    HW157255   6.491   4.094   5.501 -0.3905 -0.1420  2.5078
18527SOL    HW257256   6.403   3.991   5.432  0.4106 -0.1629  1.4942
18528SOL     OW57257   2.394   1.668   3.909 -0.6854  0.1426 -0.0848
18528SOL    HW157258   2.322   1.664   3.846 -1.5883 -0.3278  0.9489
18528SOL    HW257259   2.400   1.761   3.931 -0.8382  0.2114 -0.3183
18529SOL     OW57260   5.204   5.881   9.473  0.1528 -0.5726  0.2175
18529SOL    HW157261   5.266   5.940   9.514 -1.5906  0.9831  0.7512
18529SOL    HW257262   5.159   5.838   9.546 -0.9000 -0.0190 -0.0723
18530SOL     OW57263   6.449   9.418   3.131 -0.3786 -0.8675 -0.4372
18530SOL    HW157264   6.364   9.374   3.124 -0.7658 -0.2671  0.3680
18530SOL    HW257265   6.493   9.372   3.202 -0.0971 -1.0574 -0.7318
18531SOL     OW57266   9.506   3.375   2.822 -0.3480 -0.6118 -0.6022
18531SOL    HW157267   9.516   3.304   2.885  0.5641 -0.1370 -0.1951
18531SOL    HW257268   9.595   3.390   2.788 -0.4538  0.5756 -0.4063
18532SOL     OW57269   7.015   0.889   7.876  0.0298 -0.2126 -0.5569
18532SOL    HW157270   7.017   0.830   7.801 -1.0199  0.7447 -1.3758
18532SOL    HW257271   6.929   0.875   7.916  0.4681 -0.5088  0.3212
18533SOL     OW57272   8.032   2.263   0.374  0.2297  0.1290 -0.3316
18533SOL    HW157273   8.002   2.240   0.462  0.9419 -0.0484 -0.1262
18533SOL    HW257274   7.955   2.301   0.331 -1.1772 -2.8654 -0.7985
18534SOL     OW57275   5.231   6.358   1.514  0.1991 -0.1601 -0.5331
18534SOL    HW157276   5.179   6.437   1.526  0.9223  0.1712  0.4624
18534SOL    HW257277   5.292   6.380   1.444  0.5060  0.2264 -0.1492
18535SOL     OW57278   3.184   7.125   2.282 -0.4489  0.9929 -0.2473
18535SOL    HW157279   3.240   7.186   2.234  1.1002  0.7007  1.1052
18535SOL    HW257280   3.227   7.040   2.273 -0.0842  0.9276  1.5939
18536SOL     OW57281   1.224   0.948   3.493 -0.2373  0.7188  0.8026
18536SOL    HW157282   1.188   0.892   3.424  0.1640  2.2388 -0.7057
18536SOL    HW257283   1.162   1.021   3.498  1.4075  2.2552 -0.2840
18537SOL     OW57284   6.140   9.412   3.700  0.3937 -0.1449 -0.9491
18537SOL    HW157285   6.101   9.427   3.614 -2.2189 -1.1192 -0.0161
18537SOL    HW257286   6.120   9.321   3.720  0.9847  0.0508  0.6913
18538SOL     OW57287   0.688   3.219   2.933  0.0989 -0.2813  0.2614
18538SOL    HW157288   0.655   3.133   2.907  0.2461 -0.4033  0.4736
18538SOL    HW257289   0.764   3.233   2.877 -0.0417 -0.2037  0.0910
18539SOL     OW57290   6.448   5.469   8.843  0.5110  0.5439 -0.4966
18539SOL    HW157291   6.357   5.439   8.851  0.6976  0.1547  0.2882
18539SOL    HW257292   6.478   5.434   8.759  0.8160 -1.7802  0.5090
18540SOL     OW57293   5.130   0.002   5.496 -0.1351 -0.4250 -0.1073
18540SOL    HW157294   5.129   0.032   5.405  0.2030 -0.2617 -0.0581
18540SOL    HW257295   5.080  -0.080   5.494 -1.5309  0.4028 -0.1410
18541SOL     OW57296   5.313   2.761   2.308  0.1481  0.0129 -0.2356
18541SOL    HW157297   5.326   2.668   2.293  0.6691  0.0413  0.0231
18541SOL    HW257298   5.247   2.787   2.243  1.1794 -0.1946 -1.4009
18542SOL     OW57299   1.112   3.208   1.373  0.3519 -0.4423 -0.4131
18542SOL    HW157300   1.017   3.216   1.367  0.3047 -1.1744 -0.7938
18542SOL    HW257301   1.145   3.298   1.367 -0.2316 -0.3048 -1.8550
18543SOL     OW57302   3.054   9.604   8.761  0.3136  0.1281  0.3074
18543SOL    HW157303   2.985   9.542   8.786  0.7870 -0.4505  0.1917
18543SOL    HW257304   3.021   9.646   8.681  0.9068 -1.5215 -0.8481
18544SOL     OW57305   7.394   7.112   0.152  0.1380 -0.0129 -0.4028
18544SOL    HW157306   7.418   7.198   0.116 -0.8237  0.4692  0.0640
18544SOL    HW257307   7.304   7.098   0.122 -0.2369 -0.1743  0.7575
18545SOL     OW57308   9.308   4.058   4.275 -0.1450  0.5332  0.3909
18545SOL    HW157309   9.263   4.132   4.316 -1.5758  0.1203 -0.3552
18545SOL    HW257310   9.237   4.000   4.247  0.9387 -1.6754  1.9112
18546SOL     OW57311   1.584   4.354   7.465  0.0198 -0.2527 -0.3250
18546SOL    HW157312   1.533   4.281   7.501 -0.8150  0.0803 -0.7918
18546SOL    HW257313   1.540   4.374   7.382  1.8015 -0.9235 -1.4989
18547SOL     OW57314   1.867   4.440   4.342  0.0692 -0.1763  0.1693
18547SOL    HW157315   1.826   4.355   4.361 -0.5521 -0.1933 -1.1895
18547SOL    HW257316   1.825   4.470   4.262  0.2148  1.4836  0.6797
18548SOL     OW57317   8.269   5.562   7.096 -0.5138  0.1903  0.0841
18548SOL    HW157318   8.261   5.642   7.148 -0.0638  0.7592 -0.7060
18548SOL    HW257319   8.181   5.523   7.098 -0.9155  1.0655 -0.1100
18549SOL     OW57320   7.612   3.674   9.299 -0.2114  0.0254 -0.0633
18549SOL    HW157321   7.592   3.642   9.211  1.9953 -0.0338 -0.5993
18549SOL    HW257322   7.658   3.756   9.284 -2.5202  1.6442  1.1881
18550SOL     OW57323   1.587   0.501   4.469  0.3317  0.0107  0.3041
18550SOL    HW157324   1.514   0.531   4.414  0.8643 -0.1504 -0.5063
18550SOL    HW257325   1.633   0.436   4.416 -0.1142 -1.4108  1.5968
18551SOL     OW57326   8.294   5.276   0.699 -0.1480 -0.2294  0.7485
18551SOL    HW157327   8.366   5.293   0.760 -0.0159  1.7465  0.1215
18551SOL    HW257328   8.217   5.266   0.755  0.2933 -0.4237  1.3267
18552SOL     OW57329   7.503   9.654   2.540  0.2515  0.0573  0.0941
18552SOL    HW157330   7.459   9.700   2.469 -2.0826 -1.4111  0.4925
18552SOL    HW257331   7.464   9.689   2.620 -0.6668 -1.6649  0.4415
18553SOL     OW57332   6.646   1.621   2.156  0.2316  0.8498  0.0297
18553SOL    HW157333   6.663   1.703   2.108 -2.7283  2.1497  0.9241
18553SOL    HW257334   6.678   1.552   2.098 -0.0649  2.5213 -2.2700
18554SOL     OW57335   7.936   8.134   6.864 -0.3870  0.3730  0.1618
18554SOL    HW157336   7.856   8.082   6.874 -0.3130  0.3121  0.4356
18554SOL    HW257337   8.000   8.091   6.921 -0.4659  1.0578  0.7789
18555SOL     OW57338   0.989   2.429   7.322 -0.4038 -0.2567 -0.0727
18555SOL    HW157339   1.061   2.486   7.294 -2.3223  2.2907 -0.1639
18555SOL    HW257340   0.996   2.352   7.264  2.6907 -0.5553  0.5162
18556SOL     OW57341   8.950   1.736   2.509 -0.4359  0.0592 -0.1167
18556SOL    HW157342   8.954   1.679   2.586 -0.8330  0.6169  0.3336
18556SOL    HW257343   9.033   1.721   2.463  0.8558  1.3399  1.6203
18557SOL     OW57344   5.564   5.604   5.150  0.1751 -0.3137  0.0863
18557SOL    HW157345   5.494   5.568   5.205  0.5305 -0.4348  0.4689
18557SOL    HW257346   5.567   5.697   5.172 -1.3512  0.1602 -1.5680
18558SOL     OW57347   0.024   8.013   5.197  1.1121  0.3216  0.2587
18558SOL    HW157348   0.062   7.966   5.123  2.8376  0.8566  0.7700
18558SOL    HW257349  -0.044   8.069   5.157 -0.2731 -1.7639 -0.4679
18559SOL     OW57350   8.640   6.304   7.290  0.1585 -0.1053  0.1591
18559SOL    HW157351   8.598   6.373   7.238 -0.2045 -0.6965 -0.3539
18559SOL    HW257352   8.576   6.282   7.357 -0.0792 -0.5172 -0.1929
18560SOL     OW57353   8.964   4.255   4.829  0.3057 -0.1503  0.1665
18560SOL    HW157354   9.012   4.203   4.765  1.0964 -0.0842  0.6881
18560SOL    HW257355   9.013   4.336   4.836  0.6562 -0.4474  1.3858
18561SOL     OW57356   1.152   9.495   4.387  0.2789  0.5785  0.4308
18561SOL    HW157357   1.244   9.512   4.365  1.0994 -1.4109  2.0582
18561SOL    HW257358   1.151   9.486   4.482 -1.2183 -1.2661  0.3023
18562SOL     OW57359   0.595   1.818   2.012 -0.4580  0.1958 -0.8588
18562SOL    HW157360   0.529   1.761   1.973 -0.1010 -0.7763 -0.0644
18562SOL    HW257361   0.654   1.840   1.940 -0.8621 -0.0533 -1.2703
18563SOL     OW57362   1.189   4.282   1.562  0.0320 -0.2862 -0.5198
18563SOL    HW157363   1.192   4.348   1.493  1.0620  1.3400  0.9874
18563SOL    HW257364   1.262   4.305   1.619 -0.5409 -1.8201  0.8891
18564SOL     OW57365   7.795   6.868   9.038  0.3487 -0.2200 -0.1215
18564SOL    HW157366   7.700   6.860   9.027  0.3459 -0.0590 -0.2239
18564SOL    HW257367   7.827   6.778   9.037  0.1196 -0.3131  0.6127
18565SOL     OW57368   8.550   5.944   1.001 -0.4185 -0.8751 -0.2526
18565SOL    HW157369   8.480   5.992   0.957 -0.7117 -0.7533  0.3464
18565SOL    HW257370   8.624   5.949   0.940 -1.8879 -3.9734 -2.5581
18566SOL     OW57371   2.076   4.201   2.223 -0.5799  0.4912 -0.3228
18566SOL    HW157372   2.100   4.109   2.231 -0.3018  0.4187 -1.7771
18566SOL    HW257373   2.133   4.247   2.285  1.6858  0.0501 -1.9630
18567SOL     OW57374   0.960   4.635   2.113  0.8376 -0.5859 -0.7460
18567SOL    HW157375   0.945   4.712   2.058 -0.1112 -0.6136 -0.5478
18567SOL    HW257376   0.963   4.670   2.202  0.0256 -0.8207 -0.6246
18568SOL     OW57377   6.922   7.501   0.084  0.1676  0.1104 -0.5049
18568SOL    HW157378   6.983   7.455   0.142  0.3701  0.9040 -0.0764
18568SOL    HW257379   6.857   7.435   0.061  0.5402 -0.4333 -0.0247
18569SOL     OW57380   8.963   2.308   2.461 -0.0953 -0.6298 -0.2906
18569SOL    HW157381   8.946   2.235   2.520 -2.0594 -0.4453 -0.5593
18569SOL    HW257382   9.055   2.330   2.476 -0.7101  0.0921  3.4526
18570SOL     OW57383   3.836   6.920   3.199  0.4151  0.3426  0.3928
18570SOL    HW157384   3.787   6.956   3.273 -0.2589  0.9275 -0.3187
18570SOL    HW257385   3.768   6.884   3.141  0.9315 -0.0448  0.0236
18571SOL     OW57386   4.347   5.212   4.011  1.1945 -0.0854  0.3891
18571SOL    HW157387   4.297   5.155   3.952 -0.2687  0.8836  0.6372
18571SOL    HW257388   4.436   5.179   4.005  1.1925  0.1401 -2.5995
18572SOL     OW57389   2.988   5.974   8.803  0.2253  0.2890  0.0496
18572SOL    HW157390   2.901   6.011   8.818  0.4559  0.2720  1.5201
18572SOL    HW257391   3.000   5.910   8.873  0.8177 -0.8457 -1.0424
18573SOL     OW57392   9.067   6.809   6.986 -0.9502  0.6005 -0.2363
18573SOL    HW157393   9.046   6.777   6.898 -1.9876  2.5618 -0.7546
18573SOL    HW257394   9.075   6.903   6.976  1.1289  0.6631  1.4028
18574SOL     OW57395   7.182   1.921   6.714 -0.6435  0.2666  0.0716
18574SOL    HW157396   7.088   1.933   6.701 -0.6527 -0.8539 -0.9616
18574SOL    HW257397   7.217   1.906   6.627  0.5728  1.0707  0.3967
18575SOL     OW57398   8.670   9.442   4.733 -0.0353 -0.6469 -0.0108
18575SOL    HW157399   8.687   9.412   4.822  0.2156 -1.6304 -0.3657
18575SOL    HW257400   8.637   9.364   4.688 -0.2549 -0.1410 -0.7501
18576SOL     OW57401   6.969   2.897   7.906  0.2535  0.0652  0.3018
18576SOL    HW157402   6.957   2.819   7.960  1.9334 -1.4363 -1.3663
18576SOL    HW257403   7.003   2.963   7.967 -0.0766 -0.8302  1.5082
18577SOL     OW57404   6.341   1.126   7.241 -0.4182 -0.2010  0.4385
18577SOL    HW157405   6.252   1.104   7.214 -0.3457  0.2584 -0.2091
18577SOL    HW257406   6.368   1.194   7.180  0.3488 -0.2774  0.6819
18578SOL     OW57407   8.693   8.259   0.966 -0.1747  0.4360 -0.0920
18578SOL    HW157408   8.710   8.335   1.020  1.5074 -0.2844  0.4598
18578SOL    HW257409   8.663   8.295   0.882  0.4112  1.6837  0.2159
18579SOL     OW57410   3.497   6.932   5.257  0.4213 -0.1520 -0.5880
18579SOL    HW157411   3.577   6.961   5.302  0.6695 -2.0729  0.2844
18579SOL    HW257412   3.505   6.967   5.169  1.9872  0.1045 -0.3647
18580SOL     OW57413   1.976   8.800   8.490 -0.4544  0.6429  0.4968
18580SOL    HW157414   1.910   8.735   8.513  0.5636 -0.6246 -0.0513
18580SOL    HW257415   1.966   8.869   8.556 -1.9257  0.2153  0.7593
18581SOL     OW57416   4.217   8.224   1.414 -0.0707  0.1856 -0.3006
18581SOL    HW157417   4.237   8.288   1.482  0.1354 -0.7417  0.5349
18581SOL    HW257418   4.234   8.270   1.332  1.3607  0.7741  0.3012
18582SOL     OW57419   1.769   0.375   6.446 -0.1240 -0.2572  0.1781
18582SOL    HW157420   1.730   0.288   6.455  1.8068 -1.1729  0.1089
18582SOL    HW257421   1.805   0.394   6.533  0.3470  0.0342 -0.0788
18583SOL     OW57422   2.917   4.009   3.246 -0.1681  0.1158 -0.5991
18583SOL    HW157423   2.836   4.002   3.297 -1.4440  3.0001 -2.0281
18583SOL    HW257424   2.927   3.923   3.206 -0.7835 -1.2691  1.9569
18584SOL     OW57425   7.658   4.280   8.766  0.1146  0.0278  0.5174
18584SOL    HW157426   7.643   4.344   8.696 -1.4595 -0.6379  0.1961
18584SOL    HW257427   7.748   4.251   8.753  0.5967  1.5596  0.1732
18585SOL     OW57428   0.824   4.284   4.913 -0.1277 -0.0521  0.2829
18585SOL    HW157429   0.822   4.257   4.821  1.1148 -0.8932  0.4838
18585SOL    HW257430   0.844   4.378   4.909 -0.3650 -0.0160 -0.2979
18586SOL     OW57431   5.921   2.236   2.663  0.1626 -0.7278  0.4483
18586SOL    HW157432   5.996   2.224   2.605 -0.5544  0.5483 -0.8197
18586SOL    HW257433   5.890   2.147   2.681 -0.9899 -1.1906 -3.1019
18587SOL     OW57434   8.758   3.302   0.336 -0.8725 -0.4921 -0.6374
18587SOL    HW157435   8.697   3.319   0.265  0.0424 -0.6584 -1.4803
18587SOL    HW257436   8.811   3.228   0.305  0.0408 -0.0763 -0.1022
18588SOL     OW57437   1.370   8.328   1.534  0.4143  0.6519  0.5546
18588SOL    HW157438   1.290   8.346   1.485 -0.3677  2.3686  2.3138
18588SOL    HW257439   1.363   8.236   1.559 -1.1275  0.8167  0.8298
18589SOL     OW57440   3.401   1.504   6.651 -0.4581  0.2118  0.2951
18589SOL    HW157441   3.390   1.412   6.629 -1.9383  0.1579  1.1563
18589SOL    HW257442   3.388   1.508   6.746 -0.5339  1.3223  0.2512
18590SOL     OW57443   0.503   9.496   7.924  0.5063  0.0963 -0.4581
18590SOL    HW157444   0.440   9.505   7.995  1.6799  0.4982  0.5621
18590SOL    HW257445   0.505   9.583   7.883 -2.7649 -0.9294 -3.3666
18591SOL     OW57446   6.512   5.290   1.923 -0.4047  0.0628  0.0516
18591SOL    HW157447   6.596   5.336   1.929 -0.4027  0.3945 -1.8729
18591SOL    HW257448   6.481   5.286   2.013  1.2773  0.6806  0.7087
18592SOL     OW57449   1.990   2.213   9.573 -0.0872  0.0896  0.5363
18592SOL    HW157450   1.997   2.132   9.522  0.7027 -1.5314  3.0203
18592SOL    HW257451   1.897   2.222   9.592 -0.2096 -0.1235  0.0325
18593SOL     OW57452   4.273   1.787   2.323 -0.2779 -0.1222  0.4124
18593SOL    HW157453   4.273   1.704   2.275  1.4954 -1.5135  2.5869
18593SOL    HW257454   4.181   1.811   2.330 -0.7873 -1.5920 -0.8030
18594SOL     OW57455   7.836   6.473   6.241 -0.0679 -0.2661 -0.3898
18594SOL    HW157456   7.824   6.382   6.266 -1.4028 -0.1737 -0.6455
18594SOL    HW257457   7.886   6.512   6.313 -2.2491 -0.4234  1.2921
18595SOL     OW57458   1.525   3.175   2.189 -0.0243 -0.1301  0.1951
18595SOL    HW157459   1.600   3.208   2.139 -0.3422  3.3799  1.7527
18595SOL    HW257460   1.537   3.212   2.276 -3.6988  0.8613  0.4290
18596SOL     OW57461   7.801   8.268   0.649 -0.2899  0.0699  0.8006
18596SOL    HW157462   7.732   8.316   0.602 -0.4567 -0.5065  0.4447
18596SOL    HW257463   7.866   8.335   0.671 -0.0187  0.2941 -0.6014
18597SOL     OW57464   1.613   1.553   3.490 -0.1612 -0.3445 -0.3881
18597SOL    HW157465   1.708   1.543   3.481 -0.2500 -1.1687 -0.4678
18597SOL    HW257466   1.597   1.548   3.585  0.2212  3.2716  0.0152
18598SOL     OW57467   0.456   7.756   4.562 -0.7179 -0.2670  0.3956
18598SOL    HW157468   0.472   7.838   4.515  0.9997  0.2373  1.7869
18598SOL    HW257469   0.509   7.691   4.516  0.0073 -0.0277  0.8834
18599SOL     OW57470   4.110   8.054   6.651  0.0156  0.7405  0.3390
18599SOL    HW157471   4.020   8.021   6.657  0.1792  0.2312 -0.0060
18599SOL    HW257472   4.144   8.048   6.740 -0.5819  1.7851  0.6635
18600SOL     OW57473   1.584   4.149   8.483 -0.1955 -0.6293  0.3652
18600SOL    HW157474   1.657   4.089   8.497 -0.1140 -0.2210  1.8378
18600SOL    HW257475   1.506   4.095   8.488 -0.0549 -0.8653  0.0409
18601SOL     OW57476   3.635   5.466   1.019  0.3596  0.1833  0.2434
18601SOL    HW157477   3.686   5.393   1.053  0.0401  0.3393  1.0645
18601SOL    HW257478   3.690   5.504   0.950  0.6777 -0.6029  0.0554
18602SOL     OW57479   8.431   2.678   1.730 -0.3368  0.0057  0.2076
18602SOL    HW157480   8.433   2.756   1.674  0.7472  1.7123  2.5006
18602SOL    HW257481   8.522   2.664   1.756 -0.6143 -1.6407  0.3959
18603SOL     OW57482   6.653   5.732   7.153 -0.8276 -0.1375 -0.3903
18603SOL    HW157483   6.709   5.707   7.079  0.8005  0.2719  0.6370
18603SOL    HW257484   6.652   5.654   7.209  0.9605  0.6748  0.8734
18604SOL     OW57485   3.642   6.303   1.877 -0.2971 -0.1788 -0.0040
18604SOL    HW157486   3.655   6.358   1.954 -0.1742 -0.8500  0.4725
18604SOL    HW257487   3.708   6.333   1.814 -1.2753  1.2693 -0.3711
18605SOL     OW57488   8.046   7.979   0.783  0.5173  0.4915  0.0414
18605SOL    HW157489   8.071   8.004   0.695  1.3232  1.5311  0.5414
18605SOL    HW257490   8.078   7.889   0.793  0.1293  0.2486 -0.8135
18606SOL     OW57491   0.148   8.432   6.338 -0.0176 -0.1049  0.0812
18606SOL    HW157492   0.134   8.460   6.428 -0.8930 -1.5781  0.4322
18606SOL    HW257493   0.219   8.367   6.343 -0.4102 -0.5662 -0.2009
18607SOL     OW57494   9.127   5.930   1.637  0.1154  0.1299  0.0467
18607SOL    HW157495   9.115   5.835   1.628  1.7608  0.0332 -1.6055
18607SOL    HW257496   9.037   5.964   1.645 -0.5188 -1.5292  0.4335
18608SOL     OW57497   7.601   2.708   8.162 -0.1195 -0.3581  0.0562
18608SOL    HW157498   7.642   2.674   8.083  2.0845 -2.6131  2.0044
18608SOL    HW257499   7.645   2.792   8.178  0.1908 -0.4058 -0.5277
18609SOL     OW57500   8.531   4.982   8.616 -0.3598  0.3576 -0.0445
18609SOL    HW157501   8.558   5.047   8.552  3.2118 -1.3983 -0.5661
18609SOL    HW257502   8.540   4.898   8.571 -1.0094 -0.7373  1.7515
18610SOL     OW57503   2.452   4.249   3.612 -0.0407  0.5002 -0.2567
18610SOL    HW157504   2.514   4.253   3.539  1.6750  0.0066  1.0902
18610SOL    HW257505   2.428   4.156   3.618 -0.0747  0.5181 -0.1147
18611SOL     OW57506   3.551   3.675   8.181 -0.3814 -0.4704 -0.4090
18611SOL    HW157507   3.503   3.752   8.212  0.3082  0.2475 -1.0716
18611SOL    HW257508   3.578   3.698   8.092  2.3767 -0.2530  0.4054
18612SOL     OW57509   0.209   4.462   4.696  0.3731  0.2704  0.1205
18612SOL    HW157510   0.193   4.397   4.764  1.2246  0.5798  0.6327
18612SOL    HW257511   0.179   4.545   4.734  2.5468  0.7836  0.9183
18613SOL     OW57512   4.859   4.180   2.593 -0.1777 -0.3547 -0.1400
18613SOL    HW157513   4.914   4.130   2.653  0.4207 -1.5175 -1.5950
18613SOL    HW257514   4.790   4.217   2.649  0.9307 -0.5111  1.4073
18614SOL     OW57515   0.959   2.340   5.831  0.4980 -0.0724  0.1578
18614SOL    HW157516   0.934   2.303   5.747  1.6992 -0.2408 -0.1516
18614SOL    HW257517   0.952   2.268   5.893  0.2900 -0.1273  0.0702
18615SOL     OW57518   7.367   5.502   4.861 -0.5005  0.0534  0.2612
18615SOL    HW157519   7.397   5.529   4.774 -1.1301 -0.1946 -0.0406
18615SOL    HW257520   7.298   5.563   4.884 -1.1241 -0.5700  0.0824
18616SOL     OW57521   5.865   9.673   0.985 -0.2728  0.2508 -0.2313
18616SOL    HW157522   5.799   9.725   1.030 -1.5215  0.7024 -2.4397
18616SOL    HW257523   5.940   9.731   0.976 -0.4666  0.5615  0.1829
18617SOL     OW57524   4.282   7.897   2.744 -0.0223  0.1001 -0.2358
18617SOL    HW157525   4.368   7.910   2.705  0.9830  0.0995  1.8964
18617SOL    HW257526   4.285   7.811   2.784 -0.9442  0.1941  0.0776
18618SOL     OW57527   2.111   6.904   4.611  0.0061  0.2671  0.1544
18618SOL    HW157528   2.020   6.878   4.592  0.3764 -0.9716  0.0309
18618SOL    HW257529   2.158   6.888   4.529  0.4165  0.5413  0.3334
18619SOL     OW57530   9.004   6.641   1.902  0.3482  0.5062 -0.2523
18619SOL    HW157531   9.056   6.718   1.924  0.1404  0.8193 -0.8196
18619SOL    HW257532   9.018   6.630   1.808  3.0329 -2.1083  0.3053
18620SOL     OW57533   3.033   0.827   0.725 -0.1837 -0.6196  0.6175
18620SOL    HW157534   2.995   0.824   0.813  0.4421 -0.7305  0.8937
18620SOL    HW257535   3.120   0.865   0.739 -0.9681  1.7016 -0.2766
18621SOL     OW57536   5.558   3.298   1.149 -1.0249 -0.1768  0.5764
18621SOL    HW157537   5.628   3.261   1.096 -0.7281  1.2963 -0.1176
18621SOL    HW257538   5.494   3.228   1.157 -0.9974 -0.5028 -1.6086
18622SOL     OW57539   5.358   9.551   0.112  0.1418 -0.1643  0.0878
18622SOL    HW157540   5.306   9.510   0.043 -1.4758  0.7711  0.6932
18622SOL    HW257541   5.334   9.504   0.192 -1.9667  2.0012  0.8425
18623SOL     OW57542   4.243   0.387   5.328 -0.0857  0.2927  0.4025
18623SOL    HW157543   4.309   0.444   5.367  0.9167 -0.0031 -0.8079
18623SOL    HW257544   4.237   0.312   5.388  0.9692  0.1396  0.3275
18624SOL     OW57545   5.726   2.395   1.389 -0.2737 -0.4063  0.0241
18624SOL    HW157546   5.684   2.414   1.473 -1.1262  0.7713 -0.6470
18624SOL    HW257547   5.676   2.320   1.355  0.6126 -1.4413  0.9167
18625SOL     OW57548   9.034   4.907   0.008  0.0426 -0.0658 -0.4387
18625SOL    HW157549   8.977   4.829   0.012 -0.2093  0.0462 -1.5727
18625SOL    HW257550   9.095   4.895   0.080  0.1379 -1.4273 -0.7169
18626SOL     OW57551   1.232   4.702   8.437  0.2875 -0.8742 -0.4809
18626SOL    HW157552   1.199   4.790   8.455  0.2403 -1.3106  1.7958
18626SOL    HW257553   1.316   4.699   8.483  0.5440 -1.8503 -1.0038
18627SOL     OW57554   3.770   1.058   6.043  0.2392  0.3258  0.5478
18627SOL    HW157555   3.854   1.020   6.066  0.1971  1.3913  2.7960
18627SOL    HW257556   3.779   1.085   5.952  0.7234 -3.5960 -0.7604
18628SOL     OW57557   2.849   4.297   5.246  0.5117  0.2198  0.1241
18628SOL    HW157558   2.817   4.208   5.234 -1.1416  0.8002 -0.0902
18628SOL    HW257559   2.771   4.352   5.235  1.4810  1.6883  0.2915
18629SOL     OW57560   9.200   7.745   7.911  0.5638  0.1543  0.2179
18629SOL    HW157561   9.162   7.692   7.981 -0.9075  0.7237 -0.1045
18629SOL    HW257562   9.211   7.832   7.950 -0.5800  0.5626 -0.3196
18630SOL     OW57563   7.151   3.028   3.875 -0.0560 -0.2480  0.2409
18630SOL    HW157564   7.188   2.972   3.807 -0.7343  0.2219 -0.5393
18630SOL    HW257565   7.219   3.093   3.892 -0.2801  0.2676 -0.7672
18631SOL     OW57566   9.034   9.611   1.591  0.1893 -0.2022 -0.3890
18631SOL    HW157567   8.968   9.546   1.568 -0.2257  0.8027 -2.3297
18631SOL    HW257568   9.114   9.581   1.548  0.3366 -0.1412 -0.1556
18632SOL     OW57569   1.914   0.146   3.473 -0.3887 -0.6633 -0.2237
18632SOL    HW157570   1.874   0.116   3.391 -2.0427  0.7034  0.0186
18632SOL    HW257571   2.007   0.124   3.464 -0.3138  0.3257 -2.9200
18633SOL     OW57572   1.440   2.712   1.511 -0.4930  0.2639  0.0731
18633SOL    HW157573   1.432   2.746   1.422 -0.4837 -0.6570 -0.2965
18633SOL    HW257574   1.535   2.710   1.527 -0.4759  0.0703 -0.0458
18634SOL     OW57575   3.436   4.941   8.120  0.1439 -0.1103  0.2497
18634SOL    HW157576   3.520   4.976   8.088  0.1252 -0.5623 -0.2971
18634SOL    HW257577   3.387   5.019   8.146  0.9039  0.1351  1.0169
18635SOL     OW57578   4.916   3.342   6.933 -0.2121 -0.2259  0.1553
18635SOL    HW157579   4.894   3.313   6.845  1.5431 -0.4984 -0.2247
18635SOL    HW257580   4.914   3.438   6.928 -1.6786 -0.2372  0.2552
18636SOL     OW57581   8.411   7.210   2.859 -0.1572 -0.6517  0.5203
18636SOL    HW157582   8.443   7.127   2.822  0.8074  0.3916 -1.1237
18636SOL    HW257583   8.391   7.264   2.782 -1.1987  0.4875  1.5585
18637SOL     OW57584   0.690   9.392   8.882 -0.1453 -0.2309  0.1157
18637SOL    HW157585   0.756   9.436   8.827  0.5249  1.8291  2.4114
18637SOL    HW257586   0.726   9.305   8.897  1.4686  0.4224  0.2708
18638SOL     OW57587   7.236   9.534   5.819 -0.6460 -0.4352 -0.3249
18638SOL    HW157588   7.321   9.492   5.808  0.0156  1.1607 -1.7677
18638SOL    HW257589   7.217   9.527   5.913  0.1294 -2.5148 -0.2948
18639SOL     OW57590   7.729   7.765   2.101  0.1847  0.1637  0.4300
18639SOL    HW157591   7.819   7.776   2.070  0.1373  0.9655  0.5573
18639SOL    HW257592   7.738   7.717   2.183  0.3759 -1.1093 -0.2979
18640SOL     OW57593   8.502   6.884   2.605  0.5310  0.0291 -0.4279
18640SOL    HW157594   8.414   6.852   2.627 -0.1693  0.9460 -1.7398
18640SOL    HW257595   8.510   6.869   2.511  1.4692  0.7187 -0.4743
18641SOL     OW57596   6.403   2.444   6.552 -0.4275 -0.1327 -0.4817
18641SOL    HW157597   6.484   2.493   6.566 -1.7647  2.0018  0.2650
18641SOL    HW257598   6.395   2.437   6.457  0.4249  0.0100 -0.5669
18642SOL     OW57599   5.775   5.670   9.642 -0.0511  0.0685  0.6706
18642SOL    HW157600   5.745   5.756   9.670  1.4432  1.3708 -1.4388
18642SOL    HW257601   5.852   5.652   9.696  0.8578  1.0200 -0.3010
18643SOL     OW57602   5.736   8.569   4.914  0.3014  0.0056 -0.0673
18643SOL    HW157603   5.641   8.582   4.924  0.5530  0.1604  3.0109
18643SOL    HW257604   5.772   8.657   4.913  0.4796 -0.0696 -0.7014
18644SOL     OW57605   4.742   1.746   2.727 -0.0301 -0.0517 -0.4208
18644SOL    HW157606   4.766   1.716   2.639 -0.2118  1.2020 -0.9143
18644SOL    HW257607   4.654   1.712   2.741  0.2327 -0.7673 -0.4737
18645SOL     OW57608   8.533   1.175   1.230 -0.1207 -0.3977  0.5163
18645SOL    HW157609   8.614   1.159   1.278 -0.0245 -0.4364  0.3439
18645SOL    HW257610   8.560   1.174   1.138  0.5880  4.1188  0.4712
18646SOL     OW57611   0.308   0.385   5.146 -0.1061  0.3377  0.1004
18646SOL    HW157612   0.258   0.325   5.201  1.4727  0.3336  1.5923
18646SOL    HW257613   0.281   0.472   5.174 -0.1886  0.3381  0.0220
18647SOL     OW57614   3.670   9.599   2.346  0.0686  0.2191  0.4354
18647SOL    HW157615   3.765   9.608   2.347  0.0148  0.9239  1.3811
18647SOL    HW257616   3.646   9.600   2.439 -0.7671 -1.0748  0.2475
18648SOL     OW57617   1.897   8.024   7.603 -0.1989 -0.2882 -0.5446
18648SOL    HW157618   1.924   8.054   7.690 -0.8714  0.9888 -0.7555
18648SOL    HW257619   1.972   7.972   7.572  1.4022  1.8416 -0.4864
18649SOL     OW57620   1.517   5.330   5.188  0.8400  0.4834  0.0762
18649SOL    HW157621   1.502   5.379   5.269  1.2392 -1.4599  1.4000
18649SOL    HW257622   1.489   5.241   5.209  0.1150  0.0997 -2.2366
18650SOL     OW57623   0.866   3.353   1.000 -0.1326  0.6378  0.3218
18650SOL    HW157624   0.870   3.364   0.905 -0.9771 -0.8827  0.0862
18650SOL    HW257625   0.778   3.382   1.025 -0.2370  0.1538  0.5174
18651SOL     OW57626   6.152   6.848   8.604 -0.0757  0.2758 -0.4706
18651SOL    HW157627   6.196   6.930   8.581 -1.7543  1.1069 -0.8308
18651SOL    HW257628   6.113   6.817   8.523 -3.2675  1.5195  0.4531
18652SOL     OW57629   8.265   5.702   7.904  0.2024  0.0825 -0.8888
18652SOL    HW157630   8.285   5.654   7.985 -3.7263  1.1227  0.9560
18652SOL    HW257631   8.337   5.765   7.896 -0.0306  1.1624  2.9788
18653SOL     OW57632   7.307   2.135   2.126  0.1052 -0.8242  0.4126
18653SOL    HW157633   7.343   2.102   2.044 -2.3553 -1.2067 -0.5863
18653SOL    HW257634   7.337   2.225   2.131  0.6861 -0.9480 -0.6380
18654SOL     OW57635   4.350   4.085   6.800 -0.0064 -0.7382  0.6735
18654SOL    HW157636   4.322   4.104   6.890 -0.3167 -0.4241  0.5102
18654SOL    HW257637   4.443   4.064   6.809  0.7671  2.2423  0.7100
18655SOL     OW57638   2.349   8.659   7.728 -0.2262 -0.1318  0.1057
18655SOL    HW157639   2.394   8.720   7.669 -0.0523 -0.4874 -0.1289
18655SOL    HW257640   2.286   8.614   7.673 -1.4607  0.9417  0.5905
18656SOL     OW57641   7.189   5.308   2.504 -0.0380  0.2398  0.1731
18656SOL    HW157642   7.143   5.310   2.588  2.0882 -1.2145  1.4708
18656SOL    HW257643   7.236   5.391   2.499  1.2342 -0.3747  1.3307
18657SOL     OW57644   7.869   4.094   5.069  0.8884 -0.0045  0.4573
18657SOL    HW157645   7.960   4.122   5.060  1.0389 -0.3433  0.8920
18657SOL    HW257646   7.826   4.167   5.113  1.3509 -0.5545  1.8794
18658SOL     OW57647   6.435   7.895   5.380 -0.1500  0.5452 -0.4713
18658SOL    HW157648   6.380   7.960   5.424 -1.0430  0.2832 -1.1605
18658SOL    HW257649   6.387   7.813   5.389  0.1137  0.3130 -1.1114
18659SOL     OW57650   2.829   8.370   8.983 -0.3519 -0.1296  0.0597
18659SOL    HW157651   2.750   8.399   8.938 -0.8538 -2.4463 -0.6747
18659SOL    HW257652   2.901   8.397   8.925 -0.7310  0.2995 -0.2159
18660SOL     OW57653   8.694   5.779   7.371  0.6422 -0.0816 -1.2857
18660SOL    HW157654   8.719   5.860   7.328 -0.3904  0.1378 -1.4908
18660SOL    HW257655   8.663   5.806   7.458  0.6315 -0.2871 -1.2232
18661SOL     OW57656   2.015   7.733   6.854 -0.1533 -0.3101 -0.2325
18661SOL    HW157657   1.971   7.788   6.790 -0.8635 -0.5665  0.0221
18661SOL    HW257658   2.001   7.778   6.938 -0.5758 -0.7753 -0.0507
18662SOL     OW57659   6.426   0.781   5.079 -0.0784 -0.0537  0.5065
18662SOL    HW157660   6.405   0.862   5.126 -2.9498  0.4045 -1.3194
18662SOL    HW257661   6.359   0.719   5.109 -0.3743 -0.5120 -1.0332
18663SOL     OW57662   0.666   6.610   2.664  0.2804  0.4062 -0.0416
18663SOL    HW157663   0.683   6.627   2.756 -0.4084 -0.2061  0.2112
18663SOL    HW257664   0.712   6.680   2.617  0.5219  0.7987  0.7694
18664SOL     OW57665   6.964   1.881   0.387 -0.0265  0.4919  0.1569
18664SOL    HW157666   6.979   1.796   0.430 -1.7895  0.3204  0.5145
18664SOL    HW257667   6.907   1.860   0.313  1.1579  1.1222 -0.9890
18665SOL     OW57668   0.728   8.289   4.135  0.2856  0.8018  0.0403
18665SOL    HW157669   0.763   8.317   4.050  1.1956  1.6668  0.6767
18665SOL    HW257670   0.793   8.228   4.168 -1.5015 -1.9534 -1.1633
18666SOL     OW57671   5.141   5.017   3.193  0.1447 -0.4025  0.0355
18666SOL    HW157672   5.103   5.096   3.232  2.1507  0.0838  1.1562
18666SOL    HW257673   5.167   5.044   3.105  1.1963  0.3600  0.5547
18667SOL     OW57674   9.497   3.657   4.641 -0.0274  0.5741 -0.5310
18667SOL    HW157675   9.472   3.655   4.549  0.8482  1.4424 -0.7970
18667SOL    HW257676   9.592   3.649   4.641 -0.0130  0.6049  0.3003
18668SOL     OW57677   6.004   8.582   0.111  0.0476 -0.3592 -0.4696
18668SOL    HW157678   6.033   8.664   0.151 -1.6747  1.5091 -2.7648
18668SOL    HW257679   5.915   8.570   0.143  0.9200 -2.5503  1.4454
18669SOL     OW57680   7.372   0.609   6.525 -0.1216  0.0166 -0.4299
18669SOL    HW157681   7.356   0.633   6.434 -0.0270  0.9758 -0.2016
18669SOL    HW257682   7.289   0.624   6.569 -0.4383 -1.3393 -0.5221
18670SOL     OW57683   3.999   2.088   9.189  0.0090 -0.8824  0.4745
18670SOL    HW157684   3.957   2.005   9.164 -0.7793 -0.8558  1.6236
18670SOL    HW257685   3.944   2.155   9.150  1.2529 -0.8746 -1.3782
18671SOL     OW57686   2.445   6.420   1.137  0.0972  0.0666 -0.1064
18671SOL    HW157687   2.475   6.474   1.064 -0.4623  0.4690 -0.0414
18671SOL    HW257688   2.353   6.404   1.119 -0.9455  2.8501  2.0869
18672SOL     OW57689   0.775   5.489   8.771  0.1813 -0.0413 -0.1963
18672SOL    HW157690   0.868   5.468   8.783 -0.0731 -0.5631  1.0081
18672SOL    HW257691   0.758   5.468   8.679  1.4544  0.9049 -0.6858
18673SOL     OW57692   4.949   3.395   5.334 -0.4593 -0.0319  0.1911
18673SOL    HW157693   4.996   3.438   5.263 -0.6722  0.6138  0.4351
18673SOL    HW257694   5.005   3.407   5.411 -1.0783  0.8930  0.5217
18674SOL     OW57695   2.332   7.642   8.343 -0.4501 -0.5210 -0.2981
18674SOL    HW157696   2.328   7.691   8.425 -1.3226 -0.4167 -0.3854
18674SOL    HW257697   2.365   7.556   8.368  0.6702 -0.0347 -0.0742
18675SOL     OW57698   1.534   5.093   1.777  0.1142 -0.2189  0.6575
18675SOL    HW157699   1.550   5.067   1.868  1.2091  0.0516  0.5529
18675SOL    HW257700   1.609   5.148   1.754 -1.2769  1.6815  0.3412
18676SOL     OW57701   7.285   5.319   4.144  0.4245 -0.4629  0.3923
18676SOL    HW157702   7.312   5.229   4.127  0.6088 -0.7783  2.2161
18676SOL    HW257703   7.223   5.313   4.217  1.5680  0.9878  1.5564
18677SOL     OW57704   3.665   1.144   2.106  0.5326 -0.2354 -0.0543
18677SOL    HW157705   3.669   1.070   2.044  1.0141 -2.0169  1.9932
18677SOL    HW257706   3.755   1.155   2.135  0.4519  1.1738 -0.2964
18678SOL     OW57707   2.349   4.316   5.401 -0.0131 -0.0108  0.5210
18678SOL    HW157708   2.355   4.359   5.486 -1.1552  0.5481  0.3329
18678SOL    HW257709   2.262   4.276   5.400 -0.3741  0.7583 -0.7303
18679SOL     OW57710   7.873   4.721   2.560  0.3283 -0.4583  0.3843
18679SOL    HW157711   7.809   4.674   2.614  0.3372 -0.4024  0.4439
18679SOL    HW257712   7.859   4.814   2.581  0.7639 -0.4748  0.7719
18680SOL     OW57713   5.969   9.653   3.051  0.2837  0.3715 -0.0277
18680SOL    HW157714   5.959   9.728   3.110  2.6418  1.4130 -0.8265
18680SOL    HW257715   6.060   9.659   3.021  0.4364 -2.6196 -0.4124
18681SOL     OW57716   1.701   5.730   1.530 -0.3258  0.0022 -0.3897
18681SOL    HW157717   1.678   5.708   1.620  0.6832  0.3790 -0.0172
18681SOL    HW257718   1.681   5.823   1.522  0.4092  0.1836 -0.2580
18682SOL     OW57719   4.045   3.497   8.536  0.0046  0.2397 -0.3000
18682SOL    HW157720   3.985   3.484   8.610  1.0174 -0.3534  0.4386
18682SOL    HW257721   4.129   3.464   8.567  0.2633 -0.9040 -2.0244
18683SOL     OW57722   1.283   3.470   7.976 -0.0190  0.9026  0.6083
18683SOL    HW157723   1.289   3.531   7.902 -0.0246 -0.5519 -0.6539
18683SOL    HW257724   1.189   3.454   7.986  0.0578 -1.0072 -0.9680
18684SOL     OW57725   8.094   6.847   4.856 -0.3688  0.2139  0.2841
18684SOL    HW157726   8.024   6.794   4.818 -0.1926 -0.2965  0.6568
18684SOL    HW257727   8.049   6.908   4.914 -0.5132 -0.1108  0.5203
18685SOL     OW57728   2.664   5.485   2.034  0.4442 -0.0709 -0.0320
18685SOL    HW157729   2.734   5.518   2.091  0.1918 -0.5918  0.5919
18685SOL    HW257730   2.655   5.551   1.966  0.9261  0.4433  0.3978
18686SOL     OW57731   7.117   8.675   7.472 -0.4846  0.8744  0.5494
18686SOL    HW157732   7.177   8.749   7.464 -1.2818  1.4326 -0.6103
18686SOL    HW257733   7.087   8.660   7.382  0.2038 -1.3397  0.6351
18687SOL     OW57734   4.708   4.753   2.890  0.3694  0.5287 -0.5218
18687SOL    HW157735   4.697   4.848   2.889  1.8476  0.7192 -0.9832
18687SOL    HW257736   4.758   4.733   2.811  0.2153 -0.6237 -0.3578
18688SOL     OW57737   7.178   6.381   8.249 -0.0958  0.5148  0.5140
18688SOL    HW157738   7.244   6.325   8.292 -0.4886  0.3085  0.8555
18688SOL    HW257739   7.229   6.437   8.191  0.2271 -0.8443 -0.5729
18689SOL     OW57740   7.706   0.584   8.042  0.1690  0.1922 -0.7250
18689SOL    HW157741   7.710   0.630   7.959  0.9167 -0.1711 -0.8939
18689SOL    HW257742   7.666   0.499   8.021 -2.4361  1.1832 -0.2035
18690SOL     OW57743   6.994   6.317   3.726 -0.1827  0.2315 -0.3661
18690SOL    HW157744   6.911   6.358   3.750  0.0166 -0.6568  2.1617
18690SOL    HW257745   6.970   6.228   3.700 -0.0297 -0.1586  0.7664
18691SOL     OW57746   5.090   0.553   4.073 -0.2159 -0.0806  0.5612
18691SOL    HW157747   5.149   0.517   4.007 -0.0445 -0.8349  1.1130
18691SOL    HW257748   5.142   0.621   4.118  0.0041 -0.2700  0.5931
18692SOL     OW57749   9.052   6.171   0.927  0.1435  0.2712 -0.3350
18692SOL    HW157750   8.994   6.168   0.850 -0.8633 -0.2068  0.4169
18692SOL    HW257751   9.008   6.232   0.987  1.3167  1.2503 -0.4275
18693SOL     OW57752   1.224   4.980   3.851  0.2628  0.1143 -0.2491
18693SOL    HW157753   1.239   4.887   3.872  0.0212  0.4965  1.7910
18693SOL    HW257754   1.312   5.019   3.856 -0.0046  0.5352  1.9927
18694SOL     OW57755   6.671   6.604   4.287  0.3809 -0.0318 -0.8414
18694SOL    HW157756   6.678   6.535   4.352 -1.2073  1.6939  1.2901
18694SOL    HW257757   6.594   6.654   4.313  0.1335  1.2171 -3.6253
18695SOL     OW57758   2.342   0.801   5.365  0.0480  0.3442 -0.2308
18695SOL    HW157759   2.265   0.755   5.330 -0.2387 -0.3860  1.2674
18695SOL    HW257760   2.312   0.835   5.450  0.5021  2.6495 -0.9398
18696SOL     OW57761   9.662   5.622   3.899  0.1593 -0.2300  0.0258
18696SOL    HW157762   9.587   5.562   3.898 -0.3600  0.4017  0.3148
18696SOL    HW257763   9.695   5.620   3.809 -1.5263  1.1029 -0.6837
18697SOL     OW57764   3.207   0.651   1.310  0.9478 -0.4487  0.2462
18697SOL    HW157765   3.129   0.705   1.299  1.4899  0.3107 -0.0230
18697SOL    HW257766   3.238   0.636   1.220  1.3233 -0.4052  0.3651
18698SOL     OW57767   2.255   5.591   1.129  0.0427 -0.0501 -0.2489
18698SOL    HW157768   2.216   5.583   1.042  0.7954  0.7334 -0.6746
18698SOL    HW257769   2.184   5.624   1.184 -0.4400 -0.5438 -0.5649
18699SOL     OW57770   7.009   0.068   2.230  0.1077 -0.0470  0.1233
18699SOL    HW157771   7.059   0.039   2.153  0.1327 -0.0588  0.1437
18699SOL    HW257772   7.048   0.020   2.303 -0.2889 -0.4628  0.0633
18700SOL     OW57773   4.223   0.903   5.626 -0.0024  0.7993 -0.0161
18700SOL    HW157774   4.261   0.824   5.587 -1.0875  0.4365 -0.3687
18700SOL    HW257775   4.234   0.971   5.559  0.1942  0.7471 -0.0382
18701SOL     OW57776   3.112   2.910   3.722 -0.1950 -0.3393 -0.3932
18701SOL    HW157777   3.109   2.871   3.810 -1.8009  0.7801  0.0984
18701SOL    HW257778   3.020   2.918   3.697 -0.0010  3.0092 -0.4852
18702SOL     OW57779   5.635   1.215   8.594  0.3639  0.4352  0.0476
18702SOL    HW157780   5.624   1.227   8.688 -0.6414 -0.5664  0.0729
18702SOL    HW257781   5.712   1.157   8.586  0.4995  0.5880  0.2408
18703SOL     OW57782   4.472   6.988   1.112 -0.3178  0.4817  0.2963
18703SOL    HW157783   4.499   7.059   1.170  0.8573 -0.1673  0.5871
18703SOL    HW257784   4.513   6.910   1.150 -0.7467 -0.1855 -0.5840
18704SOL     OW57785   5.918   4.894   2.532 -0.0638  0.2022 -0.1446
18704SOL    HW157786   5.937   4.910   2.624 -0.2978  1.4386 -0.3020
18704SOL    HW257787   5.837   4.842   2.533  2.1363 -3.6216  0.4597
18705SOL     OW57788   7.542   1.480   2.145 -0.2961  0.1170 -0.2590
18705SOL    HW157789   7.547   1.563   2.193  0.3349 -0.6640  1.0773
18705SOL    HW257790   7.612   1.485   2.081 -0.9505  1.0518 -0.9200
18706SOL     OW57791   6.764   9.607   1.539  0.2081 -0.0580  0.4142
18706SOL    HW157792   6.757   9.514   1.515  0.6853  0.1027 -0.3825
18706SOL    HW257793   6.826   9.608   1.611  0.4715 -0.3296  0.1972
18707SOL     OW57794   7.003   0.827   6.415  0.0644  0.0746  0.5919
18707SOL    HW157795   7.024   0.899   6.356 -0.7450 -0.7840 -0.8106
18707SOL    HW257796   6.985   0.869   6.499 -1.3063  1.6228 -0.4070
18708SOL     OW57797   7.159   7.356   0.218 -0.0160  0.0467  0.1366
18708SOL    HW157798   7.143   7.269   0.183 -0.9601 -0.5844  2.0050
18708SOL    HW257799   7.157   7.345   0.313 -0.8131  2.2078  0.4389
18709SOL     OW57800   7.016   3.496   8.505 -0.0990 -0.3872 -0.1289
18709SOL    HW157801   6.922   3.513   8.495 -0.1612 -1.0877 -0.8260
18709SOL    HW257802   7.021   3.408   8.541  0.2608  0.4206  1.9035
18710SOL     OW57803   7.689   3.425   8.024  0.6789 -0.6801 -0.2838
18710SOL    HW157804   7.721   3.509   7.992 -1.2938  0.1805 -0.1613
18710SOL    HW257805   7.695   3.366   7.948 -0.8600  0.4531 -1.3411
18711SOL     OW57806   5.189   8.470   0.467 -0.2201 -0.2719 -0.2832
18711SOL    HW157807   5.114   8.460   0.409  0.4491  0.0617 -1.2120
18711SOL    HW257808   5.214   8.380   0.489 -1.5244 -0.3849  0.8972
18712SOL     OW57809   4.183   6.591   2.823 -0.0983 -0.4154 -0.1564
18712SOL    HW157810   4.252   6.648   2.791  0.6580 -0.0606  1.9313
18712SOL    HW257811   4.212   6.503   2.802 -0.1873 -0.1606 -1.4000
18713SOL     OW57812   9.379   3.311   3.866  0.3835 -0.3223  0.5495
18713SOL    HW157813   9.473   3.319   3.857  0.4453  1.1414  2.0602
18713SOL    HW257814   9.363   3.217   3.869  1.8599 -0.5811  0.8674
18714SOL     OW57815   8.387   6.074   7.034 -0.1098  0.0976  0.6845
18714SOL    HW157816   8.449   6.011   7.072 -1.6426 -1.3260  0.8982
18714SOL    HW257817   8.397   6.064   6.940 -0.4680 -0.5939  0.7176
18715SOL     OW57818   2.343   0.407   9.436  0.0078  0.4362  0.0429
18715SOL    HW157819   2.385   0.479   9.389 -1.5405  2.1825  1.2057
18715SOL    HW257820   2.285   0.367   9.371 -1.0239  1.8881  0.0338
18716SOL     OW57821   6.239   6.911   9.153  0.2012  0.8705 -0.6895
18716SOL    HW157822   6.238   6.914   9.057 -1.1260  1.1482 -0.6808
18716SOL    HW257823   6.236   7.003   9.179  0.9165  0.8099 -0.3698
18717SOL     OW57824   5.626   7.100   3.301  0.2347 -0.5830 -0.6792
18717SOL    HW157825   5.601   7.030   3.241 -0.1570 -0.6436 -0.4459
18717SOL    HW257826   5.621   7.180   3.248  0.0828 -0.6584 -0.7806
18718SOL     OW57827   0.381   6.239   3.146  0.2710  0.0269  0.1141
18718SOL    HW157828   0.404   6.177   3.216  0.3070 -1.1155 -0.8807
18718SOL    HW257829   0.303   6.202   3.105 -0.8349  1.6271  0.6698
18719SOL     OW57830   7.401   7.826   3.433  0.1480  0.5562  0.4861
18719SOL    HW157831   7.486   7.786   3.450 -0.0448 -0.6457 -1.1585
18719SOL    HW257832   7.403   7.849   3.340 -1.8310 -0.8492  0.0414
18720SOL     OW57833   2.547   2.847   4.579  0.2817  0.3224  0.2437
18720SOL    HW157834   2.487   2.836   4.505  1.9294  2.3963 -1.5447
18720SOL    HW257835   2.503   2.909   4.636 -0.0744  0.3981 -0.1099
18721SOL     OW57836   8.115   3.227   1.014  0.7983 -0.3982 -0.1317
18721SOL    HW157837   8.122   3.322   1.028  0.4876 -0.2740 -0.7686
18721SOL    HW257838   8.116   3.190   1.102  0.4501  0.2375  0.1493
18722SOL     OW57839   8.486   5.604   4.578  0.2818 -0.0026  0.2158
18722SOL    HW157840   8.395   5.631   4.561  0.3457  0.8778  1.1495
18722SOL    HW257841   8.518   5.572   4.494 -1.2949 -1.5336  0.1462
18723SOL     OW57842   9.539   8.837   0.013 -0.2799 -0.1223  0.2645
18723SOL    HW157843   9.531   8.784   0.093 -1.6943  0.3436  0.4624
18723SOL    HW257844   9.481   8.795  -0.050 -1.5436  1.2201  0.4680
18724SOL     OW57845   3.028   0.185   7.100 -0.0618 -0.0852 -0.1683
18724SOL    HW157846   3.082   0.108   7.115  0.9454  0.5255 -0.5279
18724SOL    HW257847   3.080   0.239   7.040  0.1568  1.7628  1.5635
18725SOL     OW57848   2.096   2.599   8.901 -0.2084  0.2815  0.4696
18725SOL    HW157849   2.134   2.630   8.819 -0.8751 -2.1712 -0.8692
18725SOL    HW257850   2.165   2.610   8.966 -0.1300  3.6011 -0.0161
18726SOL     OW57851   0.568   1.555   5.370 -0.2374 -0.2622  0.0887
18726SOL    HW157852   0.568   1.526   5.278 -0.4217  1.3560 -0.4573
18726SOL    HW257853   0.602   1.644   5.367 -1.2055  0.1836  1.4795
18727SOL     OW57854   1.938   8.504   1.967 -0.1872  0.1319 -0.2248
18727SOL    HW157855   1.948   8.412   1.991 -1.4058 -0.0533 -0.3856
18727SOL    HW257856   1.844   8.519   1.965 -0.0223  1.2215 -0.8184
18728SOL     OW57857   1.771   0.715   7.215  0.5503  0.4019 -0.4280
18728SOL    HW157858   1.695   0.746   7.264 -1.4602 -1.5794 -2.0682
18728SOL    HW257859   1.827   0.674   7.281 -1.6294 -1.3621  0.4562
18729SOL     OW57860   1.718   0.054   9.426  0.7893 -0.0976  0.1729
18729SOL    HW157861   1.694  -0.038   9.422  0.7070 -0.0336 -1.0085
18729SOL    HW257862   1.649   0.099   9.377  0.5167  0.6713  1.2082
18730SOL     OW57863   5.861   4.084   2.921  0.1279 -0.1476  0.2462
18730SOL    HW157864   5.917   4.016   2.883 -1.6343 -0.4208 -2.0477
18730SOL    HW257865   5.784   4.038   2.953 -1.4756  0.7440 -2.0834
18731SOL     OW57866   5.290   0.551   0.413  0.1553 -0.7583  0.2430
18731SOL    HW157867   5.347   0.594   0.349 -1.1308  0.5824 -0.0674
18731SOL    HW257868   5.262   0.470   0.370 -1.8765  0.8086 -1.5999
18732SOL     OW57869   0.890   1.531   0.408 -0.0105 -0.0951  0.1043
18732SOL    HW157870   0.972   1.545   0.360 -0.0735  1.0938  0.3208
18732SOL    HW257871   0.909   1.459   0.467  0.4683 -0.7160 -0.7830
18733SOL     OW57872   3.748   3.413   7.303 -0.0602  0.5080 -0.1224
18733SOL    HW157873   3.722   3.412   7.395  0.8165 -0.7071  0.1460
18733SOL    HW257874   3.844   3.418   7.306 -0.0228  0.3993 -0.9600
18734SOL     OW57875   3.864   9.585   4.182  0.3075 -0.1624  0.2558
18734SOL    HW157876   3.862   9.495   4.214 -0.4686  0.1279  1.0781
18734SOL    HW257877   3.772   9.610   4.174  0.4608 -0.1332 -2.0328
18735SOL     OW57878   7.764   1.333   0.422  0.6510  0.0042 -0.2654
18735SOL    HW157879   7.693   1.380   0.465 -0.2915 -0.4654 -1.2822
18735SOL    HW257880   7.727   1.301   0.340  2.9366  2.7126 -2.6083
18736SOL     OW57881   1.092   4.185   0.052  0.1585  0.5026  0.4077
18736SOL    HW157882   0.998   4.204   0.059 -0.0636 -0.2834 -0.3594
18736SOL    HW257883   1.124   4.193   0.142 -0.8374 -0.2017  0.8401
18737SOL     OW57884   6.377   2.599   9.074 -0.1416  0.2577 -0.0172
18737SOL    HW157885   6.310   2.639   9.129  0.1303 -0.0891  0.5755
18737SOL    HW257886   6.329   2.538   9.018 -0.3408  0.1029  0.3174
18738SOL     OW57887   5.132   4.118   5.194  0.0349  0.1757 -0.7606
18738SOL    HW157888   5.118   4.060   5.120  0.3903  0.5551 -1.1255
18738SOL    HW257889   5.208   4.081   5.240 -0.0746  0.0434 -0.6850
18739SOL     OW57890   6.867   4.744   6.237  0.2384 -0.0874  0.0732
18739SOL    HW157891   6.860   4.730   6.143  0.3982  0.1270  0.0285
18739SOL    HW257892   6.780   4.722   6.271  0.4609 -1.1492  0.0076
18740SOL     OW57893   3.679   0.953   1.912 -0.6049  0.1367  0.9135
18740SOL    HW157894   3.706   0.960   1.820  0.2291  2.5859  1.2788
18740SOL    HW257895   3.605   0.892   1.910  0.2339 -0.9531 -1.1726
18741SOL     OW57896   7.133   2.994   5.371  0.2044  0.0559  0.3538
18741SOL    HW157897   7.117   3.070   5.428  2.0377  1.8231 -1.3584
18741SOL    HW257898   7.138   2.920   5.432  0.0142  1.5208  2.2590
18742SOL     OW57899   5.074   0.376   4.493  0.6266 -0.3814  0.3070
18742SOL    HW157900   5.063   0.471   4.491  2.7962 -0.0631  0.6606
18742SOL    HW257901   5.110   0.358   4.580 -1.0167 -1.7363  0.7702
18743SOL     OW57902   2.296   6.254   2.120 -0.6135 -0.4942 -0.2614
18743SOL    HW157903   2.363   6.321   2.102  0.4662 -1.3863  0.2870
18743SOL    HW257904   2.215   6.292   2.086 -0.6797  2.4149  2.6831
18744SOL     OW57905   4.975   5.820   0.266  0.2711  0.4703  0.4990
18744SOL    HW157906   5.034   5.789   0.197  0.1149  0.8615  0.1841
18744SOL    HW257907   4.905   5.865   0.219 -0.4133 -0.1942  0.8500
18745SOL     OW57908   1.405   6.293   4.869 -0.2880  0.2347 -0.0340
18745SOL    HW157909   1.380   6.371   4.920  0.1637 -0.3249  1.0694
18745SOL    HW257910   1.401   6.322   4.778 -0.6230  1.4074  0.3364
18746SOL     OW57911   9.323   5.002   5.665 -0.0181  0.1137  0.0608
18746SOL    HW157912   9.281   5.002   5.751 -1.1417  0.1064 -0.4553
18746SOL    HW257913   9.360   5.090   5.657 -1.4779  0.7368 -0.1497
18747SOL     OW57914   5.158   7.564   8.888  0.0261  0.0175 -0.3830
18747SOL    HW157915   5.224   7.625   8.855  0.7272 -0.9823 -0.8679
18747SOL    HW257916   5.182   7.480   8.851 -1.0096 -0.5402  0.1665
18748SOL     OW57917   3.586   2.382   9.001 -1.0488  0.4773  0.9080
18748SOL    HW157918   3.672   2.424   8.996 -0.9424  0.3368  1.5114
18748SOL    HW257919   3.576   2.358   9.093 -0.8038 -1.4357  0.4863
18749SOL     OW57920   5.470   2.817   2.753 -0.7865 -0.0053  0.1710
18749SOL    HW157921   5.500   2.777   2.671 -0.8526 -1.6716  0.9213
18749SOL    HW257922   5.376   2.798   2.755 -1.0656  1.2615 -0.0136
18750SOL     OW57923   0.350   2.440   4.837  0.0912 -0.0033  0.5490
18750SOL    HW157924   0.334   2.450   4.931  0.8907  3.2143  0.4510
18750SOL    HW257925   0.394   2.521   4.811  0.4484 -1.0385 -2.5222
18751SOL     OW57926   1.436   4.930   6.687 -0.1185 -0.3180  0.0893
18751SOL    HW157927   1.455   4.980   6.608  0.8338 -0.1370  0.4097
18751SOL    HW257928   1.481   4.978   6.757 -0.3540 -0.8554  0.6205
18752SOL     OW57929   3.652   6.658   8.908  1.0381  0.5425  0.2671
18752SOL    HW157930   3.723   6.610   8.865  0.6374 -0.0940  0.3033
18752SOL    HW257931   3.685   6.748   8.916  1.0583  0.7453 -1.5412
18753SOL     OW57932   3.016   0.488   7.923  0.9486 -0.2201  0.3008
18753SOL    HW157933   2.932   0.529   7.945  0.7547 -0.3026 -0.2733
18753SOL    HW257934   3.006   0.397   7.952  0.9949 -0.1277  0.6122
18754SOL     OW57935   3.539   9.035   8.976  0.5911  0.3716 -0.5571
18754SOL    HW157936   3.454   9.031   9.020  0.6036  1.2668 -0.4213
18754SOL    HW257937   3.596   8.979   9.028  0.0618 -0.3049 -0.6969
18755SOL     OW57938   4.835   5.053   8.630  0.0738 -0.0690  0.1190
18755SOL    HW157939   4.791   5.024   8.710  0.7507 -1.9407 -0.1387
18755SOL    HW257940   4.767   5.101   8.582 -0.9856 -0.8238  0.8081
18756SOL     OW57941   4.115   1.523   4.059  0.2318  0.3188  0.1167
18756SOL    HW157942   4.034   1.574   4.069 -0.4738 -1.0451  1.9199
18756SOL    HW257943   4.139   1.535   3.967 -1.0077  2.2137 -0.0289
18757SOL     OW57944   3.934   6.664   1.868 -0.0944  0.2631  0.3119
18757SOL    HW157945   3.951   6.652   1.775  0.1721  0.0667  0.3831
18757SOL    HW257946   3.966   6.583   1.909  0.6278  0.7119  0.6731
18758SOL     OW57947   1.285   3.963   1.821  0.2011  0.5201 -0.1963
18758SOL    HW157948   1.200   3.994   1.790 -1.2709 -1.4393  1.5781
18758SOL    HW257949   1.299   4.008   1.904  0.8372  0.7349 -0.4147
18759SOL     OW57950   1.730   6.897   9.540  0.1030 -0.6697  0.2117
18759SOL    HW157951   1.803   6.835   9.550 -0.6529 -1.4451  1.2604
18759SOL    HW257952   1.762   6.978   9.578  0.4547 -0.9887  0.6168
18760SOL     OW57953   4.754   2.621   8.268  0.2264 -0.0347  0.1987
18760SOL    HW157954   4.691   2.562   8.227 -0.2775  1.3300 -1.0647
18760SOL    HW257955   4.702   2.674   8.328  0.4617 -0.0360  0.4052
18761SOL     OW57956   1.168   3.296   0.692  0.0369 -0.4813  0.7170
18761SOL    HW157957   1.088   3.343   0.672  2.3123  3.0682 -1.1324
18761SOL    HW257958   1.202   3.338   0.771  2.3294  1.5531 -1.2036
18762SOL     OW57959   5.458   3.679   0.192  0.4009 -0.6395 -0.5706
18762SOL    HW157960   5.529   3.723   0.240 -0.0813 -1.4228  0.9349
18762SOL    HW257961   5.401   3.750   0.162 -1.5472 -0.1042  3.6386
18763SOL     OW57962   3.808   7.904   0.347 -0.2797  0.1270  0.0042
18763SOL    HW157963   3.759   7.828   0.380  0.8954 -1.0921 -0.8991
18763SOL    HW257964   3.743   7.972   0.334 -1.1747 -0.2602  2.1637
18764SOL     OW57965   3.425   6.423   0.924  0.3884 -0.0572  0.0579
18764SOL    HW157966   3.369   6.492   0.959  1.5692  0.9119  0.0804
18764SOL    HW257967   3.364   6.354   0.897 -0.8043  0.9777  0.0385
18765SOL     OW57968   6.657   6.112   0.956 -0.6886 -0.8173 -0.1766
18765SOL    HW157969   6.580   6.153   0.918 -1.0968  0.1435  1.5617
18765SOL    HW257970   6.654   6.137   1.049 -0.9550 -4.7576  1.0503
18766SOL     OW57971   4.420   2.733   7.103 -0.4697  0.5933 -0.3106
18766SOL    HW157972   4.438   2.695   7.017  0.7986 -0.6553  0.4608
18766SOL    HW257973   4.476   2.810   7.109 -0.4616  0.6056 -0.5537
18767SOL     OW57974   5.812   5.533   9.236 -0.0407 -0.0668 -0.0344
18767SOL    HW157975   5.791   5.441   9.248  0.3402 -0.4687 -2.0705
18767SOL    HW257976   5.768   5.558   9.155 -0.5521  1.6964  0.7389
18768SOL     OW57977   1.449   2.757   5.854  0.1677 -0.0798 -0.3680
18768SOL    HW157978   1.527   2.792   5.811  0.8446  0.3314  1.1108
18768SOL    HW257979   1.402   2.835   5.884  0.5030 -0.3512  0.9359
18769SOL     OW57980   0.115   9.463   7.408 -0.0446  0.0023  0.4735
18769SOL    HW157981   0.025   9.439   7.428  0.0178  0.9962  2.0818
18769SOL    HW257982   0.168   9.404   7.461  0.2269  0.3100  0.5408
18770SOL     OW57983   5.606   6.895   7.506 -0.6665 -0.4881  0.1525
18770SOL    HW157984   5.541   6.857   7.447  1.4734  0.4656 -3.0756
18770SOL    HW257985   5.582   6.987   7.513 -0.2894 -0.3619 -0.1735
18771SOL     OW57986   7.870   6.649   1.190  0.1229  0.1539 -0.0562
18771SOL    HW157987   7.802   6.585   1.209  1.2775 -1.0634  0.0747
18771SOL    HW257988   7.824   6.733   1.190 -1.9593 -0.8276 -2.8342
18772SOL     OW57989   8.988   0.968   9.622 -0.5116  0.3699 -0.1243
18772SOL    HW157990   8.948   0.933   9.702  0.1930 -0.4505 -0.1205
18772SOL    HW257991   8.915   0.974   9.560 -0.8176 -0.2772  0.1563
18773SOL     OW57992   5.858   0.349   2.469 -0.2707  0.0621 -0.3754
18773SOL    HW157993   5.810   0.284   2.418  0.5012  0.0035 -1.0585
18773SOL    HW257994   5.826   0.339   2.559 -1.6385  0.1391 -0.8285
18774SOL     OW57995   9.257   8.648   7.063 -0.0784  0.4468  0.7098
18774SOL    HW157996   9.215   8.731   7.088  0.3873  1.2226 -0.9458
18774SOL    HW257997   9.285   8.661   6.972  1.4156 -0.9804  0.9116
18775SOL     OW57998   3.011   8.677   7.743 -0.4002  0.0685 -0.0419
18775SOL    HW157999   2.916   8.687   7.731 -0.1146  1.3369 -1.5165
18775SOL    HW258000   3.039   8.760   7.781  0.2549  0.0877 -0.5512
18776SOL     OW58001   5.623   6.257   5.728  0.0757 -0.6747  0.5719
18776SOL    HW158002   5.532   6.272   5.704  0.0941  0.1774  0.9781
18776SOL    HW258003   5.621   6.184   5.790 -0.1961 -1.4381 -0.3136
18777SOL     OW58004   1.756   9.078   5.372 -0.0881 -0.3923 -0.3640
18777SOL    HW158005   1.776   9.161   5.416  0.6096 -0.1887 -1.0638
18777SOL    HW258006   1.717   9.104   5.289  0.2082 -0.7730 -0.6208
18778SOL     OW58007   4.278   7.375   2.580  0.2780  0.2358  0.6136
18778SOL    HW158008   4.304   7.467   2.585 -2.5125  1.0918  1.1579
18778SOL    HW258009   4.357   7.329   2.552  1.3501  2.9856 -1.2589
18779SOL     OW58010   3.718   4.999   5.886 -0.0145  0.0507 -0.1892
18779SOL    HW158011   3.764   5.070   5.842 -0.4105  0.6895  0.4114
18779SOL    HW258012   3.692   5.036   5.971  0.6950 -1.1272  0.5714
18780SOL     OW58013   2.393   6.984   9.073 -0.8513  0.1648 -0.2566
18780SOL    HW158014   2.461   6.983   9.141  0.3278 -0.1728 -1.4163
18780SOL    HW258015   2.311   6.972   9.122 -0.0241 -0.2042  1.0969
18781SOL     OW58016   8.597   1.810   2.420  0.1049  0.0264 -0.3138
18781SOL    HW158017   8.545   1.876   2.467 -1.0297 -0.8814 -0.2598
18781SOL    HW258018   8.609   1.739   2.483  0.1068 -0.4253 -0.8168
18782SOL     OW58019   8.481   4.950   0.663  0.1674 -0.3359  0.9307
18782SOL    HW158020   8.448   4.881   0.605 -1.9909  0.7667  0.7760
18782SOL    HW258021   8.524   5.012   0.604  0.4998 -0.6171  0.8691
18783SOL     OW58022   7.611   5.541   8.597 -0.6164 -0.0704  0.0810
18783SOL    HW158023   7.637   5.542   8.689 -0.4584 -2.2354  0.1170
18783SOL    HW258024   7.689   5.511   8.550 -0.8284  0.5968 -0.7310
18784SOL     OW58025   9.543   7.006   1.743  0.4145  0.3322 -0.0951
18784SOL    HW158026   9.453   6.991   1.714  0.2114 -0.1865  0.7760
18784SOL    HW258027   9.596   6.951   1.685  0.2594  1.2366 -1.1283
18785SOL     OW58028   2.753   2.818   1.734  0.0090  0.0891 -0.0462
18785SOL    HW158029   2.838   2.845   1.768  0.8105  0.8889 -2.5169
18785SOL    HW258030   2.697   2.896   1.745  0.0285  0.0733  0.1673
18786SOL     OW58031   0.001   5.145   2.010 -0.5408  0.4285 -0.5060
18786SOL    HW158032  -0.033   5.234   2.017 -1.4552  0.3825 -3.2469
18786SOL    HW258033   0.034   5.125   2.097 -0.6212  3.3099  0.2774
18787SOL     OW58034   8.904   1.328   3.443  0.3976 -0.5206 -0.5534
18787SOL    HW158035   8.887   1.317   3.350  1.8264  3.2926 -1.4195
18787SOL    HW258036   8.997   1.307   3.454  0.7533  0.9887 -0.4485
18788SOL     OW58037   0.400   6.948   2.995 -0.2933 -0.3309  0.2949
18788SOL    HW158038   0.312   6.936   3.031 -1.0413 -0.5312 -1.4715
18788SOL    HW258039   0.434   6.859   2.983 -0.3171 -0.2895 -0.0908
18789SOL     OW58040   5.824   1.900   9.379  0.1246  0.2524  0.2408
18789SOL    HW158041   5.845   1.984   9.338  2.5338  0.4058  1.5552
18789SOL    HW258042   5.872   1.836   9.327 -1.8088 -0.3976 -0.8367
18790SOL     OW58043   6.422   3.487   8.853  0.2701  0.1996  0.0362
18790SOL    HW158044   6.333   3.520   8.866 -0.2628 -1.5039  0.9633
18790SOL    HW258045   6.465   3.499   8.937 -0.0819 -1.8163  0.5432
18791SOL     OW58046   9.159   1.194   1.145  0.4118  0.1276 -0.1800
18791SOL    HW158047   9.164   1.268   1.205 -0.7003  0.1709 -0.1334
18791SOL    HW258048   9.181   1.231   1.059  1.5502  0.1518  0.0962
18792SOL     OW58049   5.703   6.543   6.847  0.3899  0.3493 -0.3471
18792SOL    HW158050   5.623   6.554   6.899  1.1522 -0.4262  1.0281
18792SOL    HW258051   5.672   6.505   6.765 -0.6305 -0.2057  0.2743
18793SOL     OW58052   4.234   1.755   6.586  0.0448 -0.3988 -0.0083
18793SOL    HW158053   4.147   1.719   6.569  0.1607  0.3628 -2.6879
18793SOL    HW258054   4.275   1.692   6.644 -1.4741 -2.0284 -0.6015
18794SOL     OW58055   6.069   5.979   1.900  0.5502  0.0265 -0.0404
18794SOL    HW158056   5.994   6.017   1.947 -0.4364 -2.7776  0.8516
18794SOL    HW258057   6.099   5.908   1.956  2.1768 -0.6378 -1.6652
18795SOL     OW58058   0.664   9.121   9.587  0.5127  0.5309  0.3710
18795SOL    HW158059   0.677   9.036   9.628  1.3131  0.9362  0.9895
18795SOL    HW258060   0.672   9.103   9.493 -1.2868 -0.3901  0.3582
18796SOL     OW58061   3.792   0.751   2.871 -0.1748 -0.3513  0.1911
18796SOL    HW158062   3.802   0.803   2.791  1.2902 -1.0649 -0.1203
18796SOL    HW258063   3.879   0.750   2.910 -0.6714 -0.7739  1.3348
18797SOL     OW58064   0.626   8.848   7.235 -0.4832  0.4474  0.1121
18797SOL    HW158065   0.638   8.802   7.152 -0.4304 -0.6270  0.7052
18797SOL    HW258066   0.621   8.941   7.210  2.9605  0.5362 -0.7937
18798SOL     OW58067   8.133   3.856   4.373  0.7722 -0.1910 -0.6137
18798SOL    HW158068   8.218   3.890   4.399  0.6180 -0.2432 -0.0044
18798SOL    HW258069   8.133   3.766   4.406  0.4989 -0.2031 -0.6463
18799SOL     OW58070   0.738   8.572   8.534  0.0134  0.3288  0.6909
18799SOL    HW158071   0.676   8.623   8.585 -0.5704 -0.1047  0.4228
18799SOL    HW258072   0.767   8.631   8.465 -3.6161 -0.7497 -2.0782
18800SOL     OW58073   3.949   0.851   3.506  0.1449 -0.3673 -0.1080
18800SOL    HW158074   3.862   0.883   3.532 -0.4642 -1.5141 -0.6635
18800SOL    HW258075   4.009   0.889   3.570 -0.8124  0.1069  0.5290
18801SOL     OW58076   1.085   6.963   8.737 -0.3486 -0.0004  0.0319
18801SOL    HW158077   1.062   7.045   8.781 -0.3382  0.3044 -0.5152
18801SOL    HW258078   1.163   6.985   8.686  0.1764 -0.5889  0.5740
18802SOL     OW58079   7.706   0.413   3.814 -0.0835 -0.2698  0.2435
18802SOL    HW158080   7.722   0.474   3.886  1.2616 -0.0804 -0.1862
18802SOL    HW258081   7.760   0.337   3.834 -2.5294 -1.8681  1.3179
18803SOL     OW58082   2.861   0.370   7.604  0.3596 -0.2641  0.2362
18803SOL    HW158083   2.810   0.326   7.672 -0.6217  1.4117  0.6371
18803SOL    HW258084   2.866   0.461   7.632 -0.2502  0.5392 -2.0244
18804SOL     OW58085   8.255   6.331   2.984  0.1235  0.5013 -0.0416
18804SOL    HW158086   8.348   6.341   2.963  0.1589  1.3548  0.5226
18804SOL    HW258087   8.239   6.237   2.976  1.7254 -0.0971  2.6774
18805SOL     OW58088   2.097   7.366   0.872  0.6569  0.0679  0.1146
18805SOL    HW158089   2.100   7.442   0.930 -0.9958 -1.5331  2.4922
18805SOL    HW258090   2.101   7.402   0.784 -0.6506  2.9438  1.1310
18806SOL     OW58091   9.262   7.744   2.010  0.1467  0.2455 -0.2153
18806SOL    HW158092   9.216   7.717   2.089  2.2527  1.9538  1.7483
18806SOL    HW258093   9.250   7.672   1.949  0.2633 -2.2097  2.4626
18807SOL     OW58094   3.173   8.041   5.941 -0.3413  0.1234 -0.5270
18807SOL    HW158095   3.186   7.978   5.870 -0.3489 -0.5855  0.0865
18807SOL    HW258096   3.229   8.009   6.011 -0.9230  0.3830  0.0627
18808SOL     OW58097   4.752   9.565   6.791  0.3383 -0.4532  0.2026
18808SOL    HW158098   4.678   9.505   6.788 -0.3605  0.2981  1.4658
18808SOL    HW258099   4.725   9.640   6.737 -0.2448  0.2360  1.4071
18809SOL     OW58100   8.128   4.510   6.137  0.2179 -0.2379  0.5235
18809SOL    HW158101   8.081   4.522   6.220 -0.8340  0.7683 -0.1970
18809SOL    HW258102   8.208   4.465   6.162  1.1060  2.1931  2.4686
18810SOL     OW58103   3.403   3.657   2.518  0.4463 -0.3722 -0.0062
18810SOL    HW158104   3.393   3.689   2.607  2.0343  2.2938 -0.6765
18810SOL    HW258105   3.443   3.571   2.527  3.0280  0.8956  1.8982
18811SOL     OW58106   6.653   3.545   5.149  0.0024  0.0321  0.2337
18811SOL    HW158107   6.593   3.599   5.200 -1.5699 -0.9557 -0.4981
18811SOL    HW258108   6.656   3.588   5.063  0.5977  0.2534  0.3636
18812SOL     OW58109   8.466   3.769   8.145 -0.1558 -0.6300  0.4615
18812SOL    HW158110   8.387   3.813   8.175 -0.4225 -1.1856  0.5813
18812SOL    HW258111   8.442   3.677   8.140  0.9448 -1.0507  2.0960
18813SOL     OW58112   5.977   7.013   1.097  0.2616 -0.3843  0.0317
18813SOL    HW158113   5.910   7.024   1.030  0.3482 -0.3351 -0.0476
18813SOL    HW258114   5.965   6.923   1.129  0.5176 -0.5690 -0.3782
18814SOL     OW58115   8.533   4.306   0.210  0.0914 -0.0297 -0.2928
18814SOL    HW158116   8.484   4.291   0.129 -0.7071  1.2646 -0.0684
18814SOL    HW258117   8.496   4.244   0.272 -0.3972  0.0770 -0.4774
18815SOL     OW58118   0.345   0.688   4.229 -0.5703 -0.3513  0.2963
18815SOL    HW158119   0.432   0.673   4.190 -0.1579 -2.7296  1.9360
18815SOL    HW258120   0.287   0.697   4.153  0.9067  0.1832 -0.8382
18816SOL     OW58121   5.663   5.291   5.144 -0.4698  0.1077 -0.1252
18816SOL    HW158122   5.573   5.284   5.176 -0.3331 -0.6139  0.1248
18816SOL    HW258123   5.687   5.201   5.121  0.0293  0.3653 -0.6260
18817SOL     OW58124   0.766   3.908   7.793  0.1894  0.6503  0.3259
18817SOL    HW158125   0.739   3.918   7.701  1.3454  2.8915  0.1543
18817SOL    HW258126   0.693   3.944   7.843  0.6953  1.9993  0.1212
18818SOL     OW58127   5.001   3.195   3.444 -0.3991 -0.0188  0.0112
18818SOL    HW158128   5.090   3.165   3.460 -0.8387 -0.6935  1.3538
18818SOL    HW258129   4.953   3.172   3.524 -2.6450 -2.9375 -1.9529
18819SOL     OW58130   2.487   0.786   9.081  0.3040  0.1976 -0.1214
18819SOL    HW158131   2.580   0.763   9.090  0.2829  0.2294  0.1785
18819SOL    HW258132   2.482   0.877   9.108  0.2813  0.3746 -0.7065
18820SOL     OW58133   1.879   5.284   3.757  0.0973  0.2942  0.4085
18820SOL    HW158134   1.933   5.240   3.822 -1.5547 -0.6608  1.1972
18820SOL    HW258135   1.887   5.229   3.679  1.0306  0.7232  0.1796
18821SOL     OW58136   4.579   6.516   3.036  0.6601  0.0282 -0.2785
18821SOL    HW158137   4.518   6.475   2.974  0.1441 -1.1902  0.9888
18821SOL    HW258138   4.561   6.610   3.029 -3.2713 -0.3647  1.8810
18822SOL     OW58139   3.266   6.689   1.997 -0.0600 -0.2126  0.1829
18822SOL    HW158140   3.343   6.744   2.013 -0.2973 -0.0427  0.7697
18822SOL    HW258141   3.255   6.691   1.902  1.2808 -1.1010 -0.0141
18823SOL     OW58142   2.080   2.854   1.992  0.3038 -0.7627 -0.2104
18823SOL    HW158143   1.989   2.883   1.989  0.4483 -0.3621 -1.5228
18823SOL    HW258144   2.074   2.758   1.988 -0.0720 -0.7386 -4.0714
18824SOL     OW58145   6.255   8.993   9.038  0.0086 -0.2028 -0.0536
18824SOL    HW158146   6.164   9.021   9.027 -0.0703 -0.3927  0.1045
18824SOL    HW258147   6.249   8.907   9.080  0.2315 -0.7170 -1.0513
18825SOL     OW58148   1.290   0.679   1.454  0.7784  0.1718  0.3176
18825SOL    HW158149   1.199   0.691   1.480  0.2763 -1.5361 -0.4502
18825SOL    HW258150   1.340   0.686   1.535  0.0112  1.5001  0.6926
18826SOL     OW58151   1.067   5.974   8.413 -0.0656 -0.1180 -0.2494
18826SOL    HW158152   1.155   6.009   8.426 -0.5653  0.6351  1.4092
18826SOL    HW258153   1.080   5.893   8.364  1.4650  0.4005 -0.7473
18827SOL     OW58154   8.184   3.332   6.398 -0.0557 -0.0912 -0.1409
18827SOL    HW158155   8.137   3.408   6.432  0.0116  0.0980 -0.4729
18827SOL    HW258156   8.238   3.366   6.327  1.1299 -0.1862  0.6973
18828SOL     OW58157   5.366   2.737   6.599 -0.0708 -0.3927  0.2744
18828SOL    HW158158   5.330   2.747   6.510  0.4007 -0.0882  0.1157
18828SOL    HW258159   5.459   2.721   6.586  0.1934  0.6794  0.7427
18829SOL     OW58160   1.433   2.033   3.546 -0.0401 -0.3960  0.0911
18829SOL    HW158161   1.415   1.950   3.502 -0.3420 -0.3001  0.0338
18829SOL    HW258162   1.528   2.033   3.558  0.1167 -0.1498 -1.0907
18830SOL     OW58163   4.464   2.946   3.880 -0.0116  0.2862  0.5102
18830SOL    HW158164   4.377   2.951   3.839  0.9355 -0.5359 -1.7518
18830SOL    HW258165   4.508   3.026   3.853  0.7251 -0.3989 -0.3653
18831SOL     OW58166   8.384   9.007   4.472  0.1249 -0.0676  0.3770
18831SOL    HW158167   8.473   8.990   4.444  0.1608  0.4640  0.1633
18831SOL    HW258168   8.390   9.015   4.567  0.2601 -0.2963  0.3871
18832SOL     OW58169   6.715   6.751   7.588 -0.2102 -0.5378  0.1675
18832SOL    HW158170   6.764   6.707   7.518 -1.9567 -0.6152 -1.0887
18832SOL    HW258171   6.776   6.814   7.625  0.5157  0.2079 -2.1077
18833SOL     OW58172   5.642   8.538   5.688  0.2300 -0.3101  0.2047
18833SOL    HW158173   5.714   8.475   5.691 -0.0198 -0.5666  1.1683
18833SOL    HW258174   5.577   8.496   5.631  0.1212 -0.8701  0.7282
18834SOL     OW58175   6.582   0.938   0.087  0.2087 -0.6742 -0.3442
18834SOL    HW158176   6.567   0.924   0.181  0.8423 -1.5529 -0.3634
18834SOL    HW258177   6.656   0.882   0.066  0.5882  0.1363 -1.2108
18835SOL     OW58178   8.109   7.000   3.387  0.2654 -0.2674 -0.4516
18835SOL    HW158179   8.097   6.906   3.393  0.1526 -0.2963 -1.0422
18835SOL    HW258180   8.073   7.023   3.301 -0.8077  0.4850  0.1754
18836SOL     OW58181   4.933   5.935   9.189  0.0059  0.5129 -0.5021
18836SOL    HW158182   4.994   5.942   9.116  1.4009  0.4375  0.6087
18836SOL    HW258183   4.975   5.984   9.260  0.6081 -2.6152  1.4606
18837SOL     OW58184   6.757   9.220   6.196  0.0156  0.1663 -0.0450
18837SOL    HW158185   6.850   9.204   6.183  0.0186 -1.1794  1.3556
18837SOL    HW258186   6.716   9.188   6.116  0.7706  1.4790 -1.0086
18838SOL     OW58187   4.622   1.235   1.473  0.5281 -0.2913  0.5301
18838SOL    HW158188   4.554   1.168   1.483  1.7149 -1.5000  0.8526
18838SOL    HW258189   4.667   1.235   1.557  0.1765  1.3829  0.7515
18839SOL     OW58190   7.301   3.292   4.958 -0.4329  0.2547  0.1744
18839SOL    HW158191   7.396   3.302   4.948 -0.4848  0.5931 -0.0092
18839SOL    HW258192   7.289   3.271   5.051 -0.1863  0.3464  0.2285
18840SOL     OW58193   4.832   5.700   6.561  0.0261  0.4095  0.4352
18840SOL    HW158194   4.905   5.690   6.622 -0.4486 -1.6218  0.7355
18840SOL    HW258195   4.857   5.775   6.506  1.5735  0.7713  1.5629
18841SOL     OW58196   5.206   6.798   1.000 -0.1718 -0.4002 -0.3158
18841SOL    HW158197   5.269   6.733   0.969 -0.6612 -1.5409  0.9924
18841SOL    HW258198   5.121   6.758   0.985 -0.4426 -0.8203  2.0025
18842SOL     OW58199   4.657   3.515   3.159 -0.1932  0.2925  0.3408
18842SOL    HW158200   4.744   3.549   3.138 -0.3114 -0.3518 -1.4057
18842SOL    HW258201   4.673   3.446   3.223  0.5513  0.3685  0.2487
18843SOL     OW58202   9.536   8.809   8.633 -0.5376  0.2348  0.2929
18843SOL    HW158203   9.476   8.794   8.560 -0.9181  0.2276  0.6034
18843SOL    HW258204   9.487   8.780   8.711  0.0196 -0.1635  0.5058
18844SOL     OW58205   1.206   5.904   5.971  0.1387  0.4164  0.3711
18844SOL    HW158206   1.157   5.969   6.022 -0.1280 -0.7184  1.6283
18844SOL    HW258207   1.293   5.902   6.012  0.7339  1.2183 -0.7929
18845SOL     OW58208   7.003   6.556   8.029 -0.1289 -0.3234 -0.0512
18845SOL    HW158209   6.946   6.527   7.958  0.6624 -0.6055 -0.5900
18845SOL    HW258210   6.966   6.640   8.057 -1.1977 -0.8205  0.0795
18846SOL     OW58211   0.409   3.196   1.861  0.0559  0.1070  0.5270
18846SOL    HW158212   0.490   3.201   1.911 -0.7176  0.6115  1.7554
18846SOL    HW258213   0.367   3.281   1.873 -0.3242  0.1159 -0.6895
18847SOL     OW58214   3.176   9.059   6.220 -0.0199 -0.1084 -0.0402
18847SOL    HW158215   3.102   9.055   6.160 -0.2399 -0.4495  0.2448
18847SOL    HW258216   3.187   8.968   6.250 -1.9559  0.4597  2.8420
18848SOL     OW58217   4.004   1.226   7.125 -0.0383  0.4489  0.2844
18848SOL    HW158218   3.956   1.242   7.206 -1.7410  0.3417 -0.6456
18848SOL    HW258219   3.986   1.302   7.070 -0.5278 -0.3359 -0.6940
18849SOL     OW58220   5.131   5.078   1.914  0.2427 -0.2269 -0.0751
18849SOL    HW158221   5.154   4.986   1.931 -1.4555 -0.5419  0.7065
18849SOL    HW258222   5.151   5.090   1.821 -1.2795 -1.9846 -0.6981
18850SOL     OW58223   2.442   9.068   3.803  0.5059  0.1657  0.5477
18850SOL    HW158224   2.466   9.161   3.806  0.4626  0.1845  0.2969
18850SOL    HW258225   2.427   9.045   3.895 -0.9368  0.8002  0.5083
18851SOL     OW58226   9.113   5.413   5.494  0.0816  0.9060  0.3362
18851SOL    HW158227   9.147   5.491   5.449  1.2881  0.3788  0.2972
18851SOL    HW258228   9.191   5.361   5.514 -0.5250  0.5989  2.0575
18852SOL     OW58229   6.547   5.616   4.710 -0.7264  0.3207  0.1033
18852SOL    HW158230   6.504   5.552   4.653 -0.0799 -0.1678  0.1574
18852SOL    HW258231   6.640   5.606   4.692 -0.5970  1.0414  0.3359
18853SOL     OW58232   6.149   1.551   6.003  0.0310 -0.0152  0.0533
18853SOL    HW158233   6.094   1.610   6.054  1.8546  0.9523  0.9920
18853SOL    HW258234   6.164   1.598   5.921 -1.7781 -0.9790 -0.8914
18854SOL     OW58235   5.378   0.363   6.995 -0.3786  0.4309 -0.1563
18854SOL    HW158236   5.283   0.353   7.008 -0.4781 -0.4681 -1.3764
18854SOL    HW258237   5.398   0.305   6.922  1.3707 -0.4835  0.9697
18855SOL     OW58238   4.821   2.777   1.242 -0.4057 -0.4321  0.0971
18855SOL    HW158239   4.883   2.716   1.282 -0.1970 -2.9200 -3.5027
18855SOL    HW258240   4.761   2.721   1.192 -2.6281  2.1685 -0.4067
18856SOL     OW58241   1.525   0.012   1.856 -0.0667  0.5143  0.3065
18856SOL    HW158242   1.589  -0.004   1.787 -0.0218 -0.8558  0.6263
18856SOL    HW258243   1.452  -0.048   1.836 -0.5433  0.9012  0.8296
18857SOL     OW58244   3.094   1.204   0.697 -0.4710  0.1258 -0.9638
18857SOL    HW158245   3.042   1.284   0.688 -0.9281 -0.1012 -0.4202
18857SOL    HW258246   3.087   1.162   0.611 -1.3808 -0.0110 -0.8330
18858SOL     OW58247   6.001   5.377   8.119 -0.5096 -0.0644  0.0845
18858SOL    HW158248   5.983   5.379   8.213  0.2421 -2.5545  0.3547
18858SOL    HW258249   6.007   5.469   8.094 -1.3613  0.6723  2.3296
18859SOL     OW58250   1.529   3.395   8.057 -0.6429 -0.0529 -0.4134
18859SOL    HW158251   1.524   3.324   8.121  0.3801 -0.1709 -0.4584
18859SOL    HW258252   1.438   3.410   8.032 -1.0311 -0.2389  0.8058
18860SOL     OW58253   0.657   0.953   2.921 -0.1375  0.2228  0.0689
18860SOL    HW158254   0.666   0.881   2.858  0.1443 -1.1916  1.6689
18860SOL    HW258255   0.604   0.917   2.992  1.4400  1.0027  1.7211
18861SOL     OW58256   9.630   5.339   0.136  0.0019 -0.5925 -0.5617
18861SOL    HW158257   9.675   5.413   0.177 -1.2314  1.0352 -2.0087
18861SOL    HW258258   9.690   5.265   0.147  1.7001  0.8322  0.1235
18862SOL     OW58259   7.757   5.708   7.920  0.6782 -0.2774  0.8645
18862SOL    HW158260   7.709   5.681   7.998  1.4276 -0.8716  1.1343
18862SOL    HW258261   7.751   5.632   7.862  0.2215  0.1180  0.3835
18863SOL     OW58262   1.917   3.542   1.724  0.0177  0.4218  0.1818
18863SOL    HW158263   1.853   3.486   1.767 -0.6519  1.5403  0.6801
18863SOL    HW258264   1.969   3.482   1.671 -2.3724 -0.3555 -1.4318
18864SOL     OW58265   2.181   6.540   3.255 -0.2043 -0.0273 -0.3703
18864SOL    HW158266   2.239   6.488   3.312  0.7959 -0.6473 -1.8915
18864SOL    HW258267   2.094   6.502   3.270 -0.1807  0.5749  1.5610
18865SOL     OW58268   3.684   7.144   0.785  0.3934 -0.3969  0.3537
18865SOL    HW158269   3.776   7.129   0.806  0.9206  0.8585 -0.9822
18865SOL    HW258270   3.665   7.231   0.819 -0.8762 -1.3569  2.3219
18866SOL     OW58271   7.838   6.325   8.920  0.0039  0.4733 -0.1722
18866SOL    HW158272   7.843   6.243   8.870  0.7224  0.2913  0.1806
18866SOL    HW258273   7.918   6.372   8.895 -0.3665  1.0401 -0.3153
18867SOL     OW58274   9.601   3.255   4.084  0.2919  0.2842  0.0280
18867SOL    HW158275   9.613   3.340   4.040 -1.7436  0.0726 -1.0644
18867SOL    HW258276   9.671   3.200   4.050  0.0340  0.7749 -1.3572
18868SOL     OW58277   3.418   0.810   4.168  0.4994  0.3641  0.2855
18868SOL    HW158278   3.480   0.818   4.095  0.0928  1.6858  0.0625
18868SOL    HW258279   3.428   0.892   4.217 -1.0715  0.6158  0.2404
18869SOL     OW58280   8.084   7.933   5.880  0.1624 -0.0413  0.1869
18869SOL    HW158281   8.158   7.879   5.909 -0.4351 -0.5843  0.7414
18869SOL    HW258282   8.101   8.019   5.919  1.7017  0.5271 -1.6317
18870SOL     OW58283   3.950   1.010   7.369 -0.5580 -0.0563  0.0147
18870SOL    HW158284   3.934   1.102   7.391  2.5087  0.7777 -0.7153
18870SOL    HW258285   3.976   0.970   7.452  1.8029  0.7695 -0.2348
18871SOL     OW58286   8.277   1.858   5.025 -0.2141 -0.2887  0.0123
18871SOL    HW158287   8.358   1.906   5.042 -0.8546  1.5040 -1.6635
18871SOL    HW258288   8.306   1.770   5.002  1.3788  0.6228 -1.7214
18872SOL     OW58289   8.724   0.096   1.324  0.2307  0.1954 -0.2815
18872SOL    HW158290   8.811   0.099   1.363  0.0626 -1.1785  0.2461
18872SOL    HW258291   8.675   0.035   1.379 -0.8951  0.4959 -0.9174
18873SOL     OW58292   2.275   8.435   2.615 -0.7045  0.1391 -0.1578
18873SOL    HW158293   2.274   8.527   2.587 -1.6630  0.8894  2.0565
18873SOL    HW258294   2.208   8.393   2.561  0.5019  0.4348 -1.9673
18874SOL     OW58295   8.662   9.351   0.567  0.4668  0.7043  0.3121
18874SOL    HW158296   8.617   9.375   0.486 -1.7618  0.6219  1.4632
18874SOL    HW258297   8.697   9.434   0.600 -0.8888  1.2025  0.5644
18875SOL     OW58298   4.192   0.177   5.489 -0.0841  0.0190 -0.9631
18875SOL    HW158299   4.101   0.205   5.498 -0.5830 -1.7778  0.1147
18875SOL    HW258300   4.189   0.082   5.502  1.7853 -0.2596 -2.1948
18876SOL     OW58301   2.098   5.177   6.038  0.3460 -0.6683 -0.2109
18876SOL    HW158302   2.087   5.155   5.946  1.6536  0.4920 -0.6808
18876SOL    HW258303   2.086   5.094   6.084  0.5951 -1.4444 -1.5039
18877SOL     OW58304   9.349   8.146   3.903 -0.5359  0.1563  0.1431
18877SOL    HW158305   9.277   8.186   3.854  0.2646  2.0396  0.4573
18877SOL    HW258306   9.365   8.205   3.976  0.4832 -0.9245  0.8358
18878SOL     OW58307   7.410   3.707   8.825 -0.0829 -0.0751 -0.0922
18878SOL    HW158308   7.355   3.685   8.750 -0.2272 -1.9057  0.4966
18878SOL    HW258309   7.349   3.707   8.899  0.3283  0.1548  0.2454
18879SOL     OW58310   4.126   3.887   0.500 -0.7214  0.6662 -0.0180
18879SOL    HW158311   4.165   3.969   0.530 -2.1015  0.9823  1.0510
18879SOL    HW258312   4.200   3.833   0.474  0.3761  1.4579  1.2962
18880SOL     OW58313   1.626   6.964   9.275  1.1016 -0.1841 -0.2269
18880SOL    HW158314   1.633   6.928   9.364 -0.5644 -0.0068  0.0092
18880SOL    HW258315   1.698   7.027   9.270  1.1253 -0.0653  1.0666
18881SOL     OW58316   6.335   4.383   0.111  0.2673 -0.6803  0.2959
18881SOL    HW158317   6.286   4.454   0.071  0.4390 -0.2369  0.8630
18881SOL    HW258318   6.343   4.317   0.042 -2.3384 -1.3992  0.5899
18882SOL     OW58319   5.917   1.713   9.203 -0.1040 -0.4516  0.2256
18882SOL    HW158320   5.863   1.770   9.148 -0.7986 -1.4484 -0.1431
18882SOL    HW258321   5.980   1.675   9.143 -0.4346 -1.0207  0.2318
18883SOL     OW58322   6.943   7.842   8.721 -0.3770  0.0895 -0.1639
18883SOL    HW158323   7.030   7.880   8.705 -0.9380  0.7711 -1.7317
18883SOL    HW258324   6.953   7.750   8.697  0.6257 -0.5799  2.3846
18884SOL     OW58325   6.075   9.361   4.077 -1.0379 -0.2459 -0.5202
18884SOL    HW158326   6.116   9.442   4.046  1.9153 -1.2818  0.3033
18884SOL    HW258327   6.059   9.377   4.171  2.4119 -1.4710  0.4337
18885SOL     OW58328   9.356   6.545   8.887  0.1414  0.3175  0.1570
18885SOL    HW158329   9.324   6.605   8.955 -0.0060  0.6830 -0.2313
18885SOL    HW258330   9.408   6.481   8.935  0.2501  0.7193  0.5912
18886SOL     OW58331   8.880   5.078   8.208 -0.6431 -0.2117  0.3530
18886SOL    HW158332   8.884   5.022   8.130 -0.8358  0.4081 -0.1158
18886SOL    HW258333   8.909   5.164   8.176 -1.4320  0.2241  0.7982
18887SOL     OW58334   3.176   4.579   4.979 -0.1479 -0.0680 -0.0145
18887SOL    HW158335   3.129   4.641   5.034  0.1574  1.4578 -1.4000
18887SOL    HW258336   3.147   4.599   4.890  1.2176 -0.8080 -0.6621
18888SOL     OW58337   3.756   4.356   9.091  0.3257 -0.3879 -0.2193
18888SOL    HW158338   3.688   4.310   9.043  0.7327  0.1659 -1.3714
18888SOL    HW258339   3.736   4.449   9.078  1.1077 -0.2230 -0.2959
18889SOL     OW58340   8.638   3.155   0.605  0.0891  0.0146 -0.4872
18889SOL    HW158341   8.672   3.219   0.542  0.2370  0.4188 -0.0037
18889SOL    HW258342   8.576   3.102   0.555 -0.5041  0.9347 -0.7521
18890SOL     OW58343   3.537   4.398   1.706  0.0834 -0.2869 -0.6181
18890SOL    HW158344   3.509   4.307   1.702 -3.2068  0.5706  0.3180
18890SOL    HW258345   3.606   4.400   1.773  0.7310 -2.1532 -1.1895
18891SOL     OW58346   3.625   9.488   8.146  0.1393 -0.2327 -0.1845
18891SOL    HW158347   3.547   9.494   8.092 -0.9474 -0.9889  1.2429
18891SOL    HW258348   3.635   9.394   8.164  1.5568 -0.1852 -0.5673
18892SOL     OW58349   1.451   5.975   6.968  0.3623 -0.4454 -0.2902
18892SOL    HW158350   1.454   5.881   6.952  2.2010 -0.4579 -0.1632
18892SOL    HW258351   1.471   5.984   7.061 -1.4738  0.0297  0.1043
18893SOL     OW58352   6.203   8.415   4.556 -0.2723 -0.3106 -0.1872
18893SOL    HW158353   6.221   8.481   4.623  0.5453 -0.6388 -0.0760
18893SOL    HW258354   6.116   8.438   4.523 -1.5647 -1.2278  2.2657
18894SOL     OW58355   0.776   1.963   4.970  0.0984  0.3104  0.4125
18894SOL    HW158356   0.799   1.891   5.029 -1.4102  0.3024  1.0490
18894SOL    HW258357   0.713   2.016   5.020  0.6224  1.6647 -0.3138
18895SOL     OW58358   4.584   4.239   6.313 -0.0908 -0.2045 -0.3087
18895SOL    HW158359   4.525   4.275   6.246 -0.3998  0.8070  0.4907
18895SOL    HW258360   4.526   4.209   6.383  0.3283  1.1259  0.6475
18896SOL     OW58361   3.887   0.254   5.778 -0.1609  0.5276  0.4696
18896SOL    HW158362   3.798   0.266   5.813  0.7065  0.4698  2.8503
18896SOL    HW258363   3.910   0.165   5.802  0.1473  0.1261 -1.1981
18897SOL     OW58364   7.342   1.720   3.425  0.0857  0.1927 -0.6100
18897SOL    HW158365   7.395   1.701   3.502  0.2015  3.1002  0.1483
18897SOL    HW258366   7.313   1.635   3.394 -0.0654 -1.0982  2.7002
18898SOL     OW58367   3.473   7.177   8.690 -0.2266 -0.5445  0.0430
18898SOL    HW158368   3.496   7.268   8.713 -0.6985 -0.6176  0.8545
18898SOL    HW258369   3.462   7.178   8.595  0.5076  0.0801 -0.0464
18899SOL     OW58370   2.611   8.638   2.105  0.1275 -0.0354  0.3229
18899SOL    HW158371   2.653   8.719   2.076  0.3954 -0.4770 -0.5619
18899SOL    HW258372   2.657   8.568   2.058 -0.0686 -0.7172  1.1012
18900SOL     OW58373   3.192   4.168   2.427 -0.3892 -0.2513 -0.4622
18900SOL    HW158374   3.268   4.117   2.399  0.4726  0.6021  0.2712
18900SOL    HW258375   3.208   4.256   2.395 -1.7688 -0.3546 -1.5265
18901SOL     OW58376   9.328   4.056   3.517 -0.2749 -0.2160 -0.4759
18901SOL    HW158377   9.250   4.107   3.497 -0.4664 -0.3771 -0.1460
18901SOL    HW258378   9.295   3.969   3.540 -0.0660 -0.0487  0.5032
18902SOL     OW58379   0.890   2.924   1.117 -0.1810 -0.1464  0.2605
18902SOL    HW158380   0.816   2.964   1.164  0.3721  0.1314  0.9077
18902SOL    HW258381   0.945   2.998   1.093 -0.8975 -0.1750 -1.6679
18903SOL     OW58382   3.953   3.789   0.724 -0.4670 -0.4684  0.2692
18903SOL    HW158383   3.998   3.844   0.660 -1.4433 -0.5453 -0.5212
18903SOL    HW258384   3.934   3.847   0.797 -0.4945 -0.0382 -0.0756
18904SOL     OW58385   9.499   1.908   6.026 -0.8864  0.2110 -0.3159
18904SOL    HW158386   9.535   1.924   5.939 -2.5871  3.2094 -0.6166
18904SOL    HW258387   9.471   1.816   6.024  0.7187 -0.2994 -2.2618
18905SOL     OW58388   1.859   7.804   7.220  0.5473  0.0993  0.1743
18905SOL    HW158389   1.822   7.755   7.146  0.6554  1.2525 -0.6762
18905SOL    HW258390   1.942   7.838   7.187  1.1865 -0.3714  1.2449
18906SOL     OW58391   6.143   0.925   8.019  0.0011  0.1923 -0.5180
18906SOL    HW158392   6.058   0.956   7.989  0.5021  2.5053  0.2519
18906SOL    HW258393   6.197   0.923   7.940  0.0794  1.8524 -0.5441
18907SOL     OW58394   0.877   6.869   6.645 -0.4050  0.2909  0.0435
18907SOL    HW158395   0.830   6.887   6.726  1.6412  1.7160  0.9891
18907SOL    HW258396   0.957   6.921   6.651 -1.1578  2.3629 -3.8666
18908SOL     OW58397   3.417   1.760   6.764  0.6439 -0.0134 -0.4367
18908SOL    HW158398   3.419   1.690   6.700 -0.3302 -0.5315  0.0779
18908SOL    HW258399   3.391   1.717   6.846 -0.5294  1.0178 -0.2351
18909SOL     OW58400   3.980   4.451   4.475 -0.3042  0.2018  0.1036
18909SOL    HW158401   4.005   4.401   4.397 -2.0728 -1.3239  0.4422
18909SOL    HW258402   4.059   4.452   4.529  0.4613 -0.1391 -0.9770
18910SOL     OW58403   3.025   5.026   8.013  0.4266  0.2964 -0.5757
18910SOL    HW158404   3.058   4.973   8.086 -2.4677 -2.1116 -0.8442
18910SOL    HW258405   2.945   5.066   8.045  0.0751  0.7160 -1.8876
18911SOL     OW58406   6.331   0.243   7.994  0.5403 -0.1782  0.3807
18911SOL    HW158407   6.272   0.172   8.018 -0.0024 -0.2528 -1.0554
18911SOL    HW258408   6.419   0.204   7.997  0.7776  0.3126  3.9562
18912SOL     OW58409   2.800   5.283   7.444  0.1010 -0.2108  0.1788
18912SOL    HW158410   2.759   5.220   7.384 -0.8937  0.4699  0.1166
18912SOL    HW258411   2.855   5.337   7.388  1.0157 -1.0504  0.2412
18913SOL     OW58412   0.338   8.915   7.225  0.0409  0.4494  0.2580
18913SOL    HW158413   0.295   8.839   7.185  0.6701  0.1937  0.0583
18913SOL    HW258414   0.274   8.948   7.288 -1.0420  0.9694 -1.0769
18914SOL     OW58415   5.796   7.968   3.571 -0.7153 -0.4252  0.4407
18914SOL    HW158416   5.824   7.947   3.482 -0.2258 -1.8133  0.9042
18914SOL    HW258417   5.768   7.885   3.608  0.7783 -0.2284  2.1825
18915SOL     OW58418   0.934   8.655   7.796  0.0989  0.1194  0.8262
18915SOL    HW158419   0.872   8.718   7.760 -0.5727 -0.5584  0.7943
18915SOL    HW258420   0.880   8.588   7.838  0.6883 -1.5653 -0.9529
18916SOL     OW58421   1.701   2.920   7.752 -0.4910  0.1757 -0.2018
18916SOL    HW158422   1.636   2.990   7.753  0.2020  0.8277 -0.6664
18916SOL    HW258423   1.743   2.927   7.666 -0.7381 -1.1142 -0.4529
18917SOL     OW58424   0.838   8.611   1.114 -0.0609 -0.5302  0.7544
18917SOL    HW158425   0.779   8.687   1.116 -0.2451 -0.6393  0.0533
18917SOL    HW258426   0.846   8.584   1.205 -0.9067 -0.3599  0.8904
18918SOL     OW58427   3.109   0.112   5.379 -0.2089  0.1100  0.4791
18918SOL    HW158428   3.019   0.080   5.372 -0.4833  1.0616 -0.5192
18918SOL    HW258429   3.100   0.206   5.394  0.6305  0.3052 -0.2146
18919SOL     OW58430   1.879   6.310   5.087 -1.3397  0.5778  0.1991
18919SOL    HW158431   1.945   6.354   5.141  0.4544  0.0595 -1.4527
18919SOL    HW258432   1.835   6.249   5.146  0.1044  0.4994  1.2324
18920SOL     OW58433   1.104   4.877   0.723 -0.2576  0.3958  0.3006
18920SOL    HW158434   1.071   4.926   0.648 -0.2330  1.6435  1.0709
18920SOL    HW258435   1.162   4.938   0.767  0.1275 -0.4962  1.0580
18921SOL     OW58436   4.448   6.382   2.195 -0.0606  0.7888  0.6442
18921SOL    HW158437   4.504   6.348   2.266 -0.8972  1.2078  1.5302
18921SOL    HW258438   4.499   6.453   2.157  0.3944  0.5713  0.8369
18922SOL     OW58439   7.285   6.361   1.169 -0.4065 -0.7717  0.3797
18922SOL    HW158440   7.249   6.436   1.217  2.1203  0.7870  0.0707
18922SOL    HW258441   7.317   6.303   1.238  0.9481  0.2635  0.6745
18923SOL     OW58442   1.846   8.554   7.473  0.0368  0.2429  0.0356
18923SOL    HW158443   1.836   8.606   7.553 -0.0827  1.1399 -0.5497
18923SOL    HW258444   1.940   8.557   7.455 -0.0556  0.8516 -0.3777
18924SOL     OW58445   2.889   7.123   8.244 -0.2451 -0.8678  0.9203
18924SOL    HW158446   2.832   7.199   8.228 -0.2763 -1.3415 -1.7482
18924SOL    HW258447   2.978   7.157   8.235 -0.2457 -1.3516 -2.3676
18925SOL     OW58448   4.108   7.741   1.504  0.2089 -0.1748 -0.4447
18925SOL    HW158449   4.195   7.750   1.465  0.8654  0.2848  1.0487
18925SOL    HW258450   4.123   7.690   1.583 -1.0555 -0.9046 -0.6528
18926SOL     OW58451   7.660   2.350   9.292  0.0652  0.3579  0.3190
18926SOL    HW158452   7.727   2.415   9.270 -0.7559  1.6916  1.5820
18926SOL    HW258453   7.693   2.268   9.255  0.9552  1.5368 -1.6696
18927SOL     OW58454   2.229   5.617   8.135  0.2379 -0.1068 -0.1288
18927SOL    HW158455   2.199   5.603   8.045 -1.3427  1.1853  0.1519
18927SOL    HW258456   2.149   5.635   8.184  1.1581  0.0081  1.3868
18928SOL     OW58457   5.507   2.943   5.696  0.2782  0.8552  0.2405
18928SOL    HW158458   5.530   3.035   5.682  1.3937  0.3330 -1.7137
18928SOL    HW258459   5.547   2.897   5.623 -0.6219 -1.1533  0.9435
18929SOL     OW58460   6.784   1.276   0.461  0.3566  0.6001 -0.2564
18929SOL    HW158461   6.831   1.200   0.426  0.3204  0.6447 -0.4008
18929SOL    HW258462   6.720   1.298   0.394 -1.6046 -1.0179  0.9462
18930SOL     OW58463   2.829   8.426   8.200  0.1082  0.1268 -0.2358
18930SOL    HW158464   2.751   8.376   8.175 -1.4143  1.9258  0.6653
18930SOL    HW258465   2.801   8.517   8.194  2.0486  0.8045  0.4769
18931SOL     OW58466   6.245   5.351   7.942 -0.8377 -0.1583  0.3056
18931SOL    HW158467   6.251   5.260   7.915 -0.8143  0.9177 -4.0217
18931SOL    HW258468   6.157   5.360   7.977 -0.8515 -1.7981  0.7573
18932SOL     OW58469   2.202   0.552   4.330  0.0547  0.2585  0.2242
18932SOL    HW158470   2.178   0.641   4.359  3.3032  0.5174  2.7218
18932SOL    HW258471   2.248   0.566   4.247 -1.3465  0.6014 -0.5259
18933SOL     OW58472   7.089   1.469   6.716  0.6079  0.1954  0.2563
18933SOL    HW158473   7.179   1.500   6.708  0.9709 -1.0623 -0.9172
18933SOL    HW258474   7.035   1.545   6.696  1.4622 -0.0047 -3.6351
18934SOL     OW58475   0.444   5.837   1.359 -0.1110  0.5151  0.6409
18934SOL    HW158476   0.407   5.815   1.274  0.2663  1.7212  0.1458
18934SOL    HW258477   0.385   5.796   1.422  1.2860 -3.1033 -0.1572
18935SOL     OW58478   7.126   8.736   2.777 -0.5053  0.3031  0.0074
18935SOL    HW158479   7.118   8.805   2.843 -1.9157  1.6633 -1.4804
18935SOL    HW258480   7.049   8.680   2.791  0.1844 -0.4939  0.6722
18936SOL     OW58481   3.896   2.731   1.343  0.4388 -0.0082 -0.0576
18936SOL    HW158482   3.841   2.655   1.363  2.7746 -1.4969  1.0118
18936SOL    HW258483   3.982   2.695   1.323  1.2814  2.2941 -0.9334
18937SOL     OW58484   2.458   5.842   2.394  0.2117 -0.2715 -0.0871
18937SOL    HW158485   2.439   5.748   2.395  1.8447 -0.6974  2.8134
18937SOL    HW258486   2.545   5.848   2.355 -0.1744  0.1589 -0.9071
18938SOL     OW58487   7.772   6.582   8.982  0.3258 -0.1246 -0.4537
18938SOL    HW158488   7.808   6.499   9.014  1.4215  0.9462  1.2726
18938SOL    HW258489   7.725   6.558   8.902 -0.6713 -2.6466  0.7527
18939SOL     OW58490   3.851   3.167   8.397  0.4309  0.1755 -0.4220
18939SOL    HW158491   3.903   3.093   8.367  2.2304  1.3126 -0.3095
18939SOL    HW258492   3.901   3.244   8.368 -0.1746  1.3171  1.4096
18940SOL     OW58493   8.942   5.509   7.204 -0.2381  0.6259  0.1549
18940SOL    HW158494   8.855   5.518   7.165 -0.0884  0.7457 -0.1529
18940SOL    HW258495   8.971   5.422   7.177 -0.4669  0.3852  0.6760
18941SOL     OW58496   3.604   0.089   8.313 -0.2596  0.4343 -0.3381
18941SOL    HW158497   3.532   0.040   8.273 -0.8173  0.7804  0.2050
18941SOL    HW258498   3.566   0.175   8.332  1.0045  1.4748 -2.2650
18942SOL     OW58499   1.276   4.074   5.000 -0.4140 -0.2547  0.3264
18942SOL    HW158500   1.325   4.151   5.031 -2.6431  1.2409  0.3256
18942SOL    HW258501   1.190   4.082   5.040 -0.8905 -2.5369 -0.0700
18943SOL     OW58502   7.763   3.374   6.556  0.0444  0.1782 -0.1290
18943SOL    HW158503   7.802   3.356   6.470  1.9401  1.1260  0.4879
18943SOL    HW258504   7.749   3.468   6.557  0.5253  0.2516  0.7733
18944SOL     OW58505   1.179   3.122   3.882 -0.1668 -0.3004  0.0963
18944SOL    HW158506   1.086   3.142   3.891  0.0457  0.8496 -0.1791
18944SOL    HW258507   1.222   3.172   3.951  0.2927 -0.5482 -0.0018
18945SOL     OW58508   4.085   6.719   5.457 -0.2759  0.1863  0.2817
18945SOL    HW158509   4.012   6.728   5.518 -1.0480  1.9381 -0.7989
18945SOL    HW258510   4.051   6.664   5.387 -0.0811 -0.1488  0.4497
18946SOL     OW58511   7.287   6.932   6.255 -0.2476  0.2166  0.1983
18946SOL    HW158512   7.280   6.862   6.190 -0.4254  0.7185 -0.3342
18946SOL    HW258513   7.337   6.893   6.327 -2.1451 -1.1581  0.8778
18947SOL     OW58514   5.370   5.743   4.453  0.8164 -0.2170  0.0650
18947SOL    HW158515   5.386   5.656   4.418  0.8376 -0.0695 -0.3003
18947SOL    HW258516   5.336   5.793   4.378  0.8419  0.0976  0.2610
18948SOL     OW58517   5.507   0.204   7.316 -0.0851 -0.6253 -0.0658
18948SOL    HW158518   5.564   0.272   7.280  0.7641 -0.8656  0.7724
18948SOL    HW258519   5.419   0.239   7.308  0.0348 -0.7685 -2.5658
18949SOL     OW58520   2.434   5.132   9.506 -0.2674  0.3740  0.2084
18949SOL    HW158521   2.345   5.115   9.536 -0.8635  2.4346 -0.1848
18949SOL    HW258522   2.452   5.064   9.442 -1.1365 -0.6976  1.0590
18950SOL     OW58523   7.067   6.510   3.508  0.1694 -0.1761 -0.4598
18950SOL    HW158524   7.114   6.567   3.569 -0.6772  1.4358 -1.2527
18950SOL    HW258525   7.077   6.422   3.544  2.9972  0.2049 -0.1105
18951SOL     OW58526   9.628   8.254   2.568  0.0292  0.0551  0.4352
18951SOL    HW158527   9.723   8.252   2.576  0.0830 -0.2745 -0.1851
18951SOL    HW258528   9.606   8.174   2.520 -0.5347  0.2726  0.3137
18952SOL     OW58529   4.521   5.411   4.152 -0.6624 -0.0731 -0.1781
18952SOL    HW158530   4.431   5.385   4.168 -0.2921  0.5779  3.9368
18952SOL    HW258531   4.574   5.343   4.195  0.9125 -0.4558 -2.5090
18953SOL     OW58532   0.794   6.888   8.639  0.6276  0.2395 -0.2635
18953SOL    HW158533   0.793   6.971   8.592  0.0700  0.3110 -0.1315
18953SOL    HW258534   0.880   6.886   8.682 -0.6577  2.5322  2.8424
18954SOL     OW58535   4.717   6.799   3.836  0.1287 -0.2694  0.4609
18954SOL    HW158536   4.742   6.853   3.910  0.7630 -1.2211  0.9540
18954SOL    HW258537   4.799   6.760   3.806  0.0867  0.9672 -1.4766
18955SOL     OW58538   0.628   4.224   3.594 -0.0626 -0.3859 -0.4163
18955SOL    HW158539   0.565   4.221   3.522 -0.7981 -0.4379  0.2184
18955SOL    HW258540   0.585   4.277   3.661 -0.2098 -1.8679  0.7315
18956SOL     OW58541   8.686   3.180   1.944  0.0682 -0.3398  0.2746
18956SOL    HW158542   8.662   3.185   2.037 -1.5411 -2.3098  0.0231
18956SOL    HW258543   8.644   3.256   1.904  2.2305  1.5466  1.3692
18957SOL     OW58544   2.052   5.915   2.396 -0.1076  0.6011 -0.4693
18957SOL    HW158545   2.068   5.837   2.344 -1.4234 -0.0681  0.0809
18957SOL    HW258546   2.033   5.883   2.484 -2.8869  1.3174 -0.7157
18958SOL     OW58547   7.305   6.752   6.056  0.5514  0.2672 -0.2470
18958SOL    HW158548   7.266   6.669   6.029 -2.1338  1.3404  0.0210
18958SOL    HW258549   7.345   6.787   5.977  0.8782 -0.8259 -0.5853
18959SOL     OW58550   9.150   7.574   4.804 -0.6403  0.6236  0.5681
18959SOL    HW158551   9.237   7.588   4.766  1.0268 -2.0170  3.0164
18959SOL    HW258552   9.155   7.616   4.890 -1.5350 -0.1039  0.9893
18960SOL     OW58553   6.737   0.238   0.920  0.7772  0.5190 -0.0676
18960SOL    HW158554   6.829   0.265   0.918  1.1383 -0.6920 -1.3703
18960SOL    HW258555   6.705   0.255   0.832  0.3618 -1.0283 -0.2444
18961SOL     OW58556   5.465   2.216   9.181  0.0247 -0.4633  0.1499
18961SOL    HW158557   5.390   2.250   9.132 -0.3934 -1.9487 -0.3086
18961SOL    HW258558   5.428   2.150   9.239  0.7997 -0.1596  1.0134
18962SOL     OW58559   3.483   1.294   8.149 -0.3149  0.1423 -0.5919
18962SOL    HW158560   3.566   1.338   8.132 -1.0243  1.3263 -1.0901
18962SOL    HW258561   3.416   1.352   8.112 -1.4364 -0.3673  0.5304
18963SOL     OW58562   2.471   7.468   0.043  0.1652  0.0533 -0.2946
18963SOL    HW158563   2.449   7.461  -0.050  0.0752  1.6849 -0.4161
18963SOL    HW258564   2.394   7.436   0.088 -0.1575  0.1405 -0.7777
18964SOL     OW58565   8.373   7.440   4.348  0.0961  0.3153  0.3643
18964SOL    HW158566   8.385   7.512   4.286  0.2714 -0.8281 -0.9989
18964SOL    HW258567   8.428   7.463   4.423  2.0051  0.5237 -1.0152
18965SOL     OW58568   7.443   2.726   9.234 -0.5776  0.4884  0.1959
18965SOL    HW158569   7.416   2.818   9.242 -0.0492  0.7404 -0.7913
18965SOL    HW258570   7.518   2.728   9.175 -0.1766 -0.5226  0.6402
18966SOL     OW58571   6.230   9.316   8.352  0.0259  0.0620  0.0753
18966SOL    HW158572   6.276   9.275   8.426 -0.3218 -1.5289 -0.5436
18966SOL    HW258573   6.252   9.409   8.359  1.5714 -0.3289  1.0501
18967SOL     OW58574   4.120   0.644   3.209  0.5429  0.1979 -0.0888
18967SOL    HW158575   4.026   0.661   3.216  0.4492  0.4132 -1.5574
18967SOL    HW258576   4.158   0.695   3.281 -0.4473  0.1908  0.4638
18968SOL     OW58577   5.312   6.506   1.268  0.0368 -0.6626 -0.0030
18968SOL    HW158578   5.361   6.533   1.345 -1.0489 -1.4440  0.9882
18968SOL    HW258579   5.354   6.553   1.195  2.1609 -1.1768  0.7997
18969SOL     OW58580   7.975   8.194   5.937 -0.6900  0.1347 -0.0781
18969SOL    HW158581   7.965   8.259   6.007 -0.5017 -0.8950  0.9290
18969SOL    HW258582   7.980   8.246   5.856  2.0818  1.6063  0.8983
18970SOL     OW58583   8.097   0.745   4.545  0.4046  0.5395  0.0976
18970SOL    HW158584   8.152   0.685   4.596 -0.5910 -0.7582 -0.2816
18970SOL    HW258585   8.008   0.724   4.572 -0.0146  1.2056 -0.7359
18971SOL     OW58586   9.107   7.920   3.027 -0.4780  0.1397 -0.4605
18971SOL    HW158587   9.126   7.833   3.061 -0.2979  0.1266 -0.5916
18971SOL    HW258588   9.190   7.967   3.035 -1.2873  1.2837  2.5017
18972SOL     OW58589   7.417   7.905   2.421  0.3613  0.2493  0.3879
18972SOL    HW158590   7.510   7.890   2.439  0.6723  3.3524  2.1815
18972SOL    HW258591   7.413   7.997   2.394 -2.0603 -0.2085 -1.1456
18973SOL     OW58592   8.137   5.211   7.304  0.0982 -0.3276  0.4798
18973SOL    HW158593   8.172   5.290   7.345  0.3842 -0.0720 -0.2470
18973SOL    HW258594   8.094   5.243   7.224  0.9815 -0.9995 -0.2777
18974SOL     OW58595   3.160   8.916   4.114 -0.1571  0.3682  0.6989
18974SOL    HW158596   3.115   8.971   4.179 -1.0719  2.0526 -1.2347
18974SOL    HW258597   3.203   8.979   4.056  1.3552 -1.1133  0.1625
18975SOL     OW58598   3.098   3.552   6.570  0.2896  0.0236  0.0164
18975SOL    HW158599   3.186   3.583   6.592  0.3704 -0.7445  0.8161
18975SOL    HW258600   3.072   3.605   6.494  1.6150 -0.0569 -0.5083
18976SOL     OW58601   1.794   2.884   9.202 -1.2001 -0.1860 -0.2033
18976SOL    HW158602   1.748   2.839   9.131 -0.2562  0.1331 -1.0505
18976SOL    HW258603   1.749   2.968   9.210 -2.5676 -0.9772  0.9573
18977SOL     OW58604   7.776   5.747   6.782 -0.0001  0.1579 -0.3030
18977SOL    HW158605   7.817   5.809   6.843  1.1392  1.0906 -1.9443
18977SOL    HW258606   7.721   5.692   6.838  1.0366  0.9169  1.5721
18978SOL     OW58607   0.511   5.284   3.432 -0.1665 -0.4344 -0.0944
18978SOL    HW158608   0.572   5.302   3.360 -0.8320  2.7247 -0.0076
18978SOL    HW258609   0.565   5.285   3.511 -0.0948  1.2394 -0.1270
18979SOL     OW58610   3.442   8.984   0.926  0.3305  0.1074  0.6039
18979SOL    HW158611   3.428   8.892   0.906 -2.4453  0.5978 -0.1836
18979SOL    HW258612   3.448   9.027   0.841 -1.9296  1.0238  0.8377
18980SOL     OW58613   5.891   6.504   3.070  0.7516 -0.0712 -0.3046
18980SOL    HW158614   5.954   6.448   3.025 -0.0540 -2.7638  1.6252
18980SOL    HW258615   5.925   6.513   3.159 -0.3274  0.5335  0.0710
18981SOL     OW58616   4.964   0.115   3.192 -0.4832  0.1732 -0.5430
18981SOL    HW158617   5.035   0.073   3.144  0.2863  1.3594 -0.4624
18981SOL    HW258618   5.006   0.154   3.268 -1.8689 -2.9430  2.0388
18982SOL     OW58619   3.042   5.276   8.189 -0.4549 -0.1982  0.3164
18982SOL    HW158620   3.097   5.311   8.119  1.3595 -1.4438  1.0366
18982SOL    HW258621   2.976   5.224   8.145  0.5473 -0.8048 -0.5221
18983SOL     OW58622   3.303   8.270   7.495 -0.0821  0.3300 -0.3223
18983SOL    HW158623   3.266   8.343   7.545 -0.4232  0.7186 -1.1272
18983SOL    HW258624   3.231   8.241   7.438  0.5660  0.4808 -1.2298
18984SOL     OW58625   9.560   6.224   4.604 -0.6485  0.3202  0.5284
18984SOL    HW158626   9.498   6.154   4.581  1.1581 -1.0357 -0.4772
18984SOL    HW258627   9.509   6.304   4.597 -2.0111 -0.6400 -1.4243
18985SOL     OW58628   8.180   3.159   1.846  0.0081 -0.3395 -0.0984
18985SOL    HW158629   8.247   3.226   1.834  0.0699  0.2476  2.8189
18985SOL    HW258630   8.103   3.195   1.803  0.0349  1.7178  1.3990
18986SOL     OW58631   4.173   4.985   6.260  0.3897 -0.4700  0.0955
18986SOL    HW158632   4.201   4.945   6.178 -2.5526 -0.5989 -0.9559
18986SOL    HW258633   4.128   5.065   6.234 -2.5256 -1.5916  1.3267
18987SOL     OW58634   4.446   0.604   2.393 -0.2571  0.5585  0.1666
18987SOL    HW158635   4.463   0.694   2.420 -1.2672  0.8637 -0.1342
18987SOL    HW258636   4.352   0.603   2.374 -0.3223 -0.6495  0.4930
18988SOL     OW58637   7.441   2.800   8.881 -0.1953  0.2372  0.0618
18988SOL    HW158638   7.491   2.771   8.957 -1.0578 -0.9177  0.2025
18988SOL    HW258639   7.384   2.869   8.915 -0.4704 -0.1690  0.4291
18989SOL     OW58640   2.765   6.598   8.021 -0.7540 -0.0171 -0.0020
18989SOL    HW158641   2.807   6.561   7.944 -0.6717 -0.9010  0.4500
18989SOL    HW258642   2.808   6.555   8.095 -1.1792  0.4376  0.5224
18990SOL     OW58643   2.994   7.739   3.622 -0.3515 -0.1506  0.0022
18990SOL    HW158644   3.033   7.823   3.646  0.1226 -0.4687  0.3859
18990SOL    HW258645   2.933   7.719   3.693  0.3820 -0.6602  0.5188
18991SOL     OW58646   5.049   4.538   6.837  0.6713  0.0410  0.2038
18991SOL    HW158647   4.985   4.586   6.785  1.7956  1.7039  0.2988
18991SOL    HW258648   5.081   4.601   6.901  1.4977 -1.1132  0.9878
18992SOL     OW58649   8.601   0.869   4.328 -0.1545 -0.1059  0.0066
18992SOL    HW158650   8.635   0.781   4.317 -2.2278 -1.1594  1.4506
18992SOL    HW258651   8.604   0.885   4.422 -1.3245  0.6915 -0.0655
18993SOL     OW58652   2.939   4.713   5.061  0.3754  0.3729 -0.0620
18993SOL    HW158653   2.965   4.768   4.987 -0.3037 -1.5967 -1.8838
18993SOL    HW258654   2.914   4.630   5.021 -0.1529 -0.7506  2.4086
18994SOL     OW58655   0.167   2.046   9.483 -0.1208 -0.1474 -0.1171
18994SOL    HW158656   0.167   2.044   9.578  0.5372  2.0338 -0.0192
18994SOL    HW258657   0.168   1.953   9.457  0.6572 -0.7830  1.9791
18995SOL     OW58658   5.771   7.630   9.359 -0.1248  0.3448  0.6197
18995SOL    HW158659   5.683   7.630   9.396  0.3196  0.9239  1.7151
18995SOL    HW258660   5.778   7.714   9.314 -0.9060 -0.6310 -1.4715
18996SOL     OW58661   6.684   2.422   6.530 -0.2323 -0.2008  0.8223
18996SOL    HW158662   6.734   2.365   6.589  1.0460 -0.9770 -0.9087
18996SOL    HW258663   6.715   2.398   6.443  0.6926  3.4643 -0.0095
18997SOL     OW58664   3.557   5.523   8.149  0.5546 -0.4831 -0.4574
18997SOL    HW158665   3.468   5.541   8.120  0.6723  1.7824  0.3309
18997SOL    HW258666   3.552   5.441   8.196 -0.6193 -1.6121 -2.4212
18998SOL     OW58667   4.333   7.845   6.662 -0.4848 -0.0242  0.2663
18998SOL    HW158668   4.319   7.885   6.576 -2.2950 -0.6250  0.2278
18998SOL    HW258669   4.375   7.914   6.714 -0.9617  0.9576 -0.6119
18999SOL     OW58670   8.212   5.633   3.862 -0.0631 -0.4014 -0.0063
18999SOL    HW158671   8.130   5.610   3.905 -0.8140 -0.9820 -1.6442
18999SOL    HW258672   8.265   5.553   3.866  0.3387 -0.1029  0.8305
19000SOL     OW58673   5.404   9.220   6.174 -0.4479 -0.6238  1.0333
19000SOL    HW158674   5.360   9.142   6.140  0.8666 -0.5726 -0.9266
19000SOL    HW258675   5.497   9.206   6.154 -0.2090  1.5752  0.3005
19001SOL     OW58676   8.211   7.057   4.635 -0.7570  0.2160  0.6956
19001SOL    HW158677   8.210   7.116   4.710 -3.4175  0.1048  0.8427
19001SOL    HW258678   8.187   7.112   4.560 -0.1487 -0.0868  0.2663
19002SOL     OW58679   2.272   1.575   8.019  0.2000  0.1963  0.2230
19002SOL    HW158680   2.287   1.666   7.993 -0.5654  0.4534  0.6394
19002SOL    HW258681   2.193   1.579   8.073 -0.0754 -0.7701 -0.0926
19003SOL     OW58682   2.454   3.878   6.773  0.4739 -0.0854  0.1107
19003SOL    HW158683   2.454   3.960   6.823 -0.9384 -0.2933  0.4857
19003SOL    HW258684   2.499   3.900   6.692  0.3896  0.9882  0.3366
19004SOL     OW58685   3.121   0.520   4.225  0.2044  0.2499 -0.1299
19004SOL    HW158686   3.128   0.614   4.239  0.8205  0.4606 -1.6293
19004SOL    HW258687   3.205   0.484   4.256 -0.1536  0.1484  0.7316
19005SOL     OW58688   3.716   0.166   4.540  0.7290  0.2934 -0.3532
19005SOL    HW158689   3.784   0.218   4.498 -0.8620  1.1743 -1.9942
19005SOL    HW258690   3.652   0.231   4.570  0.6128 -0.5056  1.2260
19006SOL     OW58691   3.456   3.669   7.385 -0.0157 -0.1737  0.6769
19006SOL    HW158692   3.446   3.589   7.435 -1.1289  0.7572  2.0215
19006SOL    HW258693   3.505   3.728   7.444  0.8047  0.1424 -0.2894
19007SOL     OW58694   7.887   2.517   6.182  0.0097 -0.4267  0.0814
19007SOL    HW158695   7.896   2.506   6.087  1.9174 -1.6396  0.3593
19007SOL    HW258696   7.794   2.503   6.199 -0.7718  1.7930 -1.8054
19008SOL     OW58697   4.357   8.459   4.830 -0.7456  0.0753  0.0237
19008SOL    HW158698   4.375   8.373   4.867  2.5159  1.4181  2.0609
19008SOL    HW258699   4.309   8.505   4.898  2.0791  1.3812  1.3157
19009SOL     OW58700   6.520   1.145   8.641 -0.2048  0.3495  0.7867
19009SOL    HW158701   6.542   1.071   8.584 -0.5599 -0.1089  1.2401
19009SOL    HW258702   6.559   1.123   8.725  0.3670  1.0541  0.7207
19010SOL     OW58703   0.410   8.909   3.036  0.3053  0.4569  0.0236
19010SOL    HW158704   0.434   8.985   3.089 -1.1763 -0.6588  2.4652
19010SOL    HW258705   0.434   8.933   2.947 -1.4823  4.4345  0.4021
19011SOL     OW58706   2.566   3.236   8.734  0.2522  0.1650 -0.3000
19011SOL    HW158707   2.542   3.146   8.755  2.0160 -0.3462 -0.3236
19011SOL    HW258708   2.482   3.281   8.721 -0.7051 -1.0801  1.2251
19012SOL     OW58709   6.323   2.957   9.253  0.4426  0.3916 -0.9760
19012SOL    HW158710   6.325   2.865   9.278  2.2227  0.2432 -1.4825
19012SOL    HW258711   6.323   2.956   9.157  1.1773  0.8903 -0.9949
19013SOL     OW58712   0.307   8.576   0.840  0.4427 -0.1951 -0.2324
19013SOL    HW158713   0.365   8.533   0.776  0.7629 -0.0697 -0.0286
19013SOL    HW258714   0.366   8.604   0.910  0.1989  0.3363 -0.2353
19014SOL     OW58715   6.011   0.875   9.375  0.3471 -0.3531 -0.3250
19014SOL    HW158716   6.057   0.850   9.456  0.4309 -0.9376 -0.5475
19014SOL    HW258717   5.992   0.968   9.386  1.5742 -0.1040 -0.2288
19015SOL     OW58718   1.208   8.645   5.513 -0.3563  0.3487 -0.4246
19015SOL    HW158719   1.184   8.682   5.598  0.2083  0.4068 -0.2859
19015SOL    HW258720   1.157   8.564   5.507  0.2489 -0.1094  0.3698
19016SOL     OW58721   4.527   8.485   0.162 -0.1769 -0.0341 -0.4448
19016SOL    HW158722   4.444   8.454   0.126 -1.0495  2.1142 -0.4108
19016SOL    HW258723   4.533   8.576   0.134  2.0205 -0.0303 -0.1311
19017SOL     OW58724   3.038   4.050   3.993 -0.2855  0.0559 -0.7181
19017SOL    HW158725   3.019   3.986   3.924 -0.2545 -0.7184 -0.0283
19017SOL    HW258726   3.007   4.133   3.957  1.2664 -0.0079 -2.3520
19018SOL     OW58727   2.621   2.732   7.856  0.0965 -0.6984  0.0030
19018SOL    HW158728   2.658   2.819   7.871  0.0919 -0.1450 -2.6536
19018SOL    HW258729   2.691   2.684   7.812 -0.8149 -1.1230 -1.0170
19019SOL     OW58730   7.105   4.128   1.446  0.6419  0.5187 -0.9270
19019SOL    HW158731   7.088   4.218   1.474 -0.5446  0.2066 -0.6008
19019SOL    HW258732   7.199   4.117   1.457  0.7056  1.5210 -0.3860
19020SOL     OW58733   0.320   2.601   6.557 -0.1535 -0.7569  0.0629
19020SOL    HW158734   0.389   2.635   6.614 -0.2041  0.6107 -0.6457
19020SOL    HW258735   0.300   2.673   6.498  0.7796 -2.5177 -2.5866
19021SOL     OW58736   5.973   6.307   9.393 -0.0995 -0.2420 -0.0639
19021SOL    HW158737   5.920   6.362   9.451  1.6711  1.4103  0.0832
19021SOL    HW258738   5.969   6.352   9.309 -0.7602 -1.3626 -0.6479
19022SOL     OW58739   0.098   0.959   5.124 -0.1081 -0.2746  0.0573
19022SOL    HW158740   0.190   0.930   5.122  0.2563  0.8595 -1.3613
19022SOL    HW258741   0.057   0.910   5.053 -0.6581 -0.8714  0.7695
19023SOL     OW58742   1.303   7.953   2.537 -0.3426  0.1292 -0.1878
19023SOL    HW158743   1.221   7.997   2.514 -1.6491 -1.3999  1.3724
19023SOL    HW258744   1.280   7.861   2.547  1.5218 -0.3097  0.5472
19024SOL     OW58745   6.605   9.436   6.661 -0.2781 -0.6365 -0.2377
19024SOL    HW158746   6.599   9.341   6.672  1.1144 -0.6996  0.1682
19024SOL    HW258747   6.651   9.447   6.578  0.9802 -0.3651  0.4704
19025SOL     OW58748   2.075   4.191   0.003 -0.3213 -0.0311 -0.3479
19025SOL    HW158749   2.011   4.148  -0.054 -0.1080 -1.9813  0.8206
19025SOL    HW258750   2.139   4.123   0.023  0.2295  0.9225  1.3103
19026SOL     OW58751   7.546   6.723   5.029 -0.6568  0.5440  0.0327
19026SOL    HW158752   7.615   6.758   5.085  0.1318  0.4516 -0.8523
19026SOL    HW258753   7.513   6.799   4.981 -1.0479  0.5547  0.3105
19027SOL     OW58754   3.797   2.685   4.017  0.0523 -0.0263 -0.2743
19027SOL    HW158755   3.776   2.602   4.060  0.0134  0.0306 -0.1824
19027SOL    HW258756   3.721   2.701   3.960  0.1343 -0.1354 -0.4161
19028SOL     OW58757   6.966   1.922   5.976  0.8221 -0.2705  0.1082
19028SOL    HW158758   6.986   1.831   5.955 -1.8061 -0.9929  0.4222
19028SOL    HW258759   6.871   1.929   5.965  0.7378  2.0364  1.6195
19029SOL     OW58760   2.315   7.201   5.750  0.6844  0.0820 -0.5138
19029SOL    HW158761   2.350   7.273   5.697  0.1899  0.5961 -0.1618
19029SOL    HW258762   2.256   7.155   5.691 -1.3407  1.7747  0.0480
19030SOL     OW58763   8.700   1.161   9.044  0.8474 -0.5509 -0.2052
19030SOL    HW158764   8.697   1.073   9.008  0.4525 -0.2198 -1.0259
19030SOL    HW258765   8.794   1.182   9.050  0.9613 -1.2277  0.5463
19031SOL     OW58766   8.879   3.974   4.730  0.4356  0.0312  0.1939
19031SOL    HW158767   8.937   3.935   4.796 -1.2807 -3.0140  0.0962
19031SOL    HW258768   8.829   4.040   4.779  0.0054 -1.3544  1.7544
19032SOL     OW58769   7.057   3.928   4.194  0.1770 -0.2802  0.2295
19032SOL    HW158770   7.131   3.985   4.216 -1.8829  2.3419  0.9509
19032SOL    HW258771   7.049   3.869   4.269  0.5117  0.5622  0.9440
19033SOL     OW58772   4.248   7.004   0.277  0.0308  0.3883  0.0488
19033SOL    HW158773   4.241   6.948   0.354 -1.5803 -1.2084 -1.1632
19033SOL    HW258774   4.306   6.957   0.218 -1.0226  0.1577 -0.8280
19034SOL     OW58775   7.231   7.350   7.992 -0.7915  0.0621  0.0676
19034SOL    HW158776   7.288   7.280   8.023  0.2386  0.4704 -0.8545
19034SOL    HW258777   7.176   7.308   7.926 -1.3401 -0.2478  0.7059
19035SOL     OW58778   1.949   9.561   7.480 -0.0566 -0.2419 -0.6049
19035SOL    HW158779   1.942   9.643   7.431 -0.8732 -1.3151 -2.3901
19035SOL    HW258780   1.919   9.583   7.568 -1.1289  1.1810 -1.2745
19036SOL     OW58781   4.980   8.083   4.327 -0.2724 -0.1139  0.1750
19036SOL    HW158782   4.943   7.995   4.320 -0.9851  0.2422 -0.8161
19036SOL    HW258783   5.014   8.088   4.416 -1.5152 -0.8943  0.7224
19037SOL     OW58784   2.088   1.855   3.870  0.0565  0.1272  0.3438
19037SOL    HW158785   2.090   1.946   3.839  0.7772  0.2506  0.7273
19037SOL    HW258786   2.058   1.861   3.960  0.1363 -0.0157  0.3800
19038SOL     OW58787   7.988   8.400   7.040  0.3837 -0.3229  0.2063
19038SOL    HW158788   8.040   8.343   6.984 -1.1016  0.5656 -2.2210
19038SOL    HW258789   7.897   8.380   7.018 -0.2737  0.4374  1.9656
19039SOL     OW58790   8.625   3.761   7.308 -0.4019 -0.0375 -0.1359
19039SOL    HW158791   8.641   3.749   7.214  0.8222 -0.6630  0.1390
19039SOL    HW258792   8.698   3.814   7.338 -0.9927  0.4844  0.4010
19040SOL     OW58793   5.701   0.195   3.534 -0.6273  0.0393 -0.3361
19040SOL    HW158794   5.661   0.226   3.453 -0.4341  1.6339  0.1465
19040SOL    HW258795   5.710   0.273   3.588 -1.4759 -1.0925  1.5615
19041SOL     OW58796   3.576   5.713   3.657  0.6620  0.2385 -0.5047
19041SOL    HW158797   3.516   5.787   3.648 -2.5621 -2.1920 -1.0167
19041SOL    HW258798   3.574   5.670   3.571  2.3708 -0.5087 -0.2056
19042SOL     OW58799   3.570   8.386   8.796  0.2963  0.2838 -0.0329
19042SOL    HW158800   3.561   8.478   8.770 -0.6256 -0.1113 -1.2333
19042SOL    HW258801   3.652   8.358   8.755  1.0460  0.7980  1.0905
19043SOL     OW58802   1.607   2.212   1.375 -0.0966 -0.4114  0.3490
19043SOL    HW158803   1.703   2.215   1.375 -0.1193  1.0090  1.0783
19043SOL    HW258804   1.585   2.164   1.455  0.0032 -0.6872  0.2114
19044SOL     OW58805   5.021   4.217   4.923  0.2628 -0.4501  0.0994
19044SOL    HW158806   5.011   4.266   5.005 -0.2587 -0.5682  0.1062
19044SOL    HW258807   4.932   4.204   4.892  0.4894  0.9340 -1.2874
19045SOL     OW58808   1.942   7.873   9.450 -0.7881  0.4276 -0.1096
19045SOL    HW158809   1.892   7.828   9.518  2.2768  0.3072  2.2838
19045SOL    HW258810   1.983   7.946   9.495  1.1295  0.5482 -1.8911
19046SOL     OW58811   7.166   0.544   8.865  0.6869  0.3589 -1.2340
19046SOL    HW158812   7.145   0.547   8.771  1.7476  0.7652 -1.4611
19046SOL    HW258813   7.239   0.604   8.876 -1.6680  3.1895  0.5015
19047SOL     OW58814   3.772   1.816   6.497 -0.6949  0.3897 -0.5667
19047SOL    HW158815   3.698   1.782   6.446 -1.1935  2.0727 -1.0295
19047SOL    HW258816   3.732   1.844   6.580 -0.0934 -1.1759  0.2971
19048SOL     OW58817   3.020   0.271   9.424  0.2564 -0.4464  0.2147
19048SOL    HW158818   3.027   0.254   9.330 -2.0038  0.1960 -0.1168
19048SOL    HW258819   3.025   0.184   9.465  0.4077 -0.8057 -0.5590
19049SOL     OW58820   0.022   6.400   2.142 -0.3270 -0.5818  0.0884
19049SOL    HW158821   0.069   6.467   2.092 -1.7882  0.4479  0.0310
19049SOL    HW258822   0.086   6.331   2.156  1.3162  0.9214  0.3289
19050SOL     OW58823   3.978   2.396   1.538  0.9800  0.8997 -0.2687
19050SOL    HW158824   3.949   2.464   1.478 -1.8872 -0.7134 -0.8853
19050SOL    HW258825   3.949   2.425   1.624 -1.6478 -0.1339 -0.7270
19051SOL     OW58826   3.470   9.056   4.588 -0.2168 -0.3975  0.4246
19051SOL    HW158827   3.426   9.041   4.505  0.1056 -1.4243  0.4177
19051SOL    HW258828   3.401   9.081   4.649 -0.3845  0.8496 -0.2628
19052SOL     OW58829   6.629   0.607   3.372 -0.2983  0.4148  0.3464
19052SOL    HW158830   6.630   0.593   3.467 -2.8845  0.1639  0.4229
19052SOL    HW258831   6.715   0.577   3.342  0.2868 -0.2567  2.4988
19053SOL     OW58832   4.311   8.572   3.349  0.7184  0.3426 -0.7013
19053SOL    HW158833   4.262   8.596   3.271  3.4993  1.9616 -2.0816
19053SOL    HW258834   4.307   8.650   3.405 -2.9567 -1.4222  1.9463
19054SOL     OW58835   3.543   5.534   7.061 -0.8261  0.0921  0.1902
19054SOL    HW158836   3.462   5.543   7.011 -0.8827  1.7967  0.5285
19054SOL    HW258837   3.609   5.576   7.007  0.5598 -3.8344 -1.4934
19055SOL     OW58838   5.995   3.739   8.570 -0.8163  0.7057  0.5114
19055SOL    HW158839   5.997   3.751   8.665  0.2425 -0.3622  0.6471
19055SOL    HW258840   6.031   3.821   8.535  1.5845  0.0244  1.1924
19056SOL     OW58841   9.634   4.948   1.812 -0.1938  0.2365 -0.2992
19056SOL    HW158842   9.578   4.980   1.741 -0.7472  1.3754  0.6178
19056SOL    HW258843   9.647   5.024   1.869 -0.6438 -0.8854  1.3855
19057SOL     OW58844   4.289   2.888   4.067  0.3112 -0.0918  0.1346
19057SOL    HW158845   4.298   2.794   4.077 -0.8282 -0.5564 -2.4397
19057SOL    HW258846   4.366   2.915   4.016  1.3542  0.6841  1.9797
19058SOL     OW58847   5.898   6.694   3.718  0.3664 -0.2318 -0.3549
19058SOL    HW158848   5.935   6.649   3.643  1.4411 -2.2864  1.3171
19058SOL    HW258849   5.971   6.743   3.756 -0.2585  1.1226 -0.8097
19059SOL     OW58850   7.216   1.567   7.294 -0.1037  0.1668 -0.0011
19059SOL    HW158851   7.225   1.489   7.349  1.2250  1.1427  1.2484
19059SOL    HW258852   7.280   1.555   7.224  0.3062  0.2511  0.3546
19060SOL     OW58853   4.145   7.357   7.958  0.0137 -0.2795 -0.2356
19060SOL    HW158854   4.209   7.296   7.995 -1.5221 -1.9192 -0.1508
19060SOL    HW258855   4.099   7.393   8.034 -0.7568 -0.9491 -0.3694
19061SOL     OW58856   4.894   3.209   2.272  0.2139 -0.6086  0.8253
19061SOL    HW158857   4.812   3.258   2.261  0.3090 -0.5362  0.4380
19061SOL    HW258858   4.914   3.217   2.366 -0.1979 -0.5913  0.9148
19062SOL     OW58859   0.615   5.642   1.736 -0.0121  0.0929 -0.3455
19062SOL    HW158860   0.541   5.640   1.797  0.7283  1.0556  0.6114
19062SOL    HW258861   0.609   5.558   1.690 -3.4177  1.2446 -2.3934
19063SOL     OW58862   8.312   4.340   7.053 -0.0558 -0.1336  0.1451
19063SOL    HW158863   8.292   4.415   7.110  0.3154 -0.4021  0.6383
19063SOL    HW258864   8.366   4.283   7.108  0.4937 -0.2946 -0.5555
19064SOL     OW58865   9.280   2.780   5.752  0.0029  0.1073 -0.1045
19064SOL    HW158866   9.204   2.804   5.698  0.3317  0.2543 -0.5041
19064SOL    HW258867   9.350   2.837   5.722  0.3379 -0.1887  0.1030
19065SOL     OW58868   4.388   3.620   2.664 -0.1501 -0.7454  0.2456
19065SOL    HW158869   4.341   3.702   2.649 -0.3900 -0.8541  0.3916
19065SOL    HW258870   4.480   3.645   2.668 -0.2560 -0.4152  0.7359
19066SOL     OW58871   0.069   7.421   7.202 -0.1890  0.2516  0.3222
19066SOL    HW158872   0.009   7.459   7.266 -0.9154 -0.8595  0.3399
19066SOL    HW258873   0.065   7.327   7.219 -0.9107 -0.1458 -1.7589
19067SOL     OW58874   3.765   3.511   6.644 -0.5528 -0.1467  0.1770
19067SOL    HW158875   3.778   3.450   6.572  0.1406  0.5470 -0.3066
19067SOL    HW258876   3.848   3.513   6.690 -0.3315  0.9331 -0.2261
19068SOL     OW58877   0.675   9.426   8.536 -1.0171  0.0357  0.4193
19068SOL    HW158878   0.743   9.435   8.603 -1.7749  0.2677  1.1701
19068SOL    HW258879   0.723   9.432   8.453 -0.0826 -0.1319  0.9331
19069SOL     OW58880   6.582   8.712   7.492 -0.1565 -0.0068  0.1557
19069SOL    HW158881   6.653   8.663   7.533  1.3516  0.4893 -1.7629
19069SOL    HW258882   6.587   8.799   7.531 -1.4788 -0.6757  1.9779
19070SOL     OW58883   1.248   9.304   0.698  0.7068 -0.1290  0.2029
19070SOL    HW158884   1.232   9.211   0.686 -0.6467  0.3233 -2.1730
19070SOL    HW258885   1.160   9.342   0.704  1.2451  0.9495  1.7663
19071SOL     OW58886   8.502   3.008   7.806  0.4794  0.5261  0.0126
19071SOL    HW158887   8.597   2.998   7.810  0.5439  0.6891 -0.7965
19071SOL    HW258888   8.484   3.087   7.857  0.6906  0.0924  0.7806
19072SOL     OW58889   0.431   2.644   9.060  0.4415  0.4568 -0.5516
19072SOL    HW158890   0.484   2.571   9.027  1.4089 -0.5945  2.8196
19072SOL    HW258891   0.343   2.609   9.067  1.0361 -0.7969  1.7464
19073SOL     OW58892   5.526   0.693   1.661  0.0424  0.1242  0.0065
19073SOL    HW158893   5.601   0.636   1.645 -1.1979 -1.5733  0.0541
19073SOL    HW258894   5.488   0.661   1.743 -0.3595  1.3943  0.3365
19074SOL     OW58895   1.336   8.810   2.411  0.5981 -0.0288  0.0262
19074SOL    HW158896   1.306   8.744   2.473  1.5712 -1.0053 -0.4928
19074SOL    HW258897   1.390   8.870   2.463  1.2460 -0.7259  0.1841
19075SOL     OW58898   4.930   5.311   5.267  0.3550 -0.0614 -0.2068
19075SOL    HW158899   4.938   5.404   5.246  1.5949 -0.0205  0.3620
19075SOL    HW258900   4.956   5.305   5.359  0.8135 -1.0381 -0.3857
19076SOL     OW58901   6.418   2.628   2.342  0.2718 -1.0892  0.2099
19076SOL    HW158902   6.502   2.675   2.348 -0.1805 -0.4341  1.7125
19076SOL    HW258903   6.434   2.544   2.384  0.9445 -2.1961 -2.0610
19077SOL     OW58904   3.126   7.451   8.794  0.1330  0.3177  0.1201
19077SOL    HW158905   3.159   7.499   8.870  0.1852  1.6870 -0.7230
19077SOL    HW258906   3.045   7.410   8.824  0.7339 -0.1054  1.2183
19078SOL     OW58907   2.179   5.336   6.413 -0.3044  0.5359 -0.0904
19078SOL    HW158908   2.201   5.422   6.377 -0.1723  0.5416  0.0057
19078SOL    HW258909   2.105   5.353   6.472 -1.3376  0.3485 -1.2870
19079SOL     OW58910   9.520   8.639   1.214 -0.1621  0.3699 -0.2545
19079SOL    HW158911   9.590   8.614   1.154 -0.5683 -0.2910 -0.4608
19079SOL    HW258912   9.523   8.735   1.216 -0.2533  0.4043 -1.4438
19080SOL     OW58913   5.016   4.289   4.363 -0.4308  0.1111 -0.1964
19080SOL    HW158914   5.020   4.337   4.445 -1.0254  0.5983 -0.4486
19080SOL    HW258915   5.040   4.199   4.387 -0.6434  0.2394  0.5112
19081SOL     OW58916   4.235   2.056   0.624 -1.0540  0.6896  0.3382
19081SOL    HW158917   4.195   1.992   0.683  0.7945 -3.1652 -2.1334
19081SOL    HW258918   4.328   2.053   0.644 -0.7775  1.6160 -0.6982
19082SOL     OW58919   1.628   8.083   4.910 -0.9234 -0.3774  0.0508
19082SOL    HW158920   1.657   8.077   5.001 -2.9222  0.4844  0.7903
19082SOL    HW258921   1.686   8.149   4.871  0.0404 -0.8564  0.6358
19083SOL     OW58922   0.843   8.226   2.159 -0.4860 -0.5412  0.3439
19083SOL    HW158923   0.753   8.258   2.146 -0.0505  1.2131  1.2616
19083SOL    HW258924   0.891   8.260   2.083 -0.4279 -0.7039  0.3091
19084SOL     OW58925   9.484   2.524   4.433  0.1795  0.4816  0.4381
19084SOL    HW158926   9.449   2.504   4.347 -1.3406 -0.0730  1.1415
19084SOL    HW258927   9.407   2.546   4.486  0.8481 -0.9276  2.1106
19085SOL     OW58928   1.397   8.224   8.925 -0.3376 -0.4446  0.3537
19085SOL    HW158929   1.383   8.130   8.931  1.9220 -0.8256  0.5991
19085SOL    HW258930   1.312   8.260   8.899 -1.4315 -2.4559  0.9685
19086SOL     OW58931   0.705   9.235   2.952  0.1364  0.0088 -0.6681
19086SOL    HW158932   0.616   9.260   2.930 -0.0342 -1.1287 -1.3541
19086SOL    HW258933   0.731   9.173   2.883  0.1815 -2.3933  1.3687
19087SOL     OW58934   0.305   3.863   6.061  0.1658  1.2404 -0.6020
19087SOL    HW158935   0.342   3.864   6.149  0.3023  0.7222 -0.6479
19087SOL    HW258936   0.214   3.890   6.074 -0.2311 -0.2430 -0.0840
19088SOL     OW58937   3.871   6.808   2.094  0.2805 -0.0969 -0.1716
19088SOL    HW158938   3.920   6.889   2.079  0.2585  0.1940  1.2073
19088SOL    HW258939   3.879   6.760   2.012  2.9624 -0.1223  0.0250
19089SOL     OW58940   6.601   3.900   9.320  0.1074 -0.1261  0.2767
19089SOL    HW158941   6.527   3.896   9.259  0.0744  0.6747  0.2484
19089SOL    HW258942   6.657   3.826   9.295 -1.0398 -1.2075  0.7919
19090SOL     OW58943   6.618   2.601   1.954  0.0990  0.0272  0.2121
19090SOL    HW158944   6.706   2.637   1.941  0.2338 -0.5178 -0.4219
19090SOL    HW258945   6.621   2.562   2.041  0.6348 -0.4197 -0.0015
19091SOL     OW58946   6.738   4.003   5.551  0.5646  0.2960  0.0838
19091SOL    HW158947   6.670   3.940   5.572  1.1914 -0.4215  0.0078
19091SOL    HW258948   6.808   3.951   5.511  2.0221  0.6738  1.9788
19092SOL     OW58949   1.604   4.468   7.727 -0.2985  0.2297 -0.2774
19092SOL    HW158950   1.644   4.554   7.712 -0.0762  0.6472  2.2206
19092SOL    HW258951   1.605   4.426   7.642  2.5630  1.4569 -0.9767
19093SOL     OW58952   0.258   1.593   5.241 -0.1711  0.1255 -0.0220
19093SOL    HW158953   0.303   1.677   5.248  0.8424 -0.3120 -1.0367
19093SOL    HW258954   0.249   1.579   5.146  0.9504 -1.5766  0.0946
19094SOL     OW58955   9.547   7.886   6.132 -0.0212  0.2771  0.0175
19094SOL    HW158956   9.595   7.865   6.052 -1.1216  0.3219 -0.6823
19094SOL    HW258957   9.555   7.807   6.186 -2.6488 -1.4705 -1.8641
19095SOL     OW58958   5.314   5.732   4.711 -0.7351 -0.0992  0.4549
19095SOL    HW158959   5.296   5.638   4.705  0.0831 -0.3451  1.5862
19095SOL    HW258960   5.361   5.752   4.629  1.4972 -1.2776  1.3487
19096SOL     OW58961   2.798   8.365   7.515  0.4158 -0.1124  0.5225
19096SOL    HW158962   2.726   8.429   7.510 -0.6109 -1.2405  0.3294
19096SOL    HW258963   2.829   8.356   7.425 -0.6896 -1.2222  0.2182
19097SOL     OW58964   0.722   5.166   5.116  0.2906  0.3142 -0.0134
19097SOL    HW158965   0.773   5.218   5.054  1.4392 -2.7599 -1.8986
19097SOL    HW258966   0.641   5.146   5.069 -1.2475  2.2681  1.6255
19098SOL     OW58967   9.623   5.961   5.100  0.2045 -0.0521 -0.0718
19098SOL    HW158968   9.564   5.886   5.093 -0.1340 -0.0281  1.9081
19098SOL    HW258969   9.703   5.933   5.056 -1.1264 -0.1743 -2.6257
19099SOL     OW58970   9.551   6.441   4.240  0.0223  0.0085  0.2353
19099SOL    HW158971   9.578   6.434   4.149  0.2361 -0.0288  0.3024
19099SOL    HW258972   9.513   6.355   4.260 -1.0967  0.3844 -0.1627
19100SOL     OW58973   4.812   1.885   8.039 -0.3082  0.1209 -0.0965
19100SOL    HW158974   4.858   1.867   7.957 -1.8265  1.2891 -1.2531
19100SOL    HW258975   4.819   1.803   8.088  3.4824  0.4011  0.1030
19101SOL     OW58976   5.820   1.869   4.614 -0.4848  0.1453  0.0823
19101SOL    HW158977   5.873   1.790   4.604 -0.7610 -0.1612  0.9620
19101SOL    HW258978   5.884   1.940   4.617  0.0818 -0.3555  2.8647
19102SOL     OW58979   5.702   7.637   1.928 -1.0281  0.3526  0.0965
19102SOL    HW158980   5.775   7.699   1.938 -0.3720  0.0458 -2.2558
19102SOL    HW258981   5.642   7.681   1.868 -2.9645  0.6839  2.1560
19103SOL     OW58982   9.241   4.421   1.038  0.0819  0.2590 -0.2443
19103SOL    HW158983   9.245   4.469   0.955 -2.2572 -2.4234 -2.1238
19103SOL    HW258984   9.159   4.450   1.078  1.3079  1.7164  1.3942
19104SOL     OW58985   5.218   0.271   2.505 -0.1646  0.3253  1.2343
19104SOL    HW158986   5.310   0.297   2.495 -0.0416 -0.5449 -0.3286
19104SOL    HW258987   5.212   0.235   2.593  1.0105  0.3686  1.3450
19105SOL     OW58988   3.864   5.606   0.306 -0.3104 -0.2321  0.1458
19105SOL    HW158989   3.803   5.676   0.281 -0.2279  0.3004  1.3774
19105SOL    HW258990   3.928   5.604   0.234 -1.2951 -0.2477 -0.7614
19106SOL     OW58991   0.049   4.370   5.671  0.1175  0.2772 -0.3769
19106SOL    HW158992   0.120   4.433   5.684  0.6047 -0.3133 -0.1591
19106SOL    HW258993   0.018   4.350   5.760  0.0302  0.1243 -0.4418
19107SOL     OW58994   4.008   3.430   2.454  0.0414  0.6282 -0.0096
19107SOL    HW158995   4.024   3.345   2.412 -1.1707  0.2008  0.3582
19107SOL    HW258996   4.095   3.460   2.481  0.4076 -0.9130  0.6509
19108SOL     OW58997   9.026   0.413   6.031  0.3158  0.0965  0.3179
19108SOL    HW158998   9.072   0.449   6.107  1.7496  0.0352 -0.4941
19108SOL    HW258999   8.993   0.490   5.985  1.4578  0.2824 -0.2240
19109SOL     OW59000   2.313   8.706   5.284 -0.1655 -0.1351 -0.3422
19109SOL    HW159001   2.319   8.678   5.375  0.2469  0.5535 -0.1522
19109SOL    HW259002   2.261   8.638   5.241 -0.6415 -0.2970  0.4718
19110SOL     OW59003   6.643   1.435   5.097  0.2610  0.0268  0.3298
19110SOL    HW159004   6.581   1.508   5.092 -0.3692 -0.5113  0.1661
19110SOL    HW259005   6.726   1.476   5.122  0.1257  0.9198 -0.6128
19111SOL     OW59006   4.813   3.346   5.067  1.1011 -0.8285  0.3887
19111SOL    HW159007   4.838   3.408   4.998  0.9338 -1.8021 -0.5707
19111SOL    HW259008   4.863   3.375   5.144  0.0919  1.2459  0.3452
19112SOL     OW59009   0.397   1.911   0.575 -0.1740  0.2457 -0.1029
19112SOL    HW159010   0.364   1.833   0.530 -1.5874  0.7998 -0.0714
19112SOL    HW259011   0.491   1.897   0.581 -0.2347 -0.8596 -1.2631
19113SOL     OW59012   4.824   1.526   8.616 -0.3953  0.1936  0.0730
19113SOL    HW159013   4.907   1.567   8.594  0.6130 -0.6028  2.1294
19113SOL    HW259014   4.788   1.579   8.687 -2.1212  1.0292 -1.3457
19114SOL     OW59015   3.986   9.020   8.421  0.7298  0.0382 -0.5170
19114SOL    HW159016   3.955   9.007   8.331  0.9655 -0.3232 -0.5486
19114SOL    HW259017   3.938   8.954   8.472 -0.1855  0.9280 -0.1954
19115SOL     OW59018   7.410   9.136   7.257 -0.0521 -0.0932 -0.0811
19115SOL    HW159019   7.466   9.079   7.206  1.0259 -0.1617  1.1246
19115SOL    HW259020   7.395   9.088   7.339  0.6979  1.2323  0.8717
19116SOL     OW59021   2.897   9.513   2.800  0.1890 -0.5002 -0.2491
19116SOL    HW159022   2.982   9.544   2.831  1.2616  0.5967 -3.7594
19116SOL    HW259023   2.912   9.490   2.708 -3.4834  0.6093 -1.3091
19117SOL     OW59024   8.236   7.470   9.211  0.2818 -0.0515 -0.3130
19117SOL    HW159025   8.149   7.470   9.249  0.9737  0.8945  1.3822
19117SOL    HW259026   8.275   7.553   9.240  2.2230 -1.0772  0.1603
19118SOL     OW59027   7.129   7.028   2.783 -0.2513  0.4451  0.3861
19118SOL    HW159028   7.179   7.110   2.779  2.0988 -0.7460  2.5541
19118SOL    HW259029   7.132   7.003   2.875 -3.5288 -0.6118  0.3003
19119SOL     OW59030   6.960   0.330   0.568 -0.5101  0.1300 -0.3098
19119SOL    HW159031   7.007   0.401   0.611 -2.5321  2.0191 -0.9708
19119SOL    HW259032   6.939   0.268   0.638  0.9671  0.3416  0.3572
19120SOL     OW59033   5.243   0.041   2.308  0.3946 -0.3803  0.2216
19120SOL    HW159034   5.244   0.114   2.370  2.4093 -0.4519  0.3305
19120SOL    HW259035   5.240  -0.037   2.364  0.8191 -0.4230  0.1842
19121SOL     OW59036   0.030   6.344   7.655 -0.2263  0.9029  0.3611
19121SOL    HW159037  -0.025   6.417   7.683 -0.8877 -0.1913  2.0734
19121SOL    HW259038   0.017   6.277   7.722 -0.8373 -1.3973 -1.8862
19122SOL     OW59039   8.379   6.105   2.670 -0.2006  0.3461 -0.6677
19122SOL    HW159040   8.340   6.023   2.699  1.5046 -0.3398 -0.1668
19122SOL    HW259041   8.342   6.120   2.583 -0.1197 -1.2701 -1.0081
19123SOL     OW59042   8.421   3.450   2.903 -0.0610  0.2516 -1.0438
19123SOL    HW159043   8.471   3.463   2.822 -2.6658 -1.0939 -3.0321
19123SOL    HW259044   8.366   3.374   2.885 -2.6019  1.4451  1.0490
19124SOL     OW59045   5.291   6.455   5.016 -0.0808  0.3343  0.3581
19124SOL    HW159046   5.384   6.476   5.019  0.0656 -0.3563  1.2227
19124SOL    HW259047   5.288   6.367   4.978 -0.5096  0.9439 -1.0903
19125SOL     OW59048   3.407   1.543   0.703  0.3781 -0.0715  0.4165
19125SOL    HW159049   3.450   1.483   0.643  0.6671  0.4659  0.0784
19125SOL    HW259050   3.335   1.493   0.740 -0.2311 -0.1986 -0.8985
19126SOL     OW59051   8.247   6.815   7.092  0.2248 -0.0134 -0.4445
19126SOL    HW159052   8.177   6.820   7.027 -0.5953 -0.8826  0.3457
19126SOL    HW259053   8.240   6.897   7.141 -0.4131 -0.2070 -0.2039
19127SOL     OW59054   0.344   2.076   4.928  0.1665 -0.5049 -0.2514
19127SOL    HW159055   0.284   2.130   4.979 -0.3710  0.3338 -1.7272
19127SOL    HW259056   0.293   1.999   4.904  0.4926 -1.0152  0.6336
19128SOL     OW59057   5.066   4.367   8.512 -0.2082 -0.5711  0.0435
19128SOL    HW159058   5.084   4.461   8.512 -0.4866 -0.4941 -1.3305
19128SOL    HW259059   4.976   4.360   8.481 -0.6987 -1.2357  1.5237
19129SOL     OW59060   7.409   3.562   2.031 -0.4394  0.1664  0.3164
19129SOL    HW159061   7.413   3.635   1.969 -0.0843 -0.5437 -0.5038
19129SOL    HW259062   7.500   3.538   2.046 -0.5732 -0.4467  0.1818
19130SOL     OW59063   5.349   4.270   8.494 -0.0703  0.3823 -0.3683
19130SOL    HW159064   5.389   4.316   8.568  0.8380 -1.3157  0.2543
19130SOL    HW259065   5.255   4.290   8.502  0.2159  1.5966  0.2235
19131SOL     OW59066   9.031   6.822   1.483  0.8478 -0.3109 -0.2462
19131SOL    HW159067   9.091   6.750   1.507  0.0460 -2.0676 -3.0443
19131SOL    HW259068   9.087   6.886   1.439  1.1266 -0.5471 -0.2380
19132SOL     OW59069   8.376   8.274   4.449  0.4090 -0.1121 -0.2309
19132SOL    HW159070   8.340   8.186   4.459 -1.3895  0.7033  1.1651
19132SOL    HW259071   8.391   8.303   4.539  2.4501  0.4640 -0.7227
19133SOL     OW59072   5.003   4.794   6.507 -0.4337  0.1061  0.1253
19133SOL    HW159073   5.028   4.887   6.511  1.6472 -0.4013  0.4948
19133SOL    HW259074   5.013   4.764   6.597  1.4639 -1.0160 -0.4006
19134SOL     OW59075   5.302   0.800   8.895 -0.3253 -0.2034 -0.1043
19134SOL    HW159076   5.266   0.889   8.893 -0.5894 -0.2669  1.1165
19134SOL    HW259077   5.397   0.812   8.895 -0.3617  0.1034  0.7466
19135SOL     OW59078   0.848   3.430   6.702 -0.4381 -0.5324  0.4057
19135SOL    HW159079   0.928   3.478   6.681 -0.4680  0.7143  2.8149
19135SOL    HW259080   0.843   3.432   6.797 -1.4057 -3.8730  0.5307
19136SOL     OW59081   3.223   1.985   2.666  0.1786 -0.3867  0.1263
19136SOL    HW159082   3.261   1.901   2.640  1.1685  0.2869 -0.7157
19136SOL    HW259083   3.129   1.971   2.663  0.3234 -1.3176 -0.5412
19137SOL     OW59084   4.759   8.657   1.903 -0.3226 -0.5408 -0.0628
19137SOL    HW159085   4.665   8.642   1.894 -0.3577 -0.2913 -0.1393
19137SOL    HW259086   4.779   8.721   1.834 -0.3300  0.3594  0.7464
19138SOL     OW59087   7.666   7.974   3.726  0.1718 -0.2454 -0.4977
19138SOL    HW159088   7.594   8.036   3.718 -0.9179 -0.9440  2.6230
19138SOL    HW259089   7.731   8.018   3.781  1.2465 -0.4331 -1.5515
19139SOL     OW59090   1.326   7.521   3.639 -0.9821 -0.2509 -0.3258
19139SOL    HW159091   1.252   7.461   3.638 -0.9099 -0.4134  1.0990
19139SOL    HW259092   1.379   7.496   3.563 -1.0236 -1.9154  0.1588
19140SOL     OW59093   6.649   5.058   6.490 -0.1475 -0.1941 -0.2933
19140SOL    HW159094   6.586   5.001   6.445 -1.7395  0.9960  0.3285
19140SOL    HW259095   6.607   5.077   6.574  0.5617  1.4980 -0.2889
19141SOL     OW59096   6.046   4.131   3.901  0.1948  0.4969 -0.0899
19141SOL    HW159097   6.065   4.111   3.810  3.2532  2.2809 -0.0019
19141SOL    HW259098   6.097   4.067   3.951 -1.1145 -0.1913  0.4110
19142SOL     OW59099   4.329   5.771   0.875 -0.1752  0.1172  0.3210
19142SOL    HW159100   4.332   5.734   0.963 -1.0357 -1.3661 -0.2310
19142SOL    HW259101   4.275   5.710   0.825 -0.0994  1.1724 -1.1293
19143SOL     OW59102   6.747   8.304   5.097  0.7520  0.1746  0.4487
19143SOL    HW159103   6.766   8.397   5.106  3.5315 -0.2680 -0.0680
19143SOL    HW259104   6.699   8.281   5.176 -0.2411  2.0783  0.4392
19144SOL     OW59105   1.020   9.059   7.822 -0.0962 -0.6376 -0.4093
19144SOL    HW159106   0.992   9.065   7.730  0.6355 -1.9665 -0.7394
19144SOL    HW259107   1.104   9.014   7.818 -0.1554 -0.8876  0.9396
19145SOL     OW59108   2.803   1.494   3.715 -0.2038  0.5684  0.1030
19145SOL    HW159109   2.818   1.563   3.651  2.0798  0.0809 -0.0028
19145SOL    HW259110   2.849   1.418   3.680  0.5516  0.0971  1.9534
19146SOL     OW59111   8.454   5.048   1.166  0.1921  0.3815 -0.1746
19146SOL    HW159112   8.380   5.096   1.203 -0.0131 -0.1302  0.0833
19146SOL    HW259113   8.440   5.052   1.071 -0.2886  0.0932 -0.1185
19147SOL     OW59114   1.777   2.760   4.649 -0.4381 -0.2573 -1.0381
19147SOL    HW159115   1.868   2.771   4.620 -0.3906  0.9394 -0.4979
19147SOL    HW259116   1.777   2.676   4.695  0.4599 -0.1708 -0.8589
19148SOL     OW59117   4.544   2.292   4.637  0.2256 -0.1324  0.2069
19148SOL    HW159118   4.534   2.375   4.591  0.6076  0.6138  1.4306
19148SOL    HW259119   4.630   2.297   4.678  0.3915 -1.2705  0.0459
19149SOL     OW59120   3.044   2.458   0.233  0.0149  0.4186  0.1059
19149SOL    HW159121   3.041   2.450   0.137  1.6000  0.4211  0.0227
19149SOL    HW259122   3.043   2.368   0.264 -2.2296  0.4320  0.2073
19150SOL     OW59123   2.248   9.398   8.252  0.0022  0.2504  0.0820
19150SOL    HW159124   2.176   9.457   8.272 -0.5850  0.2579 -1.8043
19150SOL    HW259125   2.310   9.409   8.324 -1.6645  0.5610  1.5350
19151SOL     OW59126   1.805   1.229   7.543  0.5979  0.3296  0.1139
19151SOL    HW159127   1.889   1.267   7.569  0.4823 -0.0223  1.0589
19151SOL    HW259128   1.764   1.202   7.626 -0.4461  0.4985 -0.3297
19152SOL     OW59129   4.327   2.399   0.043  0.4865  0.1691  0.3468
19152SOL    HW159130   4.291   2.424   0.128  1.1735 -1.3716  1.1222
19152SOL    HW259131   4.376   2.476   0.014 -0.5841  1.0793  0.8405
19153SOL     OW59132   9.419   6.020   5.977  0.3562 -0.3434  0.4291
19153SOL    HW159133   9.424   6.099   5.923  0.4228 -0.5905  0.0691
19153SOL    HW259134   9.509   5.987   5.978  0.2280 -0.6967  0.1553
19154SOL     OW59135   3.699   8.778   5.268 -0.6930  0.2987  0.0559
19154SOL    HW159136   3.615   8.731   5.264  0.3191 -1.5072 -2.3099
19154SOL    HW259137   3.736   8.768   5.181  1.6496  1.7637  0.7979
19155SOL     OW59138   0.564   4.364   7.904 -0.0059  0.2354 -0.3379
19155SOL    HW159139   0.619   4.414   7.964 -1.6793 -0.4347  1.9305
19155SOL    HW259140   0.492   4.423   7.883 -0.4587 -0.1965 -0.0319
19156SOL     OW59141   0.669   5.920   2.901  0.2999  0.0063 -0.3055
19156SOL    HW159142   0.689   5.989   2.839  1.2247 -1.5585 -1.8381
19156SOL    HW259143   0.590   5.950   2.947 -0.2650  1.3198 -2.0615
19157SOL     OW59144   4.959   6.991   3.374  0.4654  0.1606  0.2376
19157SOL    HW159145   5.027   7.021   3.434  0.8494 -1.5053  0.6706
19157SOL    HW259146   4.987   7.023   3.288  1.2858  0.3152  0.5576
19158SOL     OW59147   4.603   1.470   7.113  0.5277  0.1814  0.1541
19158SOL    HW159148   4.511   1.489   7.094  0.1977 -1.1944  0.2413
19158SOL    HW259149   4.652   1.520   7.047 -0.4408 -1.5997 -2.0595
19159SOL     OW59150   6.635   7.634   2.236  0.7042  0.6467  0.1036
19159SOL    HW159151   6.588   7.701   2.187  0.5661  0.8283  0.4731
19159SOL    HW259152   6.699   7.683   2.288  0.6924  0.4804  0.2759
19160SOL     OW59153   0.898   2.666   4.009  0.0825 -0.3839 -0.2323
19160SOL    HW159154   0.961   2.653   4.080 -0.8362 -0.4018  0.6093
19160SOL    HW259155   0.831   2.599   4.024 -0.2528 -0.2183 -0.9598
19161SOL     OW59156   1.110   3.192   5.555  0.3487  0.2337 -0.0232
19161SOL    HW159157   1.119   3.113   5.502 -0.5338  1.4454 -2.0846
19161SOL    HW259158   1.165   3.258   5.512  0.8071  0.8745  1.4571
19162SOL     OW59159   6.048   6.230   4.245  0.3231 -0.1639 -0.0906
19162SOL    HW159160   6.081   6.159   4.300 -0.9056  0.8022  2.0047
19162SOL    HW259161   6.086   6.309   4.283 -1.2383  0.6015 -0.0475
19163SOL     OW59162   2.431   5.331   4.603  0.4216  0.4247  0.4532
19163SOL    HW159163   2.463   5.422   4.603  0.6387  0.3501  1.0021
19163SOL    HW259164   2.509   5.278   4.588  0.3599  0.3087  0.5395
19164SOL     OW59165   0.275   2.825   2.327 -0.5278 -0.2573 -0.0138
19164SOL    HW159166   0.218   2.808   2.401 -0.8005 -3.6137 -0.8046
19164SOL    HW259167   0.364   2.814   2.361 -0.5524  0.2322  0.2151
19165SOL     OW59168   6.039   5.406   4.996 -0.3611 -0.1230  0.3099
19165SOL    HW159169   5.999   5.368   4.918  1.0514  0.5377 -0.7713
19165SOL    HW259170   6.049   5.498   4.975 -3.1702  0.8843  2.6574
19166SOL     OW59171   5.753   8.287   9.171 -0.3174  0.5723  0.2693
19166SOL    HW159172   5.801   8.326   9.244  1.2391 -0.4527 -0.1382
19166SOL    HW259173   5.818   8.230   9.128 -1.5903  0.0540 -1.0500
19167SOL     OW59174   6.022   3.196   5.410 -0.2618 -0.3702  0.3333
19167SOL    HW159175   6.063   3.214   5.494  0.7805  0.5513 -0.3536
19167SOL    HW259176   5.954   3.131   5.430 -2.1498  2.0412  2.4343
19168SOL     OW59177   5.897   9.599   1.923 -0.1455  0.4538  0.1778
19168SOL    HW159178   5.975   9.654   1.921 -0.2825  0.6796  0.7550
19168SOL    HW259179   5.832   9.651   1.971 -0.1036 -0.4223  1.2230
19169SOL     OW59180   3.825   8.283   1.342 -0.1693 -0.2004  0.2782
19169SOL    HW159181   3.888   8.349   1.313  0.4036 -0.6539  0.4627
19169SOL    HW259182   3.848   8.266   1.434 -0.3175 -0.6455  0.2362
19170SOL     OW59183   5.384   3.601   9.293  0.0171 -0.4319 -0.5958
19170SOL    HW159184   5.411   3.670   9.352  0.9407 -1.1663 -0.1272
19170SOL    HW259185   5.448   3.603   9.222  1.6148 -2.4070  0.6901
19171SOL     OW59186   3.730   4.036   8.275 -0.1520 -0.4051  0.1460
19171SOL    HW159187   3.726   4.130   8.293  1.5413 -0.4213  0.8290
19171SOL    HW259188   3.724   4.030   8.180  0.5476  0.4732  0.0303
19172SOL     OW59189   2.123   2.279   9.081  0.3797  0.0797  0.0179
19172SOL    HW159190   2.201   2.334   9.091  1.2357 -1.2441  1.2923
19172SOL    HW259191   2.050   2.340   9.082  1.2690  1.2221  1.4837
19173SOL     OW59192   2.495   8.031   1.175  0.7045 -0.5111 -0.0226
19173SOL    HW159193   2.530   7.946   1.149 -0.1444 -0.8187 -0.1795
19173SOL    HW259194   2.418   8.044   1.120 -0.5773 -0.7431  1.6264
19174SOL     OW59195   1.392   2.324   8.042 -0.1527  0.8579 -0.2424
19174SOL    HW159196   1.323   2.295   7.981 -0.5285 -2.2006  1.4461
19174SOL    HW259197   1.381   2.420   8.046 -5.0088  0.5470  0.6360
19175SOL     OW59198   5.564   5.523   2.703 -0.6535 -0.1808  0.5920
19175SOL    HW159199   5.505   5.502   2.631  0.4290 -0.6427 -0.1895
19175SOL    HW259200   5.651   5.498   2.671  0.3101  2.6057  0.8037
19176SOL     OW59201   4.907   8.892   3.494  0.9097 -0.7400 -0.2784
19176SOL    HW159202   4.952   8.915   3.575 -0.8331 -2.0063  1.1272
19176SOL    HW259203   4.836   8.956   3.487  1.1171 -0.5687 -0.8930
19177SOL     OW59204   0.948   7.795   4.250 -0.2952  0.2213 -0.3507
19177SOL    HW159205   0.863   7.838   4.243 -0.5690 -0.2090  0.1787
19177SOL    HW259206   1.012   7.866   4.248 -0.7452  0.6708  0.6102
19178SOL     OW59207   7.076   4.546   3.639 -0.7957 -0.5643  0.2271
19178SOL    HW159208   7.007   4.503   3.689 -1.1900  1.2130  1.3151
19178SOL    HW259209   7.123   4.599   3.704  0.4913 -0.3900 -0.8065
19179SOL     OW59210   8.948   3.918   6.623  0.6237 -0.1732  0.3360
19179SOL    HW159211   8.940   3.863   6.701 -0.0586 -1.5262 -0.6453
19179SOL    HW259212   9.038   3.950   6.626  0.4922  0.1247  1.8689
19180SOL     OW59213   4.470   1.797   9.114 -0.0452  0.0532  0.3774
19180SOL    HW159214   4.503   1.883   9.141  1.3510 -0.5100  0.5633
19180SOL    HW259215   4.411   1.815   9.041  1.3644  1.0829 -0.5596
19181SOL     OW59216   4.866   8.411   9.663 -0.0166 -0.0036 -0.2955
19181SOL    HW159217   4.952   8.380   9.689 -0.5179 -1.1204  0.1377
19181SOL    HW259218   4.805   8.357   9.713 -0.9721  0.1440 -1.2505
19182SOL     OW59219   5.168   4.814   1.872 -0.2788  0.0059 -0.0834
19182SOL    HW159220   5.146   4.746   1.935  0.2290  0.5904  0.7477
19182SOL    HW259221   5.244   4.779   1.825 -0.7731 -0.5089 -0.5057
19183SOL     OW59222   6.114   6.303   5.546 -0.4549  0.1167 -0.1105
19183SOL    HW159223   6.152   6.215   5.553 -0.8242  0.0605  2.8650
19183SOL    HW259224   6.021   6.288   5.532 -0.0930  0.2014 -3.4281
19184SOL     OW59225   0.976   1.567   2.051 -0.1506  0.0309 -0.1658
19184SOL    HW159226   1.009   1.652   2.078 -0.7103  0.2774 -0.2390
19184SOL    HW259227   1.054   1.511   2.045  0.1667  0.4078  0.3449
19185SOL     OW59228   1.002   6.585   5.346  0.4011 -0.0990 -0.2553
19185SOL    HW159229   1.068   6.520   5.325 -0.3643 -0.6928 -0.8742
19185SOL    HW259230   1.042   6.669   5.323  0.5940 -0.5212 -1.5468
19186SOL     OW59231   3.429   6.102   8.230  0.1435  0.4493  0.3069
19186SOL    HW159232   3.360   6.035   8.231  1.6161 -1.1684  0.0091
19186SOL    HW259233   3.410   6.157   8.306 -1.0224 -0.4472  0.6960
19187SOL     OW59234   3.919   2.226   4.764  0.3056 -0.0235  0.4452
19187SOL    HW159235   3.833   2.251   4.798  0.6185 -0.7153  1.8198
19187SOL    HW259236   3.973   2.304   4.776  0.2194 -0.0264  0.8968
19188SOL     OW59237   8.088   3.632   4.598 -0.2556  0.8111 -0.8904
19188SOL    HW159238   8.017   3.635   4.535 -1.8365  1.6279  0.8421
19188SOL    HW259239   8.141   3.556   4.571 -2.3311 -0.4352 -1.6679
19189SOL     OW59240   8.557   4.403   8.028 -0.0425 -0.0983 -0.1781
19189SOL    HW159241   8.564   4.442   7.940 -0.4350  0.2732 -0.0496
19189SOL    HW259242   8.606   4.463   8.084  1.3726 -1.0507 -0.3445
19190SOL     OW59243   8.015   9.545   8.458  0.2320  0.2346 -0.1972
19190SOL    HW159244   7.969   9.501   8.386 -0.0520  1.0241 -0.5142
19190SOL    HW259245   7.956   9.537   8.533  0.2216 -0.0036 -0.2306
19191SOL     OW59246   8.435   5.882   1.258 -0.1604  0.1302  0.0620
19191SOL    HW159247   8.493   5.919   1.191 -0.6701  0.4027 -0.2388
19191SOL    HW259248   8.376   5.825   1.209 -0.0273 -0.2968  0.3916
19192SOL     OW59249   1.785   3.004   7.233  0.6861 -0.2030  0.1156
19192SOL    HW159250   1.831   2.933   7.277 -2.1492 -1.3219  1.5651
19192SOL    HW259251   1.702   2.966   7.205 -1.7801  2.7636  2.5267
19193SOL     OW59252   0.901   0.875   1.856  0.0106 -0.3466 -0.1246
19193SOL    HW159253   0.885   0.783   1.837  0.7979 -0.1293 -2.0937
19193SOL    HW259254   0.830   0.921   1.811  0.9969  0.1030 -1.2868
19194SOL     OW59255   6.131   0.975   3.784  0.3937  0.0545 -1.2030
19194SOL    HW159256   6.181   0.928   3.850 -0.4335  1.8384  0.7841
19194SOL    HW259257   6.161   0.938   3.701  0.5633 -3.1863  0.1339
19195SOL     OW59258   3.971   3.249   0.516  0.0694  0.0791 -0.2221
19195SOL    HW159259   3.918   3.194   0.458  1.0227  0.8978 -1.9711
19195SOL    HW259260   4.011   3.188   0.578 -0.1722 -0.9905 -1.0859
19196SOL     OW59261   7.511   8.044   4.113 -0.2373 -0.0178  0.3724
19196SOL    HW159262   7.523   7.986   4.038 -1.4558 -0.6880  0.6719
19196SOL    HW259263   7.559   8.123   4.090 -2.7108  0.8802 -2.3825
19197SOL     OW59264   4.631   3.715   2.696 -0.2968  0.2419  0.6842
19197SOL    HW159265   4.683   3.712   2.777 -0.7540 -0.4815  0.9668
19197SOL    HW259266   4.688   3.758   2.632  0.8306 -0.9159  0.8633
19198SOL     OW59267   5.231   1.529   4.165  0.5533 -0.6001 -0.2415
19198SOL    HW159268   5.283   1.545   4.086  0.9161  1.9403  0.4271
19198SOL    HW259269   5.150   1.579   4.152  1.6641  2.0337  1.9334
19199SOL     OW59270   1.881   0.111   7.995  0.3910  0.4066  0.2816
19199SOL    HW159271   1.911   0.061   7.919 -0.0251  0.1274  0.2996
19199SOL    HW259272   1.945   0.092   8.064  0.1395 -0.2406  0.3385
19200SOL     OW59273   3.432   7.714   1.031 -0.1178  0.0236  0.5483
19200SOL    HW159274   3.499   7.708   1.099 -0.6722  0.3859  1.1338
19200SOL    HW259275   3.350   7.722   1.078 -0.8497 -2.5919 -0.1426
19201SOL     OW59276   3.845   3.135   4.572  0.1712 -0.0506  0.0232
19201SOL    HW159277   3.764   3.167   4.611  0.2635 -0.3463  0.4677
19201SOL    HW259278   3.908   3.136   4.644  0.6982  0.6408 -0.4368
19202SOL     OW59279   6.055   0.617   3.058 -0.4583 -0.4227  0.0711
19202SOL    HW159280   6.142   0.640   3.023 -1.5292  1.8828 -1.2747
19202SOL    HW259281   5.994   0.665   3.002 -2.4778  0.6810  3.0232
19203SOL     OW59282   5.798   0.512   5.480 -0.3036  0.3766  0.3099
19203SOL    HW159283   5.832   0.460   5.553  1.2610  1.3397  0.3202
19203SOL    HW259284   5.876   0.551   5.440 -1.2672  1.1756 -0.8641
19204SOL     OW59285   7.248   1.436   7.009 -0.1902  0.0932  0.0184
19204SOL    HW159286   7.310   1.506   7.026  0.8998 -1.2338  1.8650
19204SOL    HW259287   7.272   1.402   6.923  1.0706  0.1724  0.3292
19205SOL     OW59288   2.602   5.262   7.142 -0.8740 -0.6561 -0.5480
19205SOL    HW159289   2.672   5.196   7.132 -0.0915 -0.0271  0.5898
19205SOL    HW259290   2.535   5.218   7.194 -0.7503 -0.8335 -0.5360
19206SOL     OW59291   1.656   4.839   4.561 -0.3738 -0.7690  0.2782
19206SOL    HW159292   1.643   4.821   4.468 -1.2794 -1.5037  0.5222
19206SOL    HW259293   1.745   4.808   4.579 -0.0860 -0.3576 -0.3936
19207SOL     OW59294   2.554   5.959   3.699 -0.5613 -0.5148 -0.3659
19207SOL    HW159295   2.622   5.961   3.766 -0.1331 -0.6961 -0.7875
19207SOL    HW259296   2.595   5.916   3.624 -1.1961 -0.7784 -0.5697
19208SOL     OW59297   5.915   1.372   5.521  0.4855 -0.0873  0.1303
19208SOL    HW159298   5.960   1.450   5.553  0.7952 -0.6100  1.0092
19208SOL    HW259299   5.839   1.406   5.474  1.2365  0.7735 -0.4981
19209SOL     OW59300   3.127   1.240   2.533 -0.2077  0.2579  0.5391
19209SOL    HW159301   3.056   1.287   2.489  1.0631  1.0409 -0.7534
19209SOL    HW259302   3.147   1.166   2.475  0.8824  0.7789  0.2282
19210SOL     OW59303   7.930   9.415   5.384  0.1448  0.2158  0.2162
19210SOL    HW159304   7.949   9.501   5.422  0.5795  0.4014 -0.4172
19210SOL    HW259305   7.865   9.433   5.316  0.4997  0.0868 -0.1542
19211SOL     OW59306   8.251   1.033   4.260 -0.0404 -0.4797  0.2483
19211SOL    HW159307   8.269   1.069   4.346 -4.0114  0.9902  0.6740
19211SOL    HW259308   8.259   0.938   4.271 -0.5630 -0.3293  2.2658
19212SOL     OW59309   1.471   1.198   8.666 -0.1644  0.2226 -0.0699
19212SOL    HW159310   1.519   1.168   8.589  1.7279 -0.5582  1.3318
19212SOL    HW259311   1.529   1.263   8.707 -0.8078  0.1074  1.0779
19213SOL     OW59312   0.361   4.925   8.722  1.0883 -0.5937 -0.0202
19213SOL    HW159313   0.441   4.974   8.705  1.5126 -0.6666  1.6327
19213SOL    HW259314   0.388   4.833   8.721  0.6617 -0.7316 -1.1817
19214SOL     OW59315   9.078   6.386   0.502 -0.4884 -0.0255  0.2647
19214SOL    HW159316   9.050   6.463   0.453 -1.2332 -0.7358 -0.4570
19214SOL    HW259317   9.115   6.421   0.583 -0.6435  1.0935 -0.1356
19215SOL     OW59318   5.296   0.764   2.402 -0.1155 -0.1380 -0.1678
19215SOL    HW159319   5.284   0.726   2.315  1.7529 -0.6603 -0.2485
19215SOL    HW259320   5.213   0.808   2.422 -0.0982  1.2579 -2.8183
19216SOL     OW59321   6.714   8.791   9.032  0.5442  0.4994 -0.3162
19216SOL    HW159322   6.668   8.849   8.972  0.0626  0.4248 -0.0269
19216SOL    HW259323   6.653   8.719   9.048  0.6794  0.5007  0.2360
19217SOL     OW59324   7.087   0.427   2.581  0.2938  0.0220 -0.1996
19217SOL    HW159325   7.167   0.376   2.595  0.6095  0.0251 -1.7965
19217SOL    HW259326   7.118   0.512   2.549 -0.3464 -0.2949 -1.7286
19218SOL     OW59327   0.604   5.216   9.097  0.2644  0.1172  0.0924
19218SOL    HW159328   0.678   5.170   9.057  1.2702  0.2725  1.7088
19218SOL    HW259329   0.531   5.201   9.036  0.9316 -2.2832 -0.2062
19219SOL     OW59330   3.890   6.751   0.178  0.2948  0.3307  0.1532
19219SOL    HW159331   3.803   6.789   0.185  0.5703  0.6896  2.5864
19219SOL    HW259332   3.934   6.803   0.111 -1.0539  0.7292 -0.4531
19220SOL     OW59333   4.761   7.362   0.679 -0.2575 -0.1051  0.4891
19220SOL    HW159334   4.808   7.428   0.629 -1.2103 -1.1341 -1.9543
19220SOL    HW259335   4.829   7.302   0.711  0.3152 -0.1559 -0.7763
19221SOL     OW59336   8.173   8.865   8.419  0.0476 -0.2032 -0.5191
19221SOL    HW159337   8.129   8.792   8.462  1.2775 -0.4692  0.3442
19221SOL    HW259338   8.162   8.938   8.480  1.9638 -0.6296  0.3907
19222SOL     OW59339   6.490   3.703   6.893  0.5320  0.1674 -0.1428
19222SOL    HW159340   6.556   3.739   6.834  1.3353  0.8258  1.1111
19222SOL    HW259341   6.421   3.770   6.896  0.7289  0.3612  0.0598
19223SOL     OW59342   0.907   6.082   5.175 -0.5136 -0.4264  0.0671
19223SOL    HW159343   0.953   6.159   5.210 -1.0513  0.7852 -1.7594
19223SOL    HW259344   0.977   6.028   5.138 -0.1218 -0.9067  1.4399
19224SOL     OW59345   2.835   8.800   6.489  0.3372 -0.2996  0.1266
19224SOL    HW159346   2.796   8.767   6.570 -2.6370  0.2840 -0.9433
19224SOL    HW259347   2.834   8.895   6.498 -1.0223 -0.1808 -0.9622
19225SOL     OW59348   2.153   7.054   0.136  0.0594  0.0326  0.2975
19225SOL    HW159349   2.103   7.065   0.217  0.3317 -1.6502  0.7368
19225SOL    HW259350   2.185   6.964   0.140  1.4318  0.4307 -0.9318
19226SOL     OW59351   5.021   5.839   1.701 -0.0659  0.0424 -0.4662
19226SOL    HW159352   5.027   5.855   1.607  0.6991  0.7105 -0.3197
19226SOL    HW259353   5.103   5.875   1.736 -0.0891 -0.7007  0.3860
19227SOL     OW59354   8.970   8.524   2.227  0.2682 -0.5214  0.3984
19227SOL    HW159355   8.909   8.492   2.293  1.0716 -0.8188  1.0136
19227SOL    HW259356   8.924   8.511   2.144 -0.0933 -1.7324  0.7601
19228SOL     OW59357   1.967   6.460   7.174  0.4271 -0.2430  0.2910
19228SOL    HW159358   1.994   6.536   7.227  2.4412  0.4352 -1.5269
19228SOL    HW259359   1.876   6.478   7.151  1.3668  2.7327 -1.7000
19229SOL     OW59360   7.225   3.987   2.204 -0.5810  0.6580 -0.0327
19229SOL    HW159361   7.241   3.991   2.298 -1.6277 -0.3926  0.2165
19229SOL    HW259362   7.163   3.914   2.193  0.9536 -0.4793 -1.7330
19230SOL     OW59363   6.015   5.799   5.963 -0.4574 -0.3706  0.4739
19230SOL    HW159364   5.957   5.864   5.924  0.0947  1.2862  2.2624
19230SOL    HW259365   5.968   5.767   6.040 -0.5236 -1.8104 -0.1200
19231SOL     OW59366   1.817   0.814   6.506  0.0225 -0.2852 -0.3313
19231SOL    HW159367   1.874   0.784   6.577 -0.6312 -0.9537 -0.0737
19231SOL    HW259368   1.869   0.880   6.459  0.0418  1.0481  1.4680
19232SOL     OW59369   3.687   2.012   2.864  0.6514 -0.5159  0.2222
19232SOL    HW159370   3.592   2.004   2.876  0.3191  0.4258 -1.5346
19232SOL    HW259371   3.720   2.027   2.953 -0.8048 -1.0506  0.8988
19233SOL     OW59372   2.861   9.381   2.544 -0.4411 -0.2004 -0.2406
19233SOL    HW159373   2.784   9.337   2.581 -0.8737 -0.7535 -1.7302
19233SOL    HW259374   2.916   9.309   2.513  1.0543  0.1508  1.4351
19234SOL     OW59375   7.211   5.032   3.251 -0.3921  0.0317  0.2714
19234SOL    HW159376   7.251   5.089   3.185 -1.3177  0.5470  0.1430
19234SOL    HW259377   7.195   5.089   3.326 -1.7028  0.0577 -0.0040
19235SOL     OW59378   4.734   1.535   1.517 -0.2201  0.4346 -0.0002
19235SOL    HW159379   4.702   1.596   1.584 -1.3702  1.0408 -1.0634
19235SOL    HW259380   4.682   1.456   1.530 -1.2250  0.9359 -0.8471
19236SOL     OW59381   8.316   9.493   3.185  0.2469  0.0969  0.4422
19236SOL    HW159382   8.337   9.405   3.153  1.4683  0.5110  0.0221
19236SOL    HW259383   8.221   9.493   3.195 -0.1991 -0.2171 -2.7714
19237SOL     OW59384   3.139   0.584   8.404  0.7978 -0.2745 -0.3875
19237SOL    HW159385   3.127   0.618   8.493 -0.1993  0.3396 -0.7388
19237SOL    HW259386   3.210   0.636   8.367  0.4447  0.2519 -0.3302
19238SOL     OW59387   8.839   5.507   1.747 -0.0657 -0.4045 -0.0786
19238SOL    HW159388   8.882   5.430   1.784  0.2244  0.8228  2.3696
19238SOL    HW259389   8.746   5.494   1.765 -0.0340 -0.2588  0.1909
19239SOL     OW59390   8.899   7.595   0.473 -0.5212 -0.0877  0.0422
19239SOL    HW159391   8.896   7.686   0.502  0.1590  0.0016 -0.1412
19239SOL    HW259392   8.828   7.587   0.409 -0.2966  0.4351 -0.2807
19240SOL     OW59393   6.899   7.665   6.452  0.2558  0.4335 -0.2180
19240SOL    HW159394   6.806   7.672   6.475  0.1249 -1.8545  0.1759
19240SOL    HW259395   6.900   7.659   6.356 -0.0062  0.3048 -0.2117
19241SOL     OW59396   7.959   6.227   2.508  0.6933 -0.7096 -0.7087
19241SOL    HW159397   7.955   6.232   2.604  2.3195  2.3377 -0.6875
19241SOL    HW259398   8.050   6.203   2.490  0.2271 -1.9579 -1.5624
19242SOL     OW59399   1.546   1.296   1.984 -0.3963 -0.3236  0.5562
19242SOL    HW159400   1.608   1.349   2.036 -0.3508 -0.3860  0.5659
19242SOL    HW259401   1.478   1.358   1.958  0.2722  0.0087 -0.4463
19243SOL     OW59402   6.556   9.107   2.829 -0.2452  0.0132  0.3818
19243SOL    HW159403   6.492   9.121   2.759  0.0914  1.4542  0.3377
19243SOL    HW259404   6.503   9.078   2.904 -0.6192 -1.4534 -0.3937
19244SOL     OW59405   6.793   9.210   3.606  0.3411 -0.0389  0.4400
19244SOL    HW159406   6.726   9.272   3.636  0.2641 -0.6812  1.6507
19244SOL    HW259407   6.776   9.130   3.655  2.8961  0.2294  1.9051
19245SOL     OW59408   3.575   6.289   3.463  0.7508 -0.0582  0.0098
19245SOL    HW159409   3.630   6.291   3.542  1.0776 -0.2535 -0.2092
19245SOL    HW259410   3.500   6.344   3.484  2.4931  2.8053 -0.7750
19246SOL     OW59411   9.668   6.809   5.276 -0.5128 -0.1249  0.2840
19246SOL    HW159412   9.759   6.832   5.292 -0.2923 -0.4379 -0.5038
19246SOL    HW259413   9.671   6.717   5.249 -0.7718  0.5396 -2.2567
19247SOL     OW59414   1.127   1.166   3.168 -0.3535  0.1674  0.1289
19247SOL    HW159415   1.147   1.206   3.083 -0.2182 -0.6283 -0.2193
19247SOL    HW259416   1.032   1.155   3.167 -0.9163  3.5033  1.5890
19248SOL     OW59417   3.809   9.465   7.943 -0.2825  0.3069 -0.7151
19248SOL    HW159418   3.900   9.480   7.966  0.1532 -1.8588 -0.7553
19248SOL    HW259419   3.765   9.453   8.027 -0.4369  0.8861 -0.7120
19249SOL     OW59420   7.419   9.403   0.363 -0.0355 -0.3447  0.2198
19249SOL    HW159421   7.425   9.312   0.392  0.6391 -0.8357 -1.3870
19249SOL    HW259422   7.394   9.398   0.271  0.6539  1.0770 -0.0754
19250SOL     OW59423   4.952   1.046   3.187 -0.1018  0.3353  0.3866
19250SOL    HW159424   4.927   1.138   3.180 -1.4157 -0.0942 -1.2758
19250SOL    HW259425   5.036   1.040   3.142 -0.2451  0.6278  0.0791
19251SOL     OW59426   7.492   7.328   4.280 -0.3238  0.0450  0.4753
19251SOL    HW159427   7.420   7.283   4.324 -0.9134  0.6556  0.1488
19251SOL    HW259428   7.524   7.265   4.215 -0.2521 -0.4010  0.9386
19252SOL     OW59429   7.356   4.030   1.439  0.3684  0.0667 -0.2826
19252SOL    HW159430   7.362   4.039   1.534 -0.1173 -0.6604 -0.1770
19252SOL    HW259431   7.444   4.005   1.411  0.8486  1.5428 -0.1848
19253SOL     OW59432   7.040   4.238   7.481  0.1520 -0.3855  0.2598
19253SOL    HW159433   7.086   4.167   7.437 -1.2668 -1.1340 -0.0531
19253SOL    HW259434   7.054   4.314   7.425 -0.7310 -1.0846 -0.9394
19254SOL     OW59435   1.533   3.191   7.704 -0.2442  0.1991  0.1346
19254SOL    HW159436   1.492   3.195   7.618 -0.1883  0.4829  0.1216
19254SOL    HW259437   1.463   3.164   7.763 -0.4956  0.8538  0.1427
19255SOL     OW59438   3.797   0.113   8.829 -0.4386  0.1235  0.0180
19255SOL    HW159439   3.798   0.132   8.736 -2.6151  0.1463 -0.0653
19255SOL    HW259440   3.780   0.019   8.834 -1.5313  0.3114  0.3346
19256SOL     OW59441   0.812   4.141   4.348 -0.7029 -0.0742 -0.2549
19256SOL    HW159442   0.746   4.187   4.295  0.1575  0.2325 -1.0912
19256SOL    HW259443   0.867   4.097   4.284  0.9229  1.0443  0.3207
19257SOL     OW59444   6.001   0.502   9.596  0.0660 -0.2076  0.7089
19257SOL    HW159445   6.032   0.550   9.672  1.0467 -0.1544  0.2791
19257SOL    HW259446   5.907   0.520   9.593  0.1130  0.2127  1.5952
19258SOL     OW59447   1.003   3.208   0.365 -0.1889 -0.0238 -0.3697
19258SOL    HW159448   1.094   3.236   0.363 -0.1551  0.3543  2.5341
19258SOL    HW259449   0.995   3.156   0.445 -2.3669 -0.6598 -0.9230
19259SOL     OW59450   9.297   5.460   9.135 -0.3364 -0.4168  0.4192
19259SOL    HW159451   9.309   5.432   9.225 -1.9986  0.4081  0.9426
19259SOL    HW259452   9.231   5.400   9.100 -1.3577  0.6428  0.4751
19260SOL     OW59453   7.436   3.078   6.045 -0.0540 -0.1067 -0.3757
19260SOL    HW159454   7.517   3.124   6.066  0.2128 -1.1083  0.9762
19260SOL    HW259455   7.389   3.074   6.129  0.2615 -2.8401 -0.2167
19261SOL     OW59456   3.096   0.656   6.084  0.0009 -0.4488 -0.0088
19261SOL    HW159457   3.187   0.626   6.088  0.4097  0.8320  1.1166
19261SOL    HW259458   3.053   0.614   6.158 -0.0131 -0.1139  0.1759
19262SOL     OW59459   5.775   8.283   7.214  0.0397  0.5629  0.2251
19262SOL    HW159460   5.768   8.336   7.293 -1.4972  0.3173  0.2819
19262SOL    HW259461   5.765   8.193   7.244 -1.7097  0.5389 -0.3488
19263SOL     OW59462   8.342   8.474   6.631  0.2031 -0.4236 -0.1207
19263SOL    HW159463   8.305   8.447   6.547 -0.4440 -1.7551  0.5576
19263SOL    HW259464   8.335   8.396   6.686  0.0654  0.5982  1.3600
19264SOL     OW59465   1.299   3.306   4.034 -0.0773 -0.2670 -0.2012
19264SOL    HW159466   1.328   3.327   4.123 -0.5029  0.6812 -0.2751
19264SOL    HW259467   1.229   3.370   4.016  0.0751 -0.3832 -1.2471
19265SOL     OW59468   1.496   7.975   4.266  0.0053 -0.2934  0.0163
19265SOL    HW159469   1.549   7.917   4.321 -0.7917 -0.7855  0.2722
19265SOL    HW259470   1.490   7.930   4.182  3.1292  1.4800 -1.3131
19266SOL     OW59471   6.847   3.138   5.028 -0.0142 -0.2159  0.4076
19266SOL    HW159472   6.821   3.060   4.979  1.1267  0.3761 -1.2116
19266SOL    HW259473   6.766   3.187   5.041 -0.5321 -1.0127  0.2636
19267SOL     OW59474   5.551   1.240   7.368  0.1116 -0.3511  0.6515
19267SOL    HW159475   5.565   1.329   7.338  0.7549 -0.7707 -0.3271
19267SOL    HW259476   5.458   1.224   7.352  0.5037 -0.7074 -1.6016
19268SOL     OW59477   1.866   6.232   5.496  0.5579 -0.0448 -0.2974
19268SOL    HW159478   1.961   6.239   5.504  0.6949  0.0106 -1.6190
19268SOL    HW259479   1.853   6.184   5.414 -0.5554 -0.1850 -0.0585
19269SOL     OW59480   6.175   6.238   2.093 -0.6757 -0.2775 -0.3856
19269SOL    HW159481   6.207   6.190   2.170  0.8849 -0.0675 -0.8747
19269SOL    HW259482   6.254   6.268   2.049 -1.5644  1.9729 -0.5985
19270SOL     OW59483   3.689   9.628   4.750  0.3550  0.2720 -0.6529
19270SOL    HW159484   3.649   9.554   4.704 -0.2889  0.1526  0.0911
19270SOL    HW259485   3.687   9.700   4.687  0.5751 -0.2138 -1.2240
19271SOL     OW59486   0.023   6.219   9.507 -0.1413 -0.1560 -0.0407
19271SOL    HW159487   0.092   6.277   9.475 -0.8356  1.2538  0.9240
19271SOL    HW259488   0.002   6.253   9.594  0.0291 -2.4005  0.9477
19272SOL     OW59489   1.872   6.445   0.742 -0.1645 -0.3622  0.1163
19272SOL    HW159490   1.900   6.406   0.659  1.3163  0.1214  0.3455
19272SOL    HW259491   1.778   6.430   0.746 -0.0130 -1.7829 -0.9074
19273SOL     OW59492   5.475   8.531   0.804  0.0886 -0.7005  0.2969
19273SOL    HW159493   5.497   8.452   0.755  1.3587  1.4038 -2.8425
19273SOL    HW259494   5.385   8.552   0.778  1.0179  0.8327 -1.9448
19274SOL     OW59495   4.497   3.799   6.689  0.1322  0.0560  0.5028
19274SOL    HW159496   4.416   3.826   6.646  0.4495  0.6829  0.2800
19274SOL    HW259497   4.554   3.769   6.618 -0.2466 -1.3117  0.7617
19275SOL     OW59498   3.922   0.692   0.940  0.3310 -0.3730 -0.2849
19275SOL    HW159499   3.913   0.737   1.024 -0.7213  0.1624 -0.6746
19275SOL    HW259500   3.956   0.605   0.964  2.6953  0.6903  0.4346
19276SOL     OW59501   4.594   2.322   1.566 -0.0445  0.4189 -0.0597
19276SOL    HW159502   4.532   2.257   1.599  1.2773  0.1431  2.0571
19276SOL    HW259503   4.672   2.311   1.620  1.0486  2.2589 -1.1492
19277SOL     OW59504   7.228   7.764   2.599 -0.3477 -0.0954  0.3191
19277SOL    HW159505   7.275   7.687   2.632  0.8622  0.6918  0.4974
19277SOL    HW259506   7.291   7.809   2.543 -1.8050 -0.4550 -1.7282
19278SOL     OW59507   9.305   0.946   1.415  0.0075  0.6442  0.5641
19278SOL    HW159508   9.311   1.042   1.416 -0.6854  0.7116  2.2306
19278SOL    HW259509   9.247   0.925   1.488 -0.1939 -1.0433 -0.0325
19279SOL     OW59510   9.615   7.150   4.565  0.2580 -0.7859 -0.5006
19279SOL    HW159511   9.700   7.109   4.582 -0.5288 -1.1573  3.4060
19279SOL    HW259512   9.552   7.078   4.570 -0.8417  0.1957  3.5233
19280SOL     OW59513   0.036   5.505   7.388 -0.0293  0.1088  0.2127
19280SOL    HW159514   0.084   5.497   7.306  2.0695 -0.7514  1.4669
19280SOL    HW259515   0.034   5.599   7.405  1.1416  0.1676  0.0851
19281SOL     OW59516   9.534   2.215   2.220 -0.3472 -0.7516  0.3501
19281SOL    HW159517   9.607   2.272   2.245 -2.0089  2.0867 -0.7381
19281SOL    HW259518   9.535   2.144   2.284  1.2637  1.0655  2.4771
19282SOL     OW59519   3.345   0.243   3.939 -0.0208 -0.3655  0.3492
19282SOL    HW159520   3.367   0.331   3.909 -0.0881 -0.0791  1.1341
19282SOL    HW259521   3.282   0.211   3.875  1.2048 -0.4669 -0.8569
19283SOL     OW59522   9.592   5.016   6.318  0.0064 -0.5662 -0.0397
19283SOL    HW159523   9.547   4.934   6.299  0.3977 -0.8390  0.1985
19283SOL    HW259524   9.601   5.017   6.413 -0.2221 -0.1264 -0.0195
19284SOL     OW59525   4.805   8.889   9.120 -0.2749  0.6790  0.0282
19284SOL    HW159526   4.771   8.863   9.035 -1.4977 -0.0457  0.7144
19284SOL    HW259527   4.767   8.976   9.136  0.0201  0.8507 -0.1854
19285SOL     OW59528   2.350   4.547   8.136 -0.1051  0.8208  0.4839
19285SOL    HW159529   2.399   4.544   8.219  0.5594 -1.6167  0.0864
19285SOL    HW259530   2.258   4.540   8.162 -0.0242  1.6884  1.0586
19286SOL     OW59531   6.480   8.760   1.775 -0.7126  0.1707  0.0417
19286SOL    HW159532   6.462   8.853   1.758  0.4153  0.3315 -0.4165
19286SOL    HW259533   6.538   8.760   1.851  1.4938  0.0823 -1.5247
19287SOL     OW59534   1.900   8.802   9.523  0.6090 -0.0278 -0.3090
19287SOL    HW159535   1.830   8.855   9.485  1.3118 -0.2914 -2.0790
19287SOL    HW259536   1.855   8.735   9.575 -0.4324 -0.0644 -1.2271
19288SOL     OW59537   6.493   5.275   2.194  0.1882 -0.3953  0.1302
19288SOL    HW159538   6.569   5.328   2.218  1.0976 -1.7493  0.3690
19288SOL    HW259539   6.485   5.212   2.266  0.7596 -2.2376 -1.3179
19289SOL     OW59540   0.941   0.068   3.275  0.2356 -0.0427 -0.5578
19289SOL    HW159541   0.965   0.010   3.348 -1.5886 -0.0030  0.1409
19289SOL    HW259542   0.912   0.149   3.318  0.3291  0.4482 -1.4002
19290SOL     OW59543   8.247   5.382   6.804 -0.5815  0.2277  0.5724
19290SOL    HW159544   8.244   5.453   6.740 -0.8118 -0.0991  0.2163
19290SOL    HW259545   8.169   5.330   6.786  0.1913 -0.7962  0.0345
19291SOL     OW59546   4.913   4.971   0.236  0.1114  0.0671  0.5353
19291SOL    HW159547   4.841   4.922   0.195  1.5917 -0.9339 -1.0335
19291SOL    HW259548   4.873   5.014   0.311 -2.0196 -0.8154 -0.0075
19292SOL     OW59549   4.754   9.310   0.397  0.3119  0.4365 -0.0962
19292SOL    HW159550   4.754   9.215   0.410 -1.1396  0.4085 -0.1732
19292SOL    HW259551   4.664   9.337   0.416  0.1124  1.4918 -2.2392
19293SOL     OW59552   7.786   3.492   2.463  0.4616  0.3360  0.4375
19293SOL    HW159553   7.803   3.546   2.387  0.8665  1.2054  1.1287
19293SOL    HW259554   7.823   3.541   2.537 -1.2411  0.2563  1.4042
19294SOL     OW59555   8.582   0.539   0.902  0.3746 -0.1806  0.0529
19294SOL    HW159556   8.515   0.554   0.968  0.7912  1.3973  0.1535
19294SOL    HW259557   8.657   0.506   0.951  0.0304 -0.9521  0.0755
19295SOL     OW59558   5.138   7.687   2.804  0.1229  0.2983 -0.5095
19295SOL    HW159559   5.161   7.608   2.755  0.4136 -0.4342  0.7740
19295SOL    HW259560   5.079   7.735   2.745 -1.1741 -1.5256 -0.7734
19296SOL     OW59561   7.831   3.910   9.462  0.0374  0.0450  0.4281
19296SOL    HW159562   7.873   3.829   9.490 -1.3599 -0.4906  1.0700
19296SOL    HW259563   7.803   3.952   9.544  1.0884  1.3976  0.1377
19297SOL     OW59564   6.025   1.028   6.646  0.3403  0.0886  0.1561
19297SOL    HW159565   6.111   1.068   6.653  0.7553 -0.8123  0.3173
19297SOL    HW259566   5.968   1.085   6.699  0.8988  0.4956  0.3290
19298SOL     OW59567   9.361   0.256   1.193  0.0379  0.0198 -0.8334
19298SOL    HW159568   9.367   0.351   1.205 -1.7254  0.7610 -4.4191
19298SOL    HW259569   9.425   0.236   1.125  0.5425 -1.4634  0.0244
19299SOL     OW59570   5.045   6.337   2.707  0.3079 -0.1851  0.4508
19299SOL    HW159571   5.057   6.380   2.792 -0.5822 -2.7586  2.0013
19299SOL    HW259572   5.060   6.244   2.725 -1.4188 -1.0168 -1.8729
19300SOL     OW59573   5.080   4.697   8.928 -0.0766  0.6059 -0.2280
19300SOL    HW159574   5.098   4.788   8.953 -0.6745  0.9671 -1.0483
19300SOL    HW259575   5.051   4.703   8.837  1.3713 -0.5738 -0.8075
19301SOL     OW59576   2.914   1.771   7.625 -0.6708 -0.0817  0.4995
19301SOL    HW159577   2.856   1.731   7.690  0.4602 -1.4644  0.7257
19301SOL    HW259578   2.914   1.709   7.552 -0.2064  0.3589  0.1178
19302SOL     OW59579   1.403   4.986   8.364  0.3108 -0.2427  0.1390
19302SOL    HW159580   1.375   5.077   8.355 -0.9184 -0.6322 -0.0610
19302SOL    HW259581   1.365   4.958   8.447  2.3523  0.0003  1.2141
19303SOL     OW59582   9.540   0.953   5.651 -0.2527 -0.9009 -0.1518
19303SOL    HW159583   9.629   0.918   5.657  0.1816  0.3681  1.1894
19303SOL    HW259584   9.497   0.923   5.731  0.3043  1.9539  1.3465
19304SOL     OW59585   9.670   4.960   5.190  0.0184 -0.8149  0.3628
19304SOL    HW159586   9.745   4.904   5.168 -0.3131 -1.0089 -0.3128
19304SOL    HW259587   9.641   4.928   5.275  1.3844 -0.0009  1.1690
19305SOL     OW59588   5.814   5.381   5.365  0.6057 -0.2838  0.3144
19305SOL    HW159589   5.742   5.380   5.303 -0.5169 -1.7241  1.5493
19305SOL    HW259590   5.869   5.306   5.341  2.5266  1.5568 -1.4421
19306SOL     OW59591   5.501   7.288   4.653 -0.0973 -0.2654 -0.0702
19306SOL    HW159592   5.409   7.281   4.629 -0.1358 -2.2347  0.4844
19306SOL    HW259593   5.549   7.271   4.572 -0.1746  1.6076 -0.5542
19307SOL     OW59594   5.183   4.653   2.110  0.1429  0.5014 -0.1003
19307SOL    HW159595   5.278   4.647   2.123 -0.0818 -3.0708  1.1201
19307SOL    HW259596   5.149   4.680   2.195 -0.0127 -0.3245  0.1104
19308SOL     OW59597   5.528   9.636   8.724  0.1187  0.6887  0.1612
19308SOL    HW159598   5.531   9.728   8.695  0.0737  0.5342 -0.3396
19308SOL    HW259599   5.486   9.590   8.651  1.4849  0.0190 -0.2348
19309SOL     OW59600   7.240   4.378   5.493 -0.0697 -0.1214  0.3008
19309SOL    HW159601   7.269   4.429   5.569  0.8979  0.9008 -0.7258
19309SOL    HW259602   7.317   4.374   5.436 -1.4025  1.1959 -1.7159
19310SOL     OW59603   4.707   4.884   0.646  0.0676 -0.0049 -0.3104
19310SOL    HW159604   4.681   4.820   0.580  0.1756 -0.1697 -0.1949
19310SOL    HW259605   4.636   4.883   0.710  1.0664 -1.6567  0.8697
19311SOL     OW59606   3.351   1.193   3.398 -0.3600 -0.1072  1.0210
19311SOL    HW159607   3.371   1.282   3.370  0.5076 -0.6835 -0.2896
19311SOL    HW259608   3.426   1.168   3.453  0.4202 -0.7078 -0.2652
19312SOL     OW59609   3.406   2.365   0.026 -0.1837  0.7238  0.4177
19312SOL    HW159610   3.411   2.383   0.119  1.5574 -0.1056  0.5366
19312SOL    HW259611   3.476   2.301   0.010 -2.0934 -1.1330 -1.0138
19313SOL     OW59612   2.123   7.727   8.205 -0.1184  0.1530  0.2833
19313SOL    HW159613   2.062   7.655   8.222 -0.3940  0.4469  0.5317
19313SOL    HW259614   2.194   7.713   8.268 -1.3811  1.5382  2.0975
19314SOL     OW59615   4.516   8.259   9.040  0.3242 -0.2867 -0.1554
19314SOL    HW159616   4.561   8.332   8.999  0.8280 -0.2648  0.4117
19314SOL    HW259617   4.426   8.264   9.009  0.3664  0.5526 -0.1462
19315SOL     OW59618   1.337   5.335   3.691  0.3713  0.0277  0.0356
19315SOL    HW159619   1.431   5.357   3.694  0.3971  0.6595 -2.5626
19315SOL    HW259620   1.293   5.419   3.707  0.3903  0.7236 -2.9367
19316SOL     OW59621   3.572   2.012   8.942 -0.1089  0.5367 -0.0071
19316SOL    HW159622   3.581   1.922   8.912  0.5269  0.6895 -0.3094
19316SOL    HW259623   3.478   2.028   8.945 -0.2196 -0.0762 -0.1285
19317SOL     OW59624   7.317   1.513   0.464 -0.4394 -0.2054  0.7198
19317SOL    HW159625   7.282   1.509   0.553  1.1726 -1.3307  1.3684
19317SOL    HW259626   7.404   1.553   0.474 -0.3896  0.0128 -0.4098
19318SOL     OW59627   6.668   4.704   7.827  0.7901  0.3630  0.1398
19318SOL    HW159628   6.663   4.766   7.754 -0.9705  0.7396  0.5398
19318SOL    HW259629   6.695   4.757   7.901 -3.3551  1.4604  1.1611
19319SOL     OW59630   4.058   5.066   4.508  0.1777 -0.0655  0.0837
19319SOL    HW159631   3.979   5.070   4.454  0.5613 -0.8627 -0.5633
19319SOL    HW259632   4.028   5.030   4.591 -0.4396  1.2850  0.4702
19320SOL     OW59633   5.736   6.871   8.702  0.0948  0.3360  0.2164
19320SOL    HW159634   5.799   6.943   8.707  1.5984 -0.9526  0.8600
19320SOL    HW259635   5.651   6.911   8.720  0.5807  2.2836 -1.5146
19321SOL     OW59636   7.421   6.171   0.011 -0.2051 -0.8945 -0.2046
19321SOL    HW159637   7.495   6.225  -0.016  1.7076 -2.3804  1.6665
19321SOL    HW259638   7.401   6.117  -0.066  0.1925 -0.0058 -0.9445
19322SOL     OW59639   1.074   5.738   2.902 -0.0863  0.0266 -0.0693
19322SOL    HW159640   1.093   5.651   2.866  0.4949 -0.5410  1.5105
19322SOL    HW259641   0.986   5.729   2.940 -0.3809  0.3893 -0.6629
19323SOL     OW59642   2.876   9.148   7.058 -0.0973 -0.0756 -0.5685
19323SOL    HW159643   2.830   9.178   6.980 -2.5919 -0.7713  0.5198
19323SOL    HW259644   2.808   9.140   7.125  1.6810 -0.9283  1.2722
19324SOL     OW59645   6.574   7.316   0.600  0.3145 -0.3191 -0.0686
19324SOL    HW159646   6.502   7.253   0.613  0.7124 -0.6808  0.3803
19324SOL    HW259647   6.529   7.398   0.577 -0.3898  0.0570  2.3209
19325SOL     OW59648   9.136   6.218   5.971  0.1251  0.0448  0.4065
19325SOL    HW159649   9.191   6.295   5.953  1.0516 -1.1811 -2.7145
19325SOL    HW259650   9.066   6.223   5.906 -0.7712 -0.9124  1.2671
19326SOL     OW59651   6.857   3.529   0.193 -0.0182 -0.2342  0.5284
19326SOL    HW159652   6.879   3.512   0.285 -0.7567  0.7999  0.9185
19326SOL    HW259653   6.769   3.567   0.196 -0.5230 -1.2451 -0.7164
19327SOL     OW59654   2.319   4.639   2.406 -0.2277  0.2174 -0.1224
19327SOL    HW159655   2.290   4.651   2.497 -0.8882 -0.0197 -0.2937
19327SOL    HW259656   2.374   4.715   2.388 -0.2172  0.3442  0.4298
19328SOL     OW59657   7.322   7.219   3.590 -0.1446 -0.5344 -0.3218
19328SOL    HW159658   7.404   7.198   3.545  0.6563 -1.3249  1.4240
19328SOL    HW259659   7.324   7.314   3.602  0.0411 -0.4301 -1.1569
19329SOL     OW59660   5.904   0.714   2.582 -0.4192  0.2011  0.1153
19329SOL    HW159661   5.852   0.747   2.509 -1.0883  1.0209  0.9203
19329SOL    HW259662   5.994   0.715   2.551 -0.5330  1.8890 -0.2358
19330SOL     OW59663   6.886   4.340   3.105  0.2277 -0.4348 -0.2039
19330SOL    HW159664   6.846   4.426   3.093  0.6795 -0.2503 -0.4434
19330SOL    HW259665   6.815   4.284   3.134 -0.1839 -0.0990 -0.5416
19331SOL     OW59666   7.583   6.532   8.300 -0.6293  0.0065 -0.7084
19331SOL    HW159667   7.513   6.486   8.347  0.0568 -0.5679 -0.2395
19331SOL    HW259668   7.659   6.474   8.307 -0.4040  0.0941 -2.1949
19332SOL     OW59669   3.998   9.118   7.292  0.4214 -0.5585  0.0717
19332SOL    HW159670   3.932   9.186   7.299  0.2059 -0.8962  1.8523
19332SOL    HW259671   4.075   9.155   7.335  0.6520 -1.0276  0.0692
19333SOL     OW59672   2.302   4.236   1.638  0.5744  0.0610  0.3939
19333SOL    HW159673   2.351   4.272   1.712 -0.6895  2.2434  0.2659
19333SOL    HW259674   2.214   4.274   1.647  0.2063 -0.1152 -1.8609
19334SOL     OW59675   2.972   7.630   1.431 -0.9759  0.0680  0.6083
19334SOL    HW159676   2.939   7.639   1.341  1.9077  2.3546 -0.3942
19334SOL    HW259677   3.041   7.563   1.424 -0.3250  0.6902  0.9478
19335SOL     OW59678   0.838   1.249   9.483  0.2170 -0.4177 -0.7106
19335SOL    HW159679   0.764   1.188   9.490 -0.8748  0.6399 -2.1889
19335SOL    HW259680   0.862   1.245   9.390  0.4461  1.0061 -0.7256
19336SOL     OW59681   1.757   1.075   7.314 -0.1653 -1.0686 -0.1731
19336SOL    HW159682   1.682   1.030   7.354  0.8713 -2.2766  0.4620
19336SOL    HW259683   1.794   1.127   7.386 -0.4059 -0.4291 -0.5011
19337SOL     OW59684   4.286   4.338   1.957 -0.1266  0.5675  1.0995
19337SOL    HW159685   4.357   4.341   2.021  0.7930  2.5868  0.0871
19337SOL    HW259686   4.248   4.426   1.959 -1.8971 -0.1448  0.8054
19338SOL     OW59687   6.494   1.934   7.293  0.0160 -0.5742  0.4376
19338SOL    HW159688   6.426   1.872   7.318 -0.7700  0.6328  1.4054
19338SOL    HW259689   6.481   1.948   7.199 -0.9821 -0.4524  0.5927
19339SOL     OW59690   7.236   5.514   8.128 -0.5569 -0.1994  0.0520
19339SOL    HW159691   7.239   5.452   8.201  0.5653  0.6940  0.8063
19339SOL    HW259692   7.223   5.599   8.170  1.1286  0.4603 -0.6766
19340SOL     OW59693   9.006   3.214   3.865  0.3504  0.4901 -0.1472
19340SOL    HW159694   8.997   3.147   3.797  0.2066  1.1984 -0.8347
19340SOL    HW259695   9.015   3.296   3.817  0.0225  1.0283  0.6940
19341SOL     OW59696   9.059   5.830   9.321  0.3365  0.1273 -0.1575
19341SOL    HW159697   9.110   5.790   9.251 -0.4083 -2.0461  0.4483
19341SOL    HW259698   8.969   5.828   9.289 -0.1535 -1.7604  1.1266
19342SOL     OW59699   0.177   3.375   0.230  0.5505 -0.1004 -0.1717
19342SOL    HW159700   0.131   3.411   0.154  0.3236 -0.7871 -0.3673
19342SOL    HW259701   0.232   3.447   0.261  0.3354  0.3155 -0.7371
19343SOL     OW59702   6.723   3.517   1.351  0.3981  0.4211 -0.3122
19343SOL    HW159703   6.720   3.572   1.273  0.2275  1.2744  0.2904
19343SOL    HW259704   6.695   3.430   1.320 -1.4792  1.1663 -0.8477
19344SOL     OW59705   7.214   6.486   4.929 -0.2108 -0.7367  0.0159
19344SOL    HW159706   7.200   6.569   4.883 -0.5935 -0.6107  0.3599
19344SOL    HW259707   7.126   6.458   4.956  0.0476 -0.6178  1.0132
19345SOL     OW59708   9.037   3.359   0.362 -0.2627 -0.2792  0.3011
19345SOL    HW159709   9.073   3.369   0.274  1.8509  0.7108  1.2042
19345SOL    HW259710   8.950   3.399   0.357  1.5876  4.2883 -0.3165
19346SOL     OW59711   0.026   7.085   4.016  0.3297  0.4102  0.0201
19346SOL    HW159712   0.025   7.180   4.029 -2.0873  0.4752 -0.3116
19346SOL    HW259713   0.111   7.068   3.975  1.0234  2.3500  0.5432
19347SOL     OW59714   1.031   8.825   0.348 -0.0621 -0.7588  0.0776
19347SOL    HW159715   1.086   8.752   0.377 -0.1497 -1.3233 -1.1041
19347SOL    HW259716   0.946   8.809   0.389 -0.0698 -1.3148 -0.1478
19348SOL     OW59717   4.538   2.969   7.825  0.1471 -0.3059  0.4412
19348SOL    HW159718   4.631   2.978   7.847  0.0622  0.5498  0.5011
19348SOL    HW259719   4.504   3.059   7.827  0.0315 -0.1725 -2.7426
19349SOL     OW59720   4.336   7.479   3.453 -0.1009 -0.0306 -0.2544
19349SOL    HW159721   4.405   7.497   3.516 -1.3159 -0.1785  1.1693
19349SOL    HW259722   4.365   7.523   3.373  0.9305  1.1462  0.7174
19350SOL     OW59723   9.159   7.728   6.366  0.5172 -0.2808 -0.2240
19350SOL    HW159724   9.223   7.656   6.368  1.2810  0.3298 -1.4630
19350SOL    HW259725   9.212   7.807   6.356 -0.3967  0.3026 -0.5648
19351SOL     OW59726   6.145   1.402   7.856  0.0219  0.3384  0.7960
19351SOL    HW159727   6.146   1.334   7.924  0.0420 -0.4089  0.0575
19351SOL    HW259728   6.053   1.414   7.836 -0.0637  1.3092  1.6735
19352SOL     OW59729   3.853   1.227   8.727 -0.9311 -0.3575 -0.1995
19352SOL    HW159730   3.840   1.307   8.676 -2.3781 -1.3483 -1.4768
19352SOL    HW259731   3.828   1.156   8.667  0.4528 -1.8031  0.8262
19353SOL     OW59732   8.733   2.707   6.245  0.0040 -0.6217 -0.0703
19353SOL    HW159733   8.680   2.690   6.167 -0.6367 -0.4882  0.3313
19353SOL    HW259734   8.697   2.649   6.312 -1.2989  1.2564  0.9227
19354SOL     OW59735   8.415   9.398   0.720 -0.5623  0.2780 -0.1071
19354SOL    HW159736   8.504   9.377   0.692 -0.6583 -0.0932 -0.1467
19354SOL    HW259737   8.377   9.446   0.647  0.2667  2.2772  0.7143
19355SOL     OW59738   5.970   0.295   4.437  0.0267  0.0210  0.0800
19355SOL    HW159739   5.898   0.357   4.447  0.1291  0.0778  0.4635
19355SOL    HW259740   5.959   0.233   4.509 -0.2012 -0.5394 -0.4197
19356SOL     OW59741   0.831   0.959   7.563 -0.4617 -0.1479 -0.0736
19356SOL    HW159742   0.907   0.937   7.509 -0.9678 -0.9126 -0.4770
19356SOL    HW259743   0.795   1.038   7.522 -0.4977 -0.3855 -0.5040
19357SOL     OW59744   9.016   9.260   6.924  0.1208  0.0438  0.0603
19357SOL    HW159745   9.068   9.338   6.904 -0.2233  0.2804  0.0662
19357SOL    HW259746   8.947   9.260   6.857 -0.1208 -0.0286  0.3072
19358SOL     OW59747   3.769   4.979   3.272 -0.2473  0.2286 -0.6587
19358SOL    HW159748   3.856   4.939   3.276 -0.5262 -0.2931  0.8060
19358SOL    HW259749   3.755   5.013   3.361 -2.8394 -2.5238  0.1222
19359SOL     OW59750   5.724   8.807   9.639 -0.0627  0.1907 -0.4059
19359SOL    HW159751   5.710   8.716   9.665  0.1267 -0.1860 -1.5787
19359SOL    HW259752   5.806   8.806   9.589  0.5419  1.2035  0.5009
19360SOL     OW59753   2.916   1.668   7.357 -0.1006  0.0357 -0.1388
19360SOL    HW159754   2.925   1.763   7.347  0.4917  0.2193  1.6732
19360SOL    HW259755   2.844   1.644   7.299 -1.4275  1.8809  0.6453
19361SOL     OW59756   8.465   6.945   9.413 -0.0896  0.0253 -0.0272
19361SOL    HW159757   8.539   6.885   9.401  0.1400  0.0291  1.1974
19361SOL    HW259758   8.389   6.895   9.383  0.2998 -0.2849 -0.5196
19362SOL     OW59759   2.828   8.221   8.677  0.3037  0.2971 -0.1218
19362SOL    HW159760   2.781   8.235   8.760 -0.3366 -2.0609 -0.0199
19362SOL    HW259761   2.917   8.200   8.704  0.2463  0.1151 -0.0782
19363SOL     OW59762   9.205   0.007   7.396  0.0263  0.1926  0.0441
19363SOL    HW159763   9.234  -0.084   7.399 -1.6489 -0.3868 -0.2225
19363SOL    HW259764   9.234   0.038   7.310  0.0773 -0.2727 -0.1096
19364SOL     OW59765   6.955   6.540   9.021  0.5782 -0.7262  0.1501
19364SOL    HW159766   6.865   6.544   9.051  0.2502  0.7367 -0.9005
19364SOL    HW259767   6.997   6.475   9.077 -0.6012  0.0814  2.0623
19365SOL     OW59768   9.255   5.673   0.794  0.9429  0.0147  0.2104
19365SOL    HW159769   9.222   5.687   0.882 -0.7894 -0.9411 -0.2527
19365SOL    HW259770   9.180   5.687   0.737  1.1972 -2.4639 -0.8667
19366SOL     OW59771   6.598   7.814   8.277 -0.5191  0.0828  0.0752
19366SOL    HW159772   6.684   7.817   8.235 -0.0890 -0.9137  0.8536
19366SOL    HW259773   6.594   7.894   8.329  0.5526 -0.5485  1.1781
19367SOL     OW59774   7.522   8.620   6.535 -0.5681 -0.3649 -0.3736
19367SOL    HW159775   7.490   8.622   6.445 -0.8202  1.2841 -0.2722
19367SOL    HW259776   7.443   8.613   6.589 -0.6112  1.0793 -0.2167
19368SOL     OW59777   3.367   2.594   4.100 -0.0951  0.2343 -0.5447
19368SOL    HW159778   3.274   2.575   4.105 -0.6082  2.3246 -1.2209
19368SOL    HW259779   3.409   2.508   4.106 -2.0338 -0.7352 -0.0494
19369SOL     OW59780   5.811   7.082   0.906  0.4760 -0.2225  0.2196
19369SOL    HW159781   5.851   7.115   0.825  0.6160  0.6119  0.6198
19369SOL    HW259782   5.802   7.159   0.961 -3.3381  0.0160 -0.4754
19370SOL     OW59783   5.309   2.962   7.084 -0.4676  0.0641 -0.4205
19370SOL    HW159784   5.331   2.931   6.997 -0.6828  3.6656 -1.9660
19370SOL    HW259785   5.213   2.971   7.083 -0.3178  2.0359 -0.6290
19371SOL     OW59786   5.637   5.883   3.230 -0.6067  0.1513 -0.5261
19371SOL    HW159787   5.679   5.941   3.166  1.1325 -0.2922  0.1340
19371SOL    HW259788   5.660   5.795   3.200  0.2135 -0.0621  0.6623
19372SOL     OW59789   9.006   6.158   8.031  0.1589 -0.3554  0.6953
19372SOL    HW159790   9.078   6.168   8.094  1.6320  1.3025 -1.1628
19372SOL    HW259791   8.934   6.209   8.069  1.0662  0.7470  0.9769
19373SOL     OW59792   2.073   1.855   6.144  0.2624  0.4133 -0.3002
19373SOL    HW159793   2.041   1.872   6.233  1.2736  2.3416 -0.2584
19373SOL    HW259794   2.122   1.773   6.151  0.2146  0.4727  0.8781
19374SOL     OW59795   2.699   7.883   4.351  0.3292 -0.1657  0.1573
19374SOL    HW159796   2.684   7.977   4.363  0.3374  0.1491 -1.8657
19374SOL    HW259797   2.777   7.878   4.296 -0.1645 -1.2975 -0.4964
19375SOL     OW59798   4.005   5.717   8.250  0.4918 -0.1891  0.0107
19375SOL    HW159799   4.039   5.680   8.169 -0.1907 -0.7278 -0.0438
19375SOL    HW259800   3.963   5.799   8.223  0.6901 -0.1262 -0.1052
19376SOL     OW59801   4.332   8.709   3.845 -0.0109  0.1739  0.5628
19376SOL    HW159802   4.327   8.804   3.829  1.9420  0.5320  1.7787
19376SOL    HW259803   4.312   8.669   3.761 -0.9037  1.6497  0.0332
19377SOL     OW59804   6.738   6.251   5.615 -0.0698  0.6439 -0.0749
19377SOL    HW159805   6.752   6.270   5.523  0.8326 -0.0785 -0.1068
19377SOL    HW259806   6.820   6.277   5.658 -0.6846  1.5014  0.6176
19378SOL     OW59807   3.217   6.503   4.978  0.0356  0.0900 -0.3489
19378SOL    HW159808   3.240   6.517   5.070  0.7258  2.3880 -0.8044
19378SOL    HW259809   3.297   6.468   4.938 -0.8196 -2.8039  0.2043
19379SOL     OW59810   7.753   6.479   7.377 -0.0616 -0.2627 -0.4827
19379SOL    HW159811   7.678   6.420   7.367 -0.7717  0.3889  0.7555
19379SOL    HW259812   7.782   6.465   7.467  0.3573  0.5692 -0.4832
19380SOL     OW59813   3.462   3.610   9.122  0.4045  0.7584 -0.1066
19380SOL    HW159814   3.390   3.565   9.078  2.0888 -0.4004 -1.8061
19380SOL    HW259815   3.523   3.633   9.052  1.6921  1.7285  1.2745
19381SOL     OW59816   6.459   6.912   0.698  0.3507  0.2078  0.3028
19381SOL    HW159817   6.473   6.829   0.653 -0.6403  0.5920 -0.7719
19381SOL    HW259818   6.487   6.896   0.788  0.0875 -1.3140  0.1369
19382SOL     OW59819   0.890   2.540   2.569 -0.1368  0.0519 -0.5906
19382SOL    HW159820   0.901   2.562   2.476 -0.9575 -0.8114 -0.9003
19382SOL    HW259821   0.840   2.459   2.569 -2.2631  1.2768  0.6494
19383SOL     OW59822   1.549   4.580   6.206  0.3985 -0.6655  0.1323
19383SOL    HW159823   1.515   4.638   6.138 -0.9538 -1.8057 -0.2145
19383SOL    HW259824   1.536   4.628   6.287  0.8934  0.2104 -0.2937
19384SOL     OW59825   2.333   1.788   2.303 -0.2005 -0.0792  0.0407
19384SOL    HW159826   2.271   1.741   2.359  0.8752 -3.3612 -1.3175
19384SOL    HW259827   2.416   1.784   2.352 -0.1697  0.7566  0.0631
19385SOL     OW59828   4.168   6.861   1.929 -0.4771 -0.1533  0.0073
19385SOL    HW159829   4.174   6.950   1.894  0.9415  1.3038  3.5131
19385SOL    HW259830   4.090   6.825   1.887 -0.6886  2.4159 -2.1347
19386SOL     OW59831   3.377   9.260   2.432 -0.1029  0.1145  0.2115
19386SOL    HW159832   3.473   9.253   2.433 -0.0465  0.6340  1.7259
19386SOL    HW259833   3.352   9.249   2.524 -1.8842 -4.4058 -0.5578
19387SOL     OW59834   5.850   9.193   9.422  0.3067 -0.5940  0.0386
19387SOL    HW159835   5.833   9.287   9.424 -1.5130 -0.8985  0.4038
19387SOL    HW259836   5.921   9.183   9.359  1.0362  1.0802  0.5396
19388SOL     OW59837   1.548   5.659   5.750 -0.0470 -0.4183 -0.2749
19388SOL    HW159838   1.464   5.675   5.793 -0.2783  0.0995 -0.9066
19388SOL    HW259839   1.579   5.577   5.789 -1.0389 -0.8380 -0.3290
19389SOL     OW59840   1.543   9.454   8.152  0.4245 -0.1049  1.1049
19389SOL    HW159841   1.463   9.454   8.099  1.4064 -2.8491 -0.5475
19389SOL    HW259842   1.515   9.425   8.238 -0.6021  0.5504  1.0052
19390SOL     OW59843   8.781   7.995   0.978  0.3140 -0.1936  0.2296
19390SOL    HW159844   8.814   7.977   0.890  1.2543  2.3853 -0.0107
19390SOL    HW259845   8.744   8.083   0.973  2.2078  0.8720  2.8437
19391SOL     OW59846   4.097   1.606   3.785 -0.7005  0.1533  0.0025
19391SOL    HW159847   4.071   1.698   3.791 -0.6413  0.2138 -0.5970
19391SOL    HW259848   4.192   1.610   3.771 -0.1584 -0.0747  2.9323
19392SOL     OW59849   2.688   2.947   2.406  0.1077  0.0602  0.9009
19392SOL    HW159850   2.688   2.856   2.435 -0.0865  0.3001  1.6860
19392SOL    HW259851   2.595   2.970   2.400  0.1448  0.0244  0.0964
19393SOL     OW59852   7.691   9.085   3.836 -0.0623 -0.3483 -0.3689
19393SOL    HW159853   7.637   9.007   3.844  0.4617 -0.7174 -0.4374
19393SOL    HW259854   7.767   9.057   3.785  0.9687 -0.2208  1.0494
19394SOL     OW59855   5.435   5.427   0.683 -0.4821 -0.5189 -0.2112
19394SOL    HW159856   5.428   5.510   0.635  1.0301  1.3285  2.5324
19394SOL    HW259857   5.382   5.366   0.631 -2.8922  2.4531 -1.6078
19395SOL     OW59858   9.291   4.256   2.735 -0.2920 -0.5739 -0.3661
19395SOL    HW159859   9.295   4.321   2.665  0.5809 -1.8753 -1.5806
19395SOL    HW259860   9.208   4.273   2.779  0.3748  2.0251  0.0532
19396SOL     OW59861   1.374   0.995   1.869 -0.4869  0.3627 -0.6359
19396SOL    HW159862   1.410   0.969   1.954 -1.2778  2.2151  0.3333
19396SOL    HW259863   1.444   1.047   1.828  0.1205 -1.0248 -1.4248
19397SOL     OW59864   6.714   7.252   3.064  0.4536  0.5353 -0.2081
19397SOL    HW159865   6.806   7.266   3.040  0.3222  1.0880 -0.4179
19397SOL    HW259866   6.669   7.331   3.031 -0.3922 -0.5093 -1.6887
19398SOL     OW59867   6.535   3.768   3.838  0.6293 -0.1651 -0.1610
19398SOL    HW159868   6.471   3.745   3.771  0.9725  2.2069 -1.4025
19398SOL    HW259869   6.482   3.784   3.917 -0.0822 -0.2459 -0.6173
19399SOL     OW59870   7.726   7.153   2.071 -0.2999  0.0083  0.4138
19399SOL    HW159871   7.690   7.070   2.103 -1.4521  1.0090  1.8785
19399SOL    HW259872   7.660   7.186   2.010  0.4984 -0.4681 -0.7395
19400SOL     OW59873   4.760   3.957   7.068  0.2267  0.1306  0.1198
19400SOL    HW159874   4.725   4.010   6.996 -1.3347 -1.0450 -0.0563
19400SOL    HW259875   4.854   3.955   7.052  0.0253  0.6745 -1.3666
19401SOL     OW59876   7.677   3.342   5.101 -0.1891 -0.1345 -0.1363
19401SOL    HW159877   7.736   3.284   5.149  0.8256 -0.1381 -1.3487
19401SOL    HW259878   7.634   3.394   5.169  2.1209  0.7304  0.7642
19402SOL     OW59879   4.464   6.642   8.057 -0.3306  0.1899 -0.2703
19402SOL    HW159880   4.404   6.717   8.062  0.6852  0.9587  1.4363
19402SOL    HW259881   4.457   6.612   7.966 -3.2067  0.2793 -0.1702
19403SOL     OW59882   4.253   9.006   9.286  0.1019 -0.3411  0.7936
19403SOL    HW159883   4.340   8.968   9.297  0.0646 -0.3133  1.2334
19403SOL    HW259884   4.239   9.056   9.367 -0.9210 -1.5570  1.3983
19404SOL     OW59885   8.636   8.521   1.428  0.6284  0.0842 -0.0035
19404SOL    HW159886   8.660   8.599   1.478  0.1172 -0.5316  1.2527
19404SOL    HW259887   8.553   8.492   1.467 -0.0182 -0.1883 -1.5091
19405SOL     OW59888   2.773   9.452   8.714  0.6915 -0.2110 -0.0707
19405SOL    HW159889   2.774   9.360   8.689  0.2671  0.2178 -1.7712
19405SOL    HW259890   2.684   9.468   8.747  0.8585 -0.4664  0.5182
19406SOL     OW59891   1.572   1.370   7.457  0.4376 -0.1380  0.0101
19406SOL    HW159892   1.556   1.331   7.371  0.0582 -0.9651  0.4438
19406SOL    HW259893   1.655   1.331   7.485  0.7466  0.4072 -0.1286
19407SOL     OW59894   1.283   5.320   2.483  0.3575 -0.3462  0.5293
19407SOL    HW159895   1.359   5.286   2.435  0.3141 -1.2873  1.0976
19407SOL    HW259896   1.297   5.415   2.487  1.1496 -0.4351  0.0318
19408SOL     OW59897   8.952   4.669   1.919 -0.0940  0.1168 -0.3960
19408SOL    HW159898   9.005   4.729   1.864  1.5224 -1.8263 -1.0827
19408SOL    HW259899   8.962   4.704   2.007 -0.4707  1.7364 -0.9462
19409SOL     OW59900   8.956   7.529   8.388  0.0973  0.1715  0.3243
19409SOL    HW159901   8.880   7.571   8.429 -0.0489 -0.8225  1.0971
19409SOL    HW259902   9.011   7.501   8.461  1.2582  0.9138 -0.2215
19410SOL     OW59903   6.553   8.918   6.239 -0.2821 -0.4464 -0.4867
19410SOL    HW159904   6.608   8.841   6.254  0.8811  0.1506 -1.4635
19410SOL    HW259905   6.532   8.915   6.146 -1.0441 -0.1127 -0.3293
19411SOL     OW59906   6.432   0.826   0.599  0.1664  0.1825 -0.9996
19411SOL    HW159907   6.339   0.843   0.618 -0.1978 -1.0709 -1.5005
19411SOL    HW259908   6.479   0.900   0.636 -0.9127  0.1109  0.5764
19412SOL     OW59909   3.706   9.394   1.653  0.0264  0.0660 -0.2959
19412SOL    HW159910   3.689   9.395   1.559 -0.7512  1.2857 -0.1626
19412SOL    HW259911   3.771   9.325   1.665 -1.0333 -1.1982 -1.5190
19413SOL     OW59912   1.821   9.518   8.729 -0.1214  0.2339 -0.1786
19413SOL    HW159913   1.845   9.584   8.794 -0.1717 -0.8408  0.9848
19413SOL    HW259914   1.732   9.540   8.704  0.1641  1.1047 -0.4567
19414SOL     OW59915   1.481   7.786   4.045  0.1912 -0.2577  0.0980
19414SOL    HW159916   1.565   7.758   4.010  0.4359  1.0396 -0.4218
19414SOL    HW259917   1.416   7.744   3.988  0.4553 -1.6031  0.7625
19415SOL     OW59918   1.208   4.750   4.195 -0.5587 -0.1720 -0.3941
19415SOL    HW159919   1.155   4.671   4.206  0.7613 -0.9938  0.3977
19415SOL    HW259920   1.274   4.744   4.264  0.9548  0.4891 -1.7265
19416SOL     OW59921   7.270   7.144   4.274 -0.7556 -0.4359  0.6804
19416SOL    HW159922   7.202   7.184   4.220 -0.7649 -0.4840  0.6559
19416SOL    HW259923   7.272   7.052   4.245 -0.5261 -0.3824  0.5256
19417SOL     OW59924   4.829   7.157   1.159  0.0692  0.4071  0.1186
19417SOL    HW159925   4.819   7.246   1.194  0.4191 -0.1427  1.7091
19417SOL    HW259926   4.806   7.100   1.233 -0.6805 -0.8337 -1.0328
19418SOL     OW59927   9.560   6.722   3.259  0.2378  0.8348 -0.2187
19418SOL    HW159928   9.546   6.782   3.186 -0.3846 -0.5555 -1.2952
19418SOL    HW259929   9.472   6.690   3.281  0.3186  1.7971  1.6740
19419SOL     OW59930   8.754   7.079   8.036 -0.2645  0.0620 -0.0894
19419SOL    HW159931   8.751   7.165   8.078 -0.2760  0.8946 -1.7095
19419SOL    HW259932   8.662   7.052   8.030 -0.3750  0.5543 -0.7455
19420SOL     OW59933   3.939   6.359   7.297 -0.2441  0.1793  0.5094
19420SOL    HW159934   3.889   6.398   7.368 -1.3144 -0.2830  0.0262
19420SOL    HW259935   3.904   6.399   7.218  0.8860  0.6347  0.2133
19421SOL     OW59936   3.962   9.579   8.264  0.0093  0.0578 -0.3978
19421SOL    HW159937   3.964   9.485   8.284  0.6830  0.2621  0.5602
19421SOL    HW259938   3.885   9.612   8.310  1.1021  0.3800  1.2820
19422SOL     OW59939   6.471   5.723   6.204 -0.4019  0.4747 -1.0495
19422SOL    HW159940   6.528   5.792   6.169  0.7178  0.9692  1.5779
19422SOL    HW259941   6.395   5.771   6.237 -0.3114  0.2920 -0.5760
19423SOL     OW59942   0.875   4.492   3.421 -0.0305 -0.6636  0.7233
19423SOL    HW159943   0.885   4.580   3.386  1.1122 -0.0607  2.4739
19423SOL    HW259944   0.912   4.435   3.353  1.1316  0.3692  0.4572
19424SOL     OW59945   8.635   8.340   4.721  0.3896 -0.1409 -0.0237
19424SOL    HW159946   8.684   8.373   4.645 -2.6915  2.8254 -0.9622
19424SOL    HW259947   8.674   8.385   4.796 -0.2857  1.6005 -0.6649
19425SOL     OW59948   0.414   1.002   0.395 -0.2741  0.0365  0.4112
19425SOL    HW159949   0.401   0.935   0.329  0.8016  0.2428 -0.0221
19425SOL    HW259950   0.403   1.085   0.348 -1.2857  0.1898  0.8762
19426SOL     OW59951   2.109   5.901   9.367  0.1905 -0.3516  0.7995
19426SOL    HW159952   2.072   5.989   9.380 -0.3752 -0.7786  2.2861
19426SOL    HW259953   2.135   5.873   9.455  2.0850 -0.9571  0.0967
19427SOL     OW59954   8.307   4.752   4.849  0.0298  0.7634  0.2645
19427SOL    HW159955   8.309   4.847   4.846  0.9479  0.7505  0.4360
19427SOL    HW259956   8.343   4.729   4.935 -1.2170  0.2846  0.6942
19428SOL     OW59957   4.552   4.415   9.289  0.1270 -0.3198  0.2729
19428SOL    HW159958   4.514   4.360   9.357 -0.0490  0.2589  0.6472
19428SOL    HW259959   4.646   4.395   9.291  0.1536 -0.1395  0.8325
19429SOL     OW59960   6.108   5.483   8.850 -0.7890  0.4288  0.0023
19429SOL    HW159961   6.082   5.393   8.870 -1.0671  0.3136 -0.8355
19429SOL    HW259962   6.026   5.533   8.854 -0.3869  1.0510  2.3963
19430SOL     OW59963   3.845   4.000   7.679 -0.3668  0.2631  0.1353
19430SOL    HW159964   3.888   3.915   7.677 -0.7817  0.0112  1.5194
19430SOL    HW259965   3.848   4.027   7.770 -0.9597  1.3727 -0.1538
19431SOL     OW59966   6.768   8.206   9.421 -0.0269 -0.3919 -0.4084
19431SOL    HW159967   6.730   8.119   9.408 -0.0021 -0.8453  1.9837
19431SOL    HW259968   6.858   8.197   9.390 -0.4318 -0.7697 -1.5316
19432SOL     OW59969   6.280   8.263   7.385 -0.2563  0.0033 -0.1789
19432SOL    HW159970   6.312   8.326   7.320 -1.8660  0.8008 -0.2320
19432SOL    HW259971   6.240   8.193   7.333  0.1993 -0.3349 -0.0812
19433SOL     OW59972   0.744   9.298   6.177  0.3193 -0.6224 -0.2462
19433SOL    HW159973   0.660   9.303   6.133  0.4289  0.1101 -0.3823
19433SOL    HW259974   0.808   9.295   6.106  0.5219  1.0277 -0.1544
19434SOL     OW59975   1.462   5.602   8.214  0.1233  0.1339 -0.2435
19434SOL    HW159976   1.534   5.653   8.251 -0.6891  1.1356  0.0357
19434SOL    HW259977   1.423   5.661   8.149  0.4689 -0.9601 -1.4695
19435SOL     OW59978   3.866   3.012   2.088 -0.0970  0.2483  0.4964
19435SOL    HW159979   3.848   3.091   2.037 -1.7893 -0.6185 -0.3243
19435SOL    HW259980   3.807   3.017   2.163  0.1351 -0.0056  0.7000
19436SOL     OW59981   2.383   4.550   5.097 -0.2916 -0.5817  0.1665
19436SOL    HW159982   2.373   4.630   5.148  1.1512 -0.0659 -0.2980
19436SOL    HW259983   2.316   4.491   5.131 -1.6506  0.9526  0.2331
19437SOL     OW59984   2.781   4.154   2.888  0.1747  0.6609 -0.0519
19437SOL    HW159985   2.735   4.206   2.821 -1.1105 -0.0069  0.2771
19437SOL    HW259986   2.799   4.216   2.958  1.0426  1.2444 -0.7623
19438SOL     OW59987   0.260   3.470   9.568 -0.0750 -0.1884 -0.1957
19438SOL    HW159988   0.311   3.391   9.583 -0.3950 -0.4066 -0.2375
19438SOL    HW259989   0.292   3.503   9.484  2.7717  1.8624  1.5363
19439SOL     OW59990   6.189   1.993   7.954  0.3749  0.4153 -0.1358
19439SOL    HW159991   6.096   1.972   7.967  0.6605 -1.3578 -0.7089
19439SOL    HW259992   6.188   2.059   7.885 -0.4605  0.1242 -0.4214
19440SOL     OW59993   2.060   1.963   6.420  0.0526  0.6487  0.0726
19440SOL    HW159994   2.041   2.041   6.471 -1.1507  0.2368  0.2878
19440SOL    HW259995   2.020   1.891   6.470  0.5867 -0.0149 -0.4401
19441SOL     OW59996   3.131   9.620   4.070 -0.2049  0.4905  0.2426
19441SOL    HW159997   3.051   9.653   4.110  0.2260  1.7814  0.0793
19441SOL    HW259998   3.132   9.658   3.983  0.1929 -0.1597 -0.0443
19442SOL     OW59999   5.244   4.528   1.076 -0.5188  0.3259  0.0403
19442SOL    HW160000   5.323   4.571   1.041  0.0979 -0.0397  0.9410
19442SOL    HW260001   5.220   4.581   1.152  1.4860 -1.9568  2.4771
19443SOL     OW60002   6.902   2.468   3.968  0.0183  0.1173  0.0549
19443SOL    HW160003   6.906   2.395   3.906  0.8455  1.0338 -1.0192
19443SOL    HW260004   6.868   2.429   4.049 -1.5496 -1.0391 -1.0865
19444SOL     OW60005   6.197   3.411   8.246 -0.4874  0.2532  0.2440
19444SOL    HW160006   6.242   3.336   8.284 -0.3358 -0.7561 -1.8108
19444SOL    HW260007   6.253   3.486   8.267 -1.5876  0.2336  4.0011
19445SOL     OW60008   7.797   1.288   4.420  0.2171  0.4046 -0.4090
19445SOL    HW160009   7.786   1.383   4.426 -0.3035  0.2900  0.6901
19445SOL    HW260010   7.836   1.274   4.334  2.4836  1.7979  0.3204
19446SOL     OW60011   5.260   9.095   8.937 -0.2299  0.1532  0.1943
19446SOL    HW160012   5.267   9.090   9.032 -0.8944 -1.1538  0.2031
19446SOL    HW260013   5.278   9.006   8.907  0.4290  0.6473 -0.9456
19447SOL     OW60014   2.412   2.636   6.859  0.5684 -0.3213 -0.1683
19447SOL    HW160015   2.417   2.543   6.881  0.3881  0.1589  2.1701
19447SOL    HW260016   2.388   2.638   6.767  0.6249 -2.5812 -0.2813
19448SOL     OW60017   0.802   3.489   5.945 -0.0173 -0.0354 -0.2829
19448SOL    HW160018   0.794   3.584   5.946  3.7734  0.4607  1.1620
19448SOL    HW260019   0.856   3.469   5.868  0.4313 -0.8074  0.2053
19449SOL     OW60020   2.845   3.346   5.410 -0.2783 -0.0358  0.0274
19449SOL    HW160021   2.827   3.394   5.329  1.5354 -0.2445 -0.5410
19449SOL    HW260022   2.851   3.414   5.477  1.6404  0.5436 -0.6609
19450SOL     OW60023   0.518   0.495   3.596  0.5189  0.2491 -0.0768
19450SOL    HW160024   0.497   0.502   3.689 -0.3441  0.5681 -0.2896
19450SOL    HW260025   0.598   0.545   3.586  0.9283 -0.2448  0.5889
19451SOL     OW60026   8.037   2.308   1.416  0.6934 -0.1235 -0.2605
19451SOL    HW160027   8.115   2.362   1.398  1.6652 -1.5247 -0.3859
19451SOL    HW260028   8.065   2.218   1.398 -0.6713 -0.7656  0.6564
19452SOL     OW60029   5.366   4.053   5.345 -0.4973 -0.7909 -0.1575
19452SOL    HW160030   5.369   4.091   5.432  0.9894 -0.1410 -0.4523
19452SOL    HW260031   5.378   3.959   5.359  2.0095 -0.4704  0.2637
19453SOL     OW60032   3.817   8.028   5.923  0.5761 -0.6477 -0.1733
19453SOL    HW160033   3.738   7.996   5.967  0.5756 -1.6531 -0.8745
19453SOL    HW260034   3.805   8.004   5.831  0.4764  1.6151 -0.8063
19454SOL     OW60035   2.559   7.011   8.285 -0.3644 -0.0034  0.6452
19454SOL    HW160036   2.614   7.039   8.358  0.5578 -0.8955  0.3253
19454SOL    HW260037   2.581   6.918   8.272  0.4245  0.4184 -1.5408
19455SOL     OW60038   5.676   5.330   0.212  0.0767 -0.2779  0.1624
19455SOL    HW160039   5.719   5.251   0.179  0.5647 -0.1726  0.5371
19455SOL    HW260040   5.613   5.353   0.144  2.4669  1.1439 -1.7560
19456SOL     OW60041   0.809   7.967   8.437 -0.1648 -0.2131  0.2330
19456SOL    HW160042   0.790   7.994   8.527  0.4643 -0.7188  0.5280
19456SOL    HW260043   0.903   7.950   8.436 -0.4208 -1.7993 -0.0758
19457SOL     OW60044   2.539   4.272   7.993  0.7162 -0.2087 -0.0403
19457SOL    HW160045   2.483   4.327   7.938  0.3785  1.2594  1.6798
19457SOL    HW260046   2.603   4.333   8.030  0.7402 -1.0697  1.4043
19458SOL     OW60047   3.652   5.972   2.487 -0.2846 -0.1875  0.4529
19458SOL    HW160048   3.582   5.918   2.452 -0.5183  0.8631 -0.7793
19458SOL    HW260049   3.624   6.062   2.470  2.2800  0.2723 -2.1224
19459SOL     OW60050   9.363   6.577   5.744  0.1430 -0.1016  0.5689
19459SOL    HW160051   9.426   6.632   5.791 -1.5429  1.5418  1.0383
19459SOL    HW260052   9.319   6.527   5.812 -0.6857  0.5461  0.5298
19460SOL     OW60053   1.002   1.268   6.336 -0.8187  0.5680 -0.1480
19460SOL    HW160054   0.948   1.342   6.310 -2.9744 -0.5963  0.7667
19460SOL    HW260055   1.089   1.305   6.350 -1.2445  2.4573 -2.0286
19461SOL     OW60056   8.748   4.868   2.796  0.2953 -0.3576 -0.2946
19461SOL    HW160057   8.810   4.869   2.722  2.1890 -0.9189  1.2041
19461SOL    HW260058   8.802   4.888   2.872 -1.4987 -0.3935  1.0328
19462SOL     OW60059   0.018   1.521   1.585  0.2523  0.2925  0.4111
19462SOL    HW160060   0.055   1.457   1.524 -2.5186 -1.9976  0.9196
19462SOL    HW260061   0.034   1.485   1.672  0.7201  1.5377  0.8647
19463SOL     OW60062   9.482   4.810   3.878  0.4010  0.3288 -0.5314
19463SOL    HW160063   9.549   4.857   3.828  0.5970  0.1831 -0.4096
19463SOL    HW260064   9.431   4.763   3.811  0.6521  0.1475 -0.5966
19464SOL     OW60065   4.000   6.459   5.725  0.2008  0.2191 -0.0869
19464SOL    HW160066   4.033   6.369   5.730 -0.2152  0.1265  1.7227
19464SOL    HW260067   3.982   6.473   5.632  0.3751 -1.5294 -0.4163
19465SOL     OW60068   6.669   7.653   2.585  0.8751 -0.3146  0.1102
19465SOL    HW160069   6.641   7.662   2.676  0.9598 -2.0388  0.3328
19465SOL    HW260070   6.675   7.559   2.570 -1.5922 -0.2092 -2.4379
19466SOL     OW60071   1.115   8.282   7.578 -0.0622  0.6654  0.4615
19466SOL    HW160072   1.132   8.233   7.659  0.4114 -0.4817 -0.3034
19466SOL    HW260073   1.020   8.277   7.566 -0.2960  1.9279  1.5910
19467SOL     OW60074   1.332   3.697   8.196  0.0362 -0.1558  0.3666
19467SOL    HW160075   1.303   3.747   8.120 -0.5044 -1.8562 -0.5971
19467SOL    HW260076   1.252   3.661   8.234  0.4262 -0.4778  0.9029
19468SOL     OW60077   7.332   2.305   7.388 -0.9383 -0.5928 -0.5542
19468SOL    HW160078   7.283   2.232   7.426 -1.4374 -0.2717 -0.5699
19468SOL    HW260079   7.323   2.292   7.293 -0.9005 -0.5952 -0.5571
19469SOL     OW60080   7.708   0.220   8.763 -0.4878 -0.2288 -0.1552
19469SOL    HW160081   7.688   0.299   8.713 -0.2686 -0.6796 -0.9729
19469SOL    HW260082   7.626   0.201   8.810 -0.3587  0.8106  0.5443
19470SOL     OW60083   1.887   5.332   8.151 -0.2309 -0.4146  0.0448
19470SOL    HW160084   1.819   5.388   8.189  0.9607  1.4648 -0.4659
19470SOL    HW260085   1.840   5.276   8.088 -1.3765  0.4642  0.0939
19471SOL     OW60086   5.463   6.665   7.976 -0.2259  0.1420  0.1632
19471SOL    HW160087   5.380   6.630   7.944 -0.3007  0.2194  0.2687
19471SOL    HW260088   5.510   6.692   7.897  0.5646 -1.7545 -0.0536
19472SOL     OW60089   1.034   5.850   7.307 -0.0766 -0.3740 -0.3827
19472SOL    HW160090   1.096   5.784   7.338  1.0992  0.8378 -0.0640
19472SOL    HW260091   1.064   5.871   7.218 -0.7952 -0.6681 -0.7053
19473SOL     OW60092   7.308   2.299   7.117 -0.3382  0.0894  0.1275
19473SOL    HW160093   7.221   2.261   7.105 -0.5599  0.8472 -0.8075
19473SOL    HW260094   7.315   2.366   7.049  1.2368 -0.4074 -0.2524
19474SOL     OW60095   0.663   6.738   7.055  0.5136  1.2268 -0.6148
19474SOL    HW160096   0.689   6.763   7.144  0.2362  0.6721 -0.3746
19474SOL    HW260097   0.745   6.737   7.006  0.5288  2.7906 -0.6998
19475SOL     OW60098   3.476   6.804   6.307  0.0749  0.9815 -0.0406
19475SOL    HW160099   3.393   6.784   6.265  0.8408 -0.7061 -0.8534
19475SOL    HW260100   3.537   6.818   6.235  0.2059  3.7969  0.5202
19476SOL     OW60101   4.244   0.138   9.156  0.1137 -0.3623  0.1478
19476SOL    HW160102   4.185   0.149   9.081 -1.4193  0.5200  1.4463
19476SOL    HW260103   4.190   0.100   9.224  1.7932 -2.3900  0.4815
19477SOL     OW60104   3.128   6.230   7.931  0.1289 -0.4598  0.4522
19477SOL    HW160105   3.151   6.303   7.989 -2.1958  1.8433 -1.2402
19477SOL    HW260106   3.034   6.218   7.943  0.0385 -1.5703 -1.0479
19478SOL     OW60107   4.277   1.392   6.317  0.3008  0.0510 -0.2103
19478SOL    HW160108   4.332   1.470   6.327  0.3238 -0.0291  0.2748
19478SOL    HW260109   4.338   1.319   6.309  0.2804 -0.2008  1.5695
19479SOL     OW60110   6.550   5.584   0.855 -0.1912  0.4087 -0.3038
19479SOL    HW160111   6.590   5.665   0.886 -0.9801  0.5760  0.3014
19479SOL    HW260112   6.460   5.587   0.889 -1.1166  0.6117 -2.5999
19480SOL     OW60113   6.663   1.999   5.126  0.1396  0.6931  0.1168
19480SOL    HW160114   6.709   2.073   5.165  0.1678  0.1306  1.2141
19480SOL    HW260115   6.571   2.018   5.139  0.1523  0.4367  0.6212
19481SOL     OW60116   6.071   3.972   5.729  0.2128  0.4267  0.3162
19481SOL    HW160117   6.061   3.988   5.823 -2.1186  1.9894 -0.1199
19481SOL    HW260118   6.122   4.046   5.698 -1.2188  1.3165 -0.0022
19482SOL     OW60119   3.879   3.061   8.939 -0.5290 -0.9370  0.2582
19482SOL    HW160120   3.927   3.054   8.856 -1.7847 -3.0320 -0.3741
19482SOL    HW260121   3.932   3.011   9.002 -1.2689 -2.3430 -0.1840
19483SOL     OW60122   1.526   9.324   2.303  0.0533  0.3234  0.5616
19483SOL    HW160123   1.447   9.271   2.314 -0.4050  0.2561 -2.2874
19483SOL    HW260124   1.578   9.307   2.382 -1.3230 -2.1685  1.0222
19484SOL     OW60125   3.221   6.863   5.854  0.1156 -0.5483 -0.2047
19484SOL    HW160126   3.266   6.865   5.769 -0.6677  0.2637 -0.6198
19484SOL    HW260127   3.223   6.954   5.884  0.6795 -0.8847  0.8162
19485SOL     OW60128   6.308   7.632   4.209 -0.6095  0.2703 -0.0297
19485SOL    HW160129   6.389   7.629   4.158 -0.6637  0.0199 -0.1009
19485SOL    HW260130   6.265   7.549   4.190 -0.3422 -0.0908  0.8979
19486SOL     OW60131   4.978   9.178   4.705  0.2430  0.0872 -0.0261
19486SOL    HW160132   5.008   9.215   4.622 -0.4043 -1.6348 -1.0819
19486SOL    HW260133   4.883   9.169   4.695  0.0742  0.3479  1.1233
19487SOL     OW60134   3.706   7.196   5.960  0.2340 -0.1204 -0.1754
19487SOL    HW160135   3.790   7.226   5.995 -0.0762 -0.0142  0.4896
19487SOL    HW260136   3.697   7.242   5.877 -0.0849  1.4184  0.6766
19488SOL     OW60137   4.022   8.386   9.163 -0.5760 -0.0669 -0.1456
19488SOL    HW160138   4.077   8.463   9.178  0.5888 -0.5166 -1.7848
19488SOL    HW260139   4.034   8.366   9.070 -0.5199 -2.4560  0.3106
19489SOL     OW60140   7.120   9.576   4.950 -0.2592  0.2482 -0.6623
19489SOL    HW160141   7.056   9.642   4.977  0.5250  1.0044 -0.5898
19489SOL    HW260142   7.068   9.498   4.931 -1.1645  0.7506 -0.3124
19490SOL     OW60143   6.612   5.834   2.307 -0.3268 -0.2659  0.1398
19490SOL    HW160144   6.598   5.917   2.352 -0.5145 -0.5305  0.5705
19490SOL    HW260145   6.689   5.849   2.252  0.6994 -0.3237  1.5156
19491SOL     OW60146   4.628   7.923   3.796  0.0027  0.0839 -0.0114
19491SOL    HW160147   4.597   7.939   3.885 -0.5018  1.4975 -0.4225
19491SOL    HW260148   4.691   7.851   3.806  0.9661  1.0805  1.6734
19492SOL     OW60149   1.401   9.496   4.174 -0.6041 -0.1387  0.2678
19492SOL    HW160150   1.423   9.548   4.097  1.6463 -0.7288  0.4355
19492SOL    HW260151   1.423   9.552   4.248 -0.0642 -0.5816  0.4504
19493SOL     OW60152   2.431   4.031   4.484  0.3412  0.1357 -0.5318
19493SOL    HW160153   2.448   4.113   4.437  2.9100 -1.0102 -1.8212
19493SOL    HW260154   2.511   4.016   4.535  0.9388 -2.6282 -2.1004
19494SOL     OW60155   9.594   8.563   7.974  0.0610 -0.0366 -0.1138
19494SOL    HW160156   9.549   8.505   8.035  0.4303  1.6096  1.8544
19494SOL    HW260157   9.524   8.608   7.927 -0.2309 -1.3179 -0.9484
19495SOL     OW60158   9.365   5.121   2.390 -0.1712  0.1815 -0.2452
19495SOL    HW160159   9.376   5.029   2.367  0.0716  0.7097 -2.4056
19495SOL    HW260160   9.454   5.154   2.402 -0.1435  0.5845 -1.4600
19496SOL     OW60161   5.495   4.970   3.851 -0.0451  0.4711 -0.3968
19496SOL    HW160162   5.541   5.053   3.857  0.5569  0.1774 -0.8713
19496SOL    HW260163   5.425   4.986   3.788  0.9599  0.2298 -1.6050
19497SOL     OW60164   8.955   8.323   8.662  0.2485  0.0661  1.0259
19497SOL    HW160165   8.982   8.415   8.663  1.2669 -0.1977  0.0018
19497SOL    HW260166   9.037   8.274   8.655 -0.3609 -0.8631  0.1010
19498SOL     OW60167   5.648   5.185   6.413 -0.0716 -0.4322  0.5597
19498SOL    HW160168   5.555   5.209   6.416  0.2869  1.0357  0.5329
19498SOL    HW260169   5.686   5.229   6.489  0.8251 -0.0412 -0.1084
19499SOL     OW60170   0.934   6.909   9.058 -0.5149 -0.2231  0.0222
19499SOL    HW160171   0.844   6.890   9.033 -0.1511 -0.7124 -0.9485
19499SOL    HW260172   0.986   6.842   9.015  0.1386 -1.3431  2.3798
19500SOL     OW60173   7.934   4.902   5.991 -0.4618 -0.5992 -0.4479
19500SOL    HW160174   7.928   4.978   6.049 -0.5109 -0.0416 -1.1617
19500SOL    HW260175   7.905   4.829   6.044 -0.9826 -0.0205  0.0873
19501SOL     OW60176   2.055   7.695   2.369 -0.3762  0.1457  0.5988
19501SOL    HW160177   2.138   7.742   2.357  0.0217  0.1970  3.1099
19501SOL    HW260178   2.079   7.602   2.362 -0.0456  0.1533  1.5190
19502SOL     OW60179   5.186   5.653   2.060 -0.0653 -0.0407 -0.4796
19502SOL    HW160180   5.190   5.746   2.037  1.9461 -0.2692 -1.2443
19502SOL    HW260181   5.107   5.645   2.114 -0.3275  2.0861 -0.4691
19503SOL     OW60182   6.564   5.695   5.583 -0.2779 -0.5358  0.1969
19503SOL    HW160183   6.552   5.768   5.522 -0.5936 -1.4583 -0.8907
19503SOL    HW260184   6.609   5.628   5.532  0.4634 -0.9323  1.3208
19504SOL     OW60185   0.510   9.013   3.966  0.5166  0.8213 -0.1953
19504SOL    HW160186   0.449   9.039   4.035  3.2665  1.0109  2.3680
19504SOL    HW260187   0.553   9.095   3.941 -0.0291  0.6534 -1.7680
19505SOL     OW60188   8.760   6.477   3.763 -0.2381  0.1349  0.1586
19505SOL    HW160189   8.805   6.395   3.785  1.0052  0.2721 -1.6666
19505SOL    HW260190   8.748   6.521   3.847  0.0653 -1.4034  1.0510
19506SOL     OW60191   0.770   0.655   6.157 -0.8532  0.0568  0.0857
19506SOL    HW160192   0.729   0.637   6.072  0.2261  2.2594 -1.0155
19506SOL    HW260193   0.766   0.751   6.165 -0.2615 -0.0570  2.1853
19507SOL     OW60194   4.638   4.625   3.570 -0.6310 -0.3507  0.3141
19507SOL    HW160195   4.726   4.587   3.560 -0.2705  0.5046  0.1241
19507SOL    HW260196   4.595   4.608   3.486 -0.5251 -0.4905  0.2883
19508SOL     OW60197   2.224   4.059   1.116 -0.0309 -0.0244  0.2147
19508SOL    HW160198   2.271   3.976   1.118 -3.7923 -2.3619  1.1399
19508SOL    HW260199   2.255   4.105   1.195 -0.0681 -1.9406  1.4051
19509SOL     OW60200   3.106   5.532   0.004  0.4467 -0.8165  0.2893
19509SOL    HW160201   3.014   5.542  -0.022  0.8018 -0.8807 -1.0871
19509SOL    HW260202   3.108   5.559   0.096 -0.6473  0.8374 -0.1282
19510SOL     OW60203   5.691   8.150   7.549 -0.0044 -0.4315  0.1287
19510SOL    HW160204   5.717   8.119   7.462 -0.7341 -0.0771 -0.2234
19510SOL    HW260205   5.604   8.114   7.562 -0.4244  0.5823  0.1652
19511SOL     OW60206   2.993   0.285   1.839  0.0786  0.0549 -0.0355
19511SOL    HW160207   2.960   0.197   1.819  0.9430 -0.2908  0.0427
19511SOL    HW260208   3.078   0.289   1.795 -0.5502  1.3485 -1.2103
19512SOL     OW60209   6.687   4.852   2.522 -0.5934 -0.4782 -0.6492
19512SOL    HW160210   6.614   4.887   2.471 -0.6214  0.0722 -0.2423
19512SOL    HW260211   6.765   4.875   2.472 -0.5747  0.6425 -0.1348
19513SOL     OW60212   5.944   7.358   8.826 -0.0275 -0.6187 -0.0491
19513SOL    HW160213   5.999   7.434   8.806 -0.3582 -0.1071  0.9384
19513SOL    HW260214   6.005   7.293   8.862  1.0024 -2.3865 -4.3654
19514SOL     OW60215   0.372   3.239   9.303 -0.7250 -0.4291 -0.1737
19514SOL    HW160216   0.419   3.320   9.319 -0.7836 -0.3751 -0.2743
19514SOL    HW260217   0.439   3.179   9.268 -0.6958 -0.4034 -0.1615
19515SOL     OW60218   0.323   0.477   3.234 -0.1167  0.5829  0.7130
19515SOL    HW160219   0.252   0.457   3.174  0.5365 -0.5709  0.2782
19515SOL    HW260220   0.399   0.430   3.197  0.0245 -1.1937  3.0715
19516SOL     OW60221   6.472   4.570   5.026 -0.2276  0.0598 -0.4579
19516SOL    HW160222   6.508   4.572   4.938  0.1324  0.1433 -0.3090
19516SOL    HW260223   6.380   4.596   5.015 -0.5654 -1.2434 -0.9876
19517SOL     OW60224   3.817   5.780   7.784 -0.1622 -0.0136 -0.2494
19517SOL    HW160225   3.797   5.750   7.873  1.1329  0.1294  0.1086
19517SOL    HW260226   3.861   5.705   7.743  2.7708  1.1341  0.5317
19518SOL     OW60227   8.481   1.279   2.886 -0.3564 -0.5331  0.0289
19518SOL    HW160228   8.436   1.347   2.835  1.1311  0.7214  0.3194
19518SOL    HW260229   8.467   1.198   2.836 -3.9290 -0.5178  0.7036
19519SOL     OW60230   7.555   3.164   8.509  0.2198  0.1512  0.0281
19519SOL    HW160231   7.604   3.088   8.477 -0.8146  0.0410 -1.3908
19519SOL    HW260232   7.542   3.147   8.602  5.2170  1.4771  1.2542
19520SOL     OW60233   3.154   2.699   5.592  0.3910 -0.2476  0.4451
19520SOL    HW160234   3.235   2.711   5.642  0.6237 -2.2809  0.6434
19520SOL    HW260235   3.176   2.727   5.504  0.9473  0.3237  0.7524
19521SOL     OW60236   3.499   1.375   4.387  0.5345  0.1802  0.2313
19521SOL    HW160237   3.561   1.313   4.348  1.4187  1.6095 -0.7123
19521SOL    HW260238   3.494   1.349   4.479  1.7461 -0.6037  0.0998
19522SOL     OW60239   0.618   8.392   7.753 -1.0298  0.3637  0.2998
19522SOL    HW160240   0.548   8.399   7.817 -1.8213  0.9550 -0.5973
19522SOL    HW260241   0.626   8.481   7.716  0.1207  0.2865  0.3134
19523SOL     OW60242   1.197   6.940   9.606  0.8329  0.4787 -0.1190
19523SOL    HW160243   1.166   7.023   9.570  1.2849  0.4365 -0.6098
19523SOL    HW260244   1.230   6.891   9.530  0.6399 -0.1166  0.1766
19524SOL     OW60245   2.288   2.671   6.623 -0.7150 -0.7362  0.4592
19524SOL    HW160246   2.212   2.723   6.598 -0.3150 -1.0089 -1.5514
19524SOL    HW260247   2.286   2.596   6.563  0.6305 -1.1962  0.9563
19525SOL     OW60248   3.843   4.221   3.063  0.0689 -0.0348 -0.5367
19525SOL    HW160249   3.887   4.135   3.062  0.4402  0.0637  1.7795
19525SOL    HW260250   3.907   4.279   3.103 -0.4819  1.1799 -1.3730
19526SOL     OW60251   1.754   7.952   1.654  0.2884  0.0762 -0.0185
19526SOL    HW160252   1.756   7.979   1.746  1.6789 -0.0814  0.0260
19526SOL    HW260253   1.673   7.989   1.619  0.2250  0.9666  1.0322
19527SOL     OW60254   7.271   1.762   6.517 -0.3857 -0.0791  0.2766
19527SOL    HW160255   7.310   1.729   6.436  0.9683 -0.9803  1.2727
19527SOL    HW260256   7.177   1.749   6.504 -0.0560 -2.1729 -0.3207
19528SOL     OW60257   4.303   7.189   5.068 -0.2691  0.4432 -0.2631
19528SOL    HW160258   4.353   7.269   5.052  1.9065 -0.7947 -0.0151
19528SOL    HW260259   4.351   7.144   5.137 -1.6638 -0.9132 -0.1234
19529SOL     OW60260   4.946   8.204   7.016 -0.5242 -0.1656  0.6130
19529SOL    HW160261   4.966   8.143   7.088 -0.3261 -0.0086  0.6920
19529SOL    HW260262   4.853   8.191   6.999 -0.5357 -0.3222  0.7889
19530SOL     OW60263   7.185   5.844   4.058  0.0135 -0.6221  0.0513
19530SOL    HW160264   7.142   5.928   4.043  1.5231  0.7865  2.9169
19530SOL    HW260265   7.154   5.814   4.143 -0.8600 -3.3038 -1.0909
19531SOL     OW60266   6.351   8.330   6.025  0.7064  0.2544 -0.2834
19531SOL    HW160267   6.291   8.331   5.951  0.4852 -1.3054 -0.1534
19531SOL    HW260268   6.299   8.358   6.100  0.5123  0.2798 -0.4286
19532SOL     OW60269   6.468   4.553   3.937 -0.3751 -0.3027  0.0186
19532SOL    HW160270   6.459   4.631   3.992 -1.5858 -0.3491 -0.0866
19532SOL    HW260271   6.409   4.489   3.976 -0.3280 -0.7455 -0.6217
19533SOL     OW60272   1.088   0.247   8.830 -0.1986  0.1848  0.2557
19533SOL    HW160273   1.117   0.200   8.751 -1.8163 -0.5163  0.0334
19533SOL    HW260274   1.169   0.266   8.878  0.8604  0.8657 -1.6810
19534SOL     OW60275   2.062   5.210   4.942  0.7618  0.5258  0.4086
19534SOL    HW160276   2.045   5.164   4.860 -0.5024  0.0020  0.9341
19534SOL    HW260277   2.137   5.266   4.923 -0.4069  1.5231 -1.5284
19535SOL     OW60278   2.812   5.629   5.506  0.2637  0.1302  0.1521
19535SOL    HW160279   2.807   5.571   5.429  0.9194 -0.2135  0.3646
19535SOL    HW260280   2.810   5.717   5.469 -0.9692  0.0023 -0.1669
19536SOL     OW60281   0.182   3.909   2.935  0.7175  0.0403  0.3661
19536SOL    HW160282   0.143   3.983   2.980  1.6116  1.2064 -0.7162
19536SOL    HW260283   0.111   3.846   2.927 -0.9928  2.0511 -1.4555
19537SOL     OW60284   6.309   2.402   0.360  0.1005  0.3046 -0.2365
19537SOL    HW160285   6.308   2.390   0.265  1.8540  1.2560 -0.4240
19537SOL    HW260286   6.246   2.473   0.376  0.9622  1.2602 -0.9138
19538SOL     OW60287   5.873   8.658   8.515  0.1291  0.4375  0.1098
19538SOL    HW160288   5.827   8.585   8.474  0.2311 -0.6050  1.7482
19538SOL    HW260289   5.803   8.718   8.543 -0.1833 -0.4229  1.2609
19539SOL     OW60290   9.671   4.408   2.982 -0.1877 -0.1280  0.6307
19539SOL    HW160291   9.735   4.415   2.911  1.1044  0.3205  1.7749
19539SOL    HW260292   9.638   4.318   2.976  1.1133 -0.6263  0.4194
19540SOL     OW60293   5.197   5.325   5.752 -0.2145 -0.5073 -0.4312
19540SOL    HW160294   5.161   5.279   5.828 -0.8042  1.0632  0.2705
19540SOL    HW260295   5.289   5.299   5.750 -0.1380 -0.4328  0.9409
19541SOL     OW60296   4.448   1.081   7.054  0.1833  0.2236  0.1212
19541SOL    HW160297   4.533   1.119   7.074  0.5704 -0.2277 -0.6196
19541SOL    HW260298   4.411   1.139   6.986  0.0546  0.2151  0.1831
19542SOL     OW60299   0.602   6.266   7.161  0.0204  0.3335 -0.3451
19542SOL    HW160300   0.614   6.172   7.149 -1.5409 -0.0168  0.4996
19542SOL    HW260301   0.688   6.298   7.190  0.3906 -0.9494  0.0247
19543SOL     OW60302   0.086   8.910   8.287  0.4781 -0.4000  0.0256
19543SOL    HW160303   0.060   8.833   8.336  0.6036 -0.7723 -0.4880
19543SOL    HW260304   0.048   8.984   8.336 -1.5173 -0.9096 -0.6548
19544SOL     OW60305   4.008   1.818   5.170 -0.2764  0.2951 -0.2486
19544SOL    HW160306   4.009   1.913   5.185  1.7932  0.5990 -1.8174
19544SOL    HW260307   4.100   1.793   5.166 -0.7797 -1.8259  0.1992
19545SOL     OW60308   3.970   7.687   1.270 -0.3310  0.2658 -0.2478
19545SOL    HW160309   4.009   7.695   1.357 -2.6631  1.9773  0.7520
19545SOL    HW260310   3.989   7.771   1.227 -0.6224  0.0813 -0.7509
19546SOL     OW60311   8.790   7.128   5.555 -0.3458  0.0089 -0.2620
19546SOL    HW160312   8.851   7.147   5.626 -0.2864  0.6060 -0.4653
19546SOL    HW260313   8.741   7.051   5.585  1.8030 -1.7286 -0.8829
19547SOL     OW60314   1.999   6.606   0.912 -0.9408 -0.3274  0.3846
19547SOL    HW160315   2.035   6.668   0.849  0.1313 -1.3993 -0.1030
19547SOL    HW260316   1.963   6.535   0.859 -1.7302 -0.3539  0.9391
19548SOL     OW60317   0.664   5.175   6.526  0.1444 -0.7128  0.4448
19548SOL    HW160318   0.724   5.241   6.562  0.8671 -0.6227 -0.8823
19548SOL    HW260319   0.598   5.164   6.594  1.2773 -0.2996  1.6614
19549SOL     OW60320   2.240   0.109   0.982  0.7168 -0.2323 -0.2165
19549SOL    HW160321   2.274   0.025   0.952 -2.0132 -1.0629 -1.2764
19549SOL    HW260322   2.190   0.088   1.061  1.1656  0.6314  0.3068
19550SOL     OW60323   7.171   2.282   4.695 -0.5326 -0.0866  0.4124
19550SOL    HW160324   7.188   2.299   4.788  2.0025 -0.4495  0.1000
19550SOL    HW260325   7.202   2.193   4.681 -0.9806 -0.0702 -0.7799
19551SOL     OW60326   7.620   0.187   4.890  0.0541  1.0179 -0.1786
19551SOL    HW160327   7.547   0.133   4.859  1.0382  0.3122 -1.3465
19551SOL    HW260328   7.664   0.217   4.810  1.7969  0.3536  0.4807
19552SOL     OW60329   5.263   3.829   5.943  0.6183  0.6279 -0.4404
19552SOL    HW160330   5.188   3.843   5.885 -0.1044  0.0682  0.3311
19552SOL    HW260331   5.224   3.797   6.025  1.7489 -0.1993 -0.2034
19553SOL     OW60332   5.087   7.839   9.200 -0.3116  0.1536  0.3657
19553SOL    HW160333   5.160   7.884   9.157 -0.5599  0.1717 -0.0501
19553SOL    HW260334   5.098   7.747   9.174 -0.7872  0.2525 -0.2240
19554SOL     OW60335   2.328   3.819   1.032  0.1063  0.3070  0.2648
19554SOL    HW160336   2.335   3.856   0.944 -0.1699  1.7102  0.8048
19554SOL    HW260337   2.380   3.739   1.028 -0.3044  0.0741 -1.3063
19555SOL     OW60338   9.361   8.796   8.863  0.5061 -0.1010 -0.5107
19555SOL    HW160339   9.291   8.805   8.798 -0.2071 -0.6896  0.1375
19555SOL    HW260340   9.378   8.702   8.867  2.9089  0.1737 -2.2183
19556SOL     OW60341   6.529   2.471   7.715 -0.5234 -0.4362  0.5314
19556SOL    HW160342   6.472   2.409   7.670  0.7933  0.0829 -2.0395
19556SOL    HW260343   6.468   2.531   7.759 -1.8891 -1.3595 -0.0077
19557SOL     OW60344   8.557   9.611   1.461 -0.5090  0.5201  0.6909
19557SOL    HW160345   8.494   9.663   1.510 -0.3158 -0.5923  2.1928
19557SOL    HW260346   8.550   9.523   1.498  0.4415 -0.1078 -0.5422
19558SOL     OW60347   7.896   3.640   5.446  0.2433 -0.3614 -0.2019
19558SOL    HW160348   7.915   3.706   5.380  2.0124  1.1825  1.7128
19558SOL    HW260349   7.954   3.567   5.424  0.5222 -0.0216 -0.6078
19559SOL     OW60350   4.150   1.427   4.713  0.2433  0.3102  0.1351
19559SOL    HW160351   4.107   1.472   4.785 -0.7495  0.1257 -0.3296
19559SOL    HW260352   4.096   1.446   4.637  0.9351 -0.0093 -0.4527
19560SOL     OW60353   8.382   1.957   5.814  0.0587 -0.1080  0.4000
19560SOL    HW160354   8.290   1.942   5.790 -0.1380  0.5137  0.7502
19560SOL    HW260355   8.404   1.884   5.872  0.2163 -1.0392 -0.7824
19561SOL     OW60356   6.719   2.166   4.001 -0.0175  0.3822  0.4232
19561SOL    HW160357   6.651   2.172   3.935 -0.7699 -1.4104  0.9559
19561SOL    HW260358   6.701   2.237   4.062 -0.1946  1.1445 -0.4972
19562SOL     OW60359   9.462   9.243   3.791 -0.2348 -0.3722 -0.0074
19562SOL    HW160360   9.496   9.324   3.753 -1.6614  0.9167  1.3146
19562SOL    HW260361   9.448   9.186   3.716 -0.1007  0.9665 -1.0988
19563SOL     OW60362   6.500   1.782   3.527 -0.1172  0.3512  0.2691
19563SOL    HW160363   6.422   1.745   3.485  0.6965 -0.4715 -0.5798
19563SOL    HW260364   6.556   1.809   3.454  0.4495  0.8159  0.8645
19564SOL     OW60365   1.928   3.836   7.571  0.7529 -0.3924  0.0106
19564SOL    HW160366   1.901   3.761   7.518  0.7933  0.0210 -0.6059
19564SOL    HW260367   1.923   3.804   7.661  0.7410 -1.1256 -0.2392
19565SOL     OW60368   2.461   5.001   7.664 -0.4357  0.0591 -0.2049
19565SOL    HW160369   2.420   5.001   7.578 -0.0456  1.8035 -0.4239
19565SOL    HW260370   2.443   4.914   7.700 -0.9072 -0.5622 -1.8894
19566SOL     OW60371   6.681   5.629   0.526 -0.2671  0.0901  0.3611
19566SOL    HW160372   6.629   5.705   0.552 -1.5591 -0.8333  0.5901
19566SOL    HW260373   6.628   5.553   0.553  0.8039 -0.8938 -0.2043
19567SOL     OW60374   9.068   0.339   3.086  0.1671 -0.0509  0.0118
19567SOL    HW160375   9.013   0.320   3.009 -1.0080 -1.3572  1.1237
19567SOL    HW260376   9.018   0.404   3.136 -0.3764 -1.1822  0.9846
19568SOL     OW60377   2.504   5.937   2.762 -0.3672  0.1875  0.1049
19568SOL    HW160378   2.530   6.028   2.749  3.2095 -0.8265 -0.9896
19568SOL    HW260379   2.477   5.907   2.675 -1.4447  0.1267  0.4422
19569SOL     OW60380   0.352   7.994   5.830  0.2696  0.2768 -0.3465
19569SOL    HW160381   0.331   8.020   5.740 -0.9486  1.4692  0.2629
19569SOL    HW260382   0.353   7.898   5.827 -1.7331  0.2271 -1.2259
19570SOL     OW60383   8.782   2.966   7.110 -0.1840 -0.0463 -0.0467
19570SOL    HW160384   8.829   3.040   7.071  0.0563 -0.1174  0.1065
19570SOL    HW260385   8.740   2.922   7.036 -1.3792  0.9688 -0.0175
19571SOL     OW60386   8.956   7.704   8.964  0.5055 -0.0562 -0.1201
19571SOL    HW160387   8.999   7.638   9.018 -1.0934 -0.7701  0.3424
19571SOL    HW260388   8.916   7.653   8.893  0.0477  0.5377 -0.2877
19572SOL     OW60389   1.800   6.151   7.027  0.0591  0.0466 -0.0663
19572SOL    HW160390   1.865   6.091   7.065  0.5113  1.3295  1.2721
19572SOL    HW260391   1.839   6.181   6.945 -0.3404 -1.7274 -0.9640
19573SOL     OW60392   3.572   3.597   5.987 -0.4468  0.2358  0.0105
19573SOL    HW160393   3.656   3.552   5.996 -0.5395  0.2380  0.9922
19573SOL    HW260394   3.575   3.638   5.901  0.0438 -0.8309 -0.4964
19574SOL     OW60395   7.650   8.091   8.510  0.0742 -0.5133 -0.0800
19574SOL    HW160396   7.559   8.073   8.487 -0.3413 -0.3124  1.3192
19574SOL    HW260397   7.693   8.005   8.506  0.1011 -0.4359 -1.8455
19575SOL     OW60398   7.956   1.477   1.541  0.0572  0.4323 -0.8228
19575SOL    HW160399   7.945   1.382   1.553 -0.2468  0.5455 -0.1751
19575SOL    HW260400   7.980   1.486   1.449  1.0417 -0.3605 -0.6765
19576SOL     OW60401   0.665   7.064   6.417  0.3596  0.2134  0.2702
19576SOL    HW160402   0.616   7.007   6.478 -2.2294  1.1136 -0.8434
19576SOL    HW260403   0.736   7.099   6.470 -0.5618 -0.6637  2.2059
19577SOL     OW60404   4.694   5.803   4.423 -0.2884 -0.7170  0.2021
19577SOL    HW160405   4.748   5.726   4.407  0.1237 -1.3004  3.6284
19577SOL    HW260406   4.742   5.851   4.491 -1.8022  1.2402 -0.0343
19578SOL     OW60407   5.864   3.845   7.753 -0.5182 -0.5125  0.1136
19578SOL    HW160408   5.849   3.753   7.774 -0.5160 -0.9114 -1.4488
19578SOL    HW260409   5.933   3.844   7.686  0.4035  0.7266  0.9872
19579SOL     OW60410   8.652   6.142   5.822 -0.5674 -0.4853  0.2507
19579SOL    HW160411   8.673   6.117   5.912 -1.7656  0.0945  0.7009
19579SOL    HW260412   8.683   6.068   5.769 -1.0250 -1.4125  1.2486
19580SOL     OW60413   4.929   2.590   7.348 -0.3786 -0.2165  0.2778
19580SOL    HW160414   4.968   2.502   7.345  1.1802  0.4123  0.8215
19580SOL    HW260415   4.868   2.586   7.421 -1.6101 -1.3077 -0.7516
19581SOL     OW60416   5.224   4.797   3.037 -0.1069 -0.0171 -0.3338
19581SOL    HW160417   5.135   4.768   3.015 -0.3151  0.2766  0.1236
19581SOL    HW260418   5.212   4.862   3.106  0.5164 -0.6955  0.4391
19582SOL     OW60419   6.854   9.545   2.442  0.0349 -0.2064  0.1530
19582SOL    HW160420   6.765   9.510   2.449  0.0465  0.0587  2.5792
19582SOL    HW260421   6.846   9.636   2.471  1.3731 -0.7890  2.6254
19583SOL     OW60422   6.033   7.131   3.747 -0.1931  0.3396  0.1482
19583SOL    HW160423   6.086   7.138   3.826  1.0395 -0.3959 -0.5575
19583SOL    HW260424   6.097   7.108   3.678 -1.1382  1.4425 -1.1517
19584SOL     OW60425   9.183   3.617   7.759 -0.1945  0.9330  0.2408
19584SOL    HW160426   9.175   3.711   7.773 -1.5894  1.0236 -0.9136
19584SOL    HW260427   9.250   3.608   7.691  1.4371  0.9271  1.7907
19585SOL     OW60428   9.205   8.840   5.992  0.1361  0.7317  0.1906
19585SOL    HW160429   9.251   8.870   6.071 -1.9792  1.2135  1.2976
19585SOL    HW260430   9.146   8.772   6.023  0.1141  0.0618 -1.2204
19586SOL     OW60431   8.743   3.533   1.914  0.4406 -0.3780  0.1379
19586SOL    HW160432   8.719   3.489   1.833 -2.0102 -0.2782  0.7412
19586SOL    HW260433   8.727   3.468   1.983 -0.7469  0.6028  0.8153
19587SOL     OW60434   6.068   0.118   5.747 -0.2494  0.5991 -0.1774
19587SOL    HW160435   6.122   0.042   5.767 -1.4499  0.1691  1.6693
19587SOL    HW260436   5.979   0.083   5.737 -0.5585  1.5577 -1.0168
19588SOL     OW60437   2.658   2.796   5.907  0.0947  0.6099 -0.3867
19588SOL    HW160438   2.710   2.823   5.983 -2.3742  2.5488  0.7350
19588SOL    HW260439   2.682   2.858   5.838  1.3304 -0.3180 -0.8428
19589SOL     OW60440   6.478   7.899   4.641 -0.2589 -0.0662  0.7520
19589SOL    HW160441   6.432   7.926   4.720 -0.6682 -0.8690  0.7996
19589SOL    HW260442   6.428   7.937   4.569 -0.5609 -0.3094  0.8338
19590SOL     OW60443   3.379   3.713   6.982  0.3441 -0.2591 -0.1418
19590SOL    HW160444   3.422   3.770   6.918  0.8453 -1.6478 -1.0964
19590SOL    HW260445   3.451   3.676   7.033 -0.0439  0.7347  1.1780
19591SOL     OW60446   1.128   8.901   2.095 -0.2128  0.2249  0.4488
19591SOL    HW160447   1.184   8.825   2.082  0.5115  0.7339  0.5397
19591SOL    HW260448   1.182   8.964   2.142 -0.4904  1.1473 -0.4065
19592SOL     OW60449   3.473   3.625   3.645 -0.4119 -0.1127 -0.4935
19592SOL    HW160450   3.442   3.700   3.695  1.5115  0.9991 -0.8751
19592SOL    HW260451   3.548   3.658   3.595  0.9033 -2.4022 -0.1917
19593SOL     OW60452   6.878   3.246   7.722 -0.0817  0.6051 -0.1360
19593SOL    HW160453   6.923   3.210   7.646 -0.9315  1.5177 -1.0975
19593SOL    HW260454   6.947   3.288   7.773  0.5380 -0.2618 -0.2367
19594SOL     OW60455   4.885   1.780   5.419 -0.3009 -0.2285  0.5765
19594SOL    HW160456   4.903   1.687   5.432  0.4433 -0.2814 -0.7136
19594SOL    HW260457   4.797   1.783   5.383  1.2124 -0.8326 -3.6490
19595SOL     OW60458   8.423   7.969   7.748 -0.3921  0.1625  0.2095
19595SOL    HW160459   8.447   7.988   7.657  0.2373  2.9171  0.8755
19595SOL    HW260460   8.334   7.935   7.743 -0.3209  0.1318 -1.4278
19596SOL     OW60461   5.806   5.663   3.185  0.0510  0.2092  0.0553
19596SOL    HW160462   5.877   5.713   3.225 -0.7426  0.4579  1.1994
19596SOL    HW260463   5.775   5.605   3.254 -1.5723  0.8810 -0.0453
19597SOL     OW60464   1.102   2.283   9.116  0.2232 -0.2308 -0.6959
19597SOL    HW160465   1.177   2.248   9.164  0.3422  0.8625 -0.0431
19597SOL    HW260466   1.026   2.247   9.160  0.2649  2.1380  1.5610
19598SOL     OW60467   7.438   7.356   3.843  0.4300 -0.0381  0.2180
19598SOL    HW160468   7.492   7.421   3.887  1.7453 -1.8062  1.3215
19598SOL    HW260469   7.422   7.394   3.756  2.5496  1.0268  0.2289
19599SOL     OW60470   6.244   5.286   7.620  0.4225 -0.3571  0.4713
19599SOL    HW160471   6.248   5.379   7.642 -0.6876 -0.4266  1.0551
19599SOL    HW260472   6.176   5.280   7.552  1.2818 -0.6096 -0.3894
19600SOL     OW60473   9.469   1.775   0.016  0.0266  0.3354  0.0129
19600SOL    HW160474   9.410   1.699   0.012  0.7124 -0.2908  1.2207
19600SOL    HW260475   9.419   1.846  -0.024 -0.7869 -0.6494 -0.7935
19601SOL     OW60476   8.737   5.002   6.626 -0.4286 -0.3927 -0.2269
19601SOL    HW160477   8.736   5.004   6.721 -0.4715  0.4284 -0.2435
19601SOL    HW260478   8.678   5.072   6.599  0.9681  0.6077 -0.8516
19602SOL     OW60479   4.360   6.975   1.566 -0.3663  0.3354 -0.0369
19602SOL    HW160480   4.327   6.887   1.547  1.9977 -0.3981 -1.3078
19602SOL    HW260481   4.288   7.019   1.610 -2.3670 -1.5708 -1.1698
19603SOL     OW60482   7.141   8.767   3.088  0.1114  0.6569 -0.2158
19603SOL    HW160483   7.175   8.781   3.176 -3.1298 -0.7495  1.4139
19603SOL    HW260484   7.115   8.854   3.058 -2.0509  0.8065  1.7953
19604SOL     OW60485   6.399   9.381   6.438 -0.3400 -0.3509  0.6962
19604SOL    HW160486   6.495   9.389   6.434 -0.4964  1.8054 -0.5796
19604SOL    HW260487   6.371   9.457   6.489 -1.5100  1.1508 -1.9795
19605SOL     OW60488   4.996   8.422   6.404  0.4070  0.9620 -0.0478
19605SOL    HW160489   4.952   8.339   6.384  0.2256  1.0996 -0.2183
19605SOL    HW260490   4.943   8.489   6.361 -0.4000  1.3469  1.4917
19606SOL     OW60491   0.696   8.247   1.018  0.0466  0.6004  0.1989
19606SOL    HW160492   0.778   8.289   1.044  0.3279 -0.0339  0.3555
19606SOL    HW260493   0.709   8.155   1.038 -0.5785  0.4422 -0.1051
19607SOL     OW60494   1.756   4.179   1.606  0.8015 -0.1669 -0.5594
19607SOL    HW160495   1.661   4.168   1.606  0.6220  1.1433 -0.1552
19607SOL    HW260496   1.779   4.185   1.513  0.6922 -1.8179 -0.7213
19608SOL     OW60497   6.985   0.967   8.562  0.0395 -0.2153 -0.5571
19608SOL    HW160498   7.031   0.897   8.516  0.5954 -0.3699  0.2001
19608SOL    HW260499   6.946   1.020   8.493 -4.2291 -3.6543 -1.2151
19609SOL     OW60500   6.774   2.157   0.909 -0.9535  0.5898 -0.1942
19609SOL    HW160501   6.751   2.125   0.821  1.0830  1.8661 -1.2919
19609SOL    HW260502   6.726   2.239   0.918 -1.7421  0.0899  0.2149
19610SOL     OW60503   8.274   3.603   3.583  0.1179  0.3223  0.1248
19610SOL    HW160504   8.300   3.511   3.584 -2.2000 -0.4107 -0.3708
19610SOL    HW260505   8.341   3.646   3.530  1.8466 -0.8306  1.2539
19611SOL     OW60506   0.883   7.323   4.079  0.0224 -0.3007  0.2373
19611SOL    HW160507   0.800   7.337   4.033  0.7043  1.0839 -0.6386
19611SOL    HW260508   0.950   7.347   4.015  1.0553 -0.2010  1.3254
19612SOL     OW60509   3.619   4.053   7.244 -0.3060 -0.8370  0.1056
19612SOL    HW160510   3.545   4.101   7.207  0.7183  1.1591  0.5128
19612SOL    HW260511   3.635   3.982   7.181 -1.1914 -0.0105 -1.1007
19613SOL     OW60512   8.434   4.578   2.244  0.8010  0.2541  0.4514
19613SOL    HW160513   8.485   4.528   2.308  0.8187 -0.4647 -0.1156
19613SOL    HW260514   8.348   4.537   2.246 -0.2059  2.2037  2.2916
19614SOL     OW60515   3.070   4.921   9.343  0.1432 -0.3009  0.0837
19614SOL    HW160516   3.034   4.884   9.263  0.0038 -1.1178  0.5070
19614SOL    HW260517   3.165   4.910   9.334  0.1058 -0.7508  0.1895
19615SOL     OW60518   1.639   2.405   6.669 -0.2010 -0.2988  0.6354
19615SOL    HW160519   1.609   2.315   6.685  0.1692 -0.5822 -0.2026
19615SOL    HW260520   1.602   2.428   6.584  0.6059 -0.0630  0.3355
19616SOL     OW60521   8.585   5.027   5.805 -0.0315 -0.6385  0.1071
19616SOL    HW160522   8.575   4.940   5.842 -0.2503 -0.6687 -0.0230
19616SOL    HW260523   8.680   5.043   5.805 -0.0413  1.1054  4.7801
19617SOL     OW60524   4.881   1.193   2.778 -0.0982  0.0399  0.1170
19617SOL    HW160525   4.970   1.209   2.811  0.0457  1.4591 -0.8917
19617SOL    HW260526   4.867   1.261   2.713 -2.1484  0.1636  0.6364
19618SOL     OW60527   8.353   9.081   1.579 -0.1233  0.3990  0.2461
19618SOL    HW160528   8.416   9.035   1.523 -0.6349 -0.3953  0.3094
19618SOL    HW260529   8.375   9.053   1.668 -0.0508  0.7529  0.3398
19619SOL     OW60530   4.254   3.921   8.320 -0.3027  0.2886  0.0536
19619SOL    HW160531   4.267   4.006   8.360 -0.2478 -0.2461  1.2083
19619SOL    HW260532   4.164   3.897   8.341 -0.2894  0.0179 -0.1856
19620SOL     OW60533   0.248   1.232   4.881 -0.5452  0.2784  0.1669
19620SOL    HW160534   0.271   1.201   4.969  0.6060  0.1452 -0.1705
19620SOL    HW260535   0.261   1.327   4.884 -0.4400  0.2653  0.1161
19621SOL     OW60536   2.773   2.016   3.147 -0.3281  0.3811 -0.0705
19621SOL    HW160537   2.790   1.964   3.225  1.8309  2.3567  0.8845
19621SOL    HW260538   2.687   2.056   3.163 -0.6693 -0.5447  0.4824
19622SOL     OW60539   2.981   0.088   5.018  0.0361 -0.5341  0.9340
19622SOL    HW160540   2.941   0.163   5.062  0.5348 -0.0076  0.5206
19622SOL    HW260541   2.963   0.102   4.925 -0.6944 -1.4442  0.9267
19623SOL     OW60542   0.296   8.650   4.890  0.5460 -0.4258 -0.5495
19623SOL    HW160543   0.281   8.726   4.834  0.3116  0.6156  0.8617
19623SOL    HW260544   0.208   8.621   4.915  0.6512  0.6611  1.2316
19624SOL     OW60545   7.504   4.481   1.032  0.1525  0.3972 -0.3477
19624SOL    HW160546   7.563   4.430   0.976  0.7213  1.0732 -0.3808
19624SOL    HW260547   7.461   4.542   0.972 -1.1090 -0.5435 -0.4360
19625SOL     OW60548   7.443   4.426   3.446  0.1415  0.0323  0.7315
19625SOL    HW160549   7.473   4.428   3.537 -1.2391  1.5831  1.2022
19625SOL    HW260550   7.515   4.462   3.395  1.4020 -1.9514  1.0091
19626SOL     OW60551   8.986   8.733   3.391  0.5203  0.1267  0.0951
19626SOL    HW160552   8.962   8.762   3.303 -1.7869 -0.9097  0.3046
19626SOL    HW260553   8.978   8.638   3.388 -1.1349  0.1489  1.7701
19627SOL     OW60554   4.072   9.206   6.873  0.4131  0.1299 -0.7250
19627SOL    HW160555   4.031   9.185   6.957  1.5473 -0.7927 -0.3843
19627SOL    HW260556   4.005   9.255   6.826 -0.9980 -1.1159 -0.0906
19628SOL     OW60557   5.698   2.436   1.685 -0.1638 -0.6803 -0.3613
19628SOL    HW160558   5.728   2.406   1.771 -0.7094  0.1705  0.1327
19628SOL    HW260559   5.618   2.385   1.669 -0.2899 -0.5400 -0.1784
19629SOL     OW60560   9.319   8.598   2.770 -0.4448 -0.1891 -0.3237
19629SOL    HW160561   9.361   8.645   2.842 -0.0232  0.5645 -1.0442
19629SOL    HW260562   9.392   8.556   2.723 -0.4129  1.4773 -1.8352
19630SOL     OW60563   7.186   0.026   6.419 -0.1094 -0.4155  0.0798
19630SOL    HW160564   7.245  -0.010   6.352 -1.8410 -1.1293 -1.1427
19630SOL    HW260565   7.157   0.110   6.384  0.7532  0.3127  1.0457
19631SOL     OW60566   7.915   9.638   5.562 -0.1570  0.6036  0.7424
19631SOL    HW160567   7.848   9.661   5.626 -0.3538 -1.1215  1.2038
19631SOL    HW260568   7.998   9.652   5.608 -0.3013 -0.9003  1.5156
19632SOL     OW60569   5.378   5.354   0.954  0.6212  0.3707  0.3783
19632SOL    HW160570   5.371   5.381   0.862 -0.3840 -0.6814  0.1165
19632SOL    HW260571   5.412   5.431   0.999  0.8095  1.0192 -0.8182
19633SOL     OW60572   4.204   5.601   9.125  0.0904 -0.1335 -0.1782
19633SOL    HW160573   4.159   5.685   9.130 -1.7249 -0.9680 -1.5512
19633SOL    HW260574   4.255   5.606   9.044  1.7790  0.4320  0.8676
19634SOL     OW60575   5.462   7.421   4.160  0.1985 -0.5669 -0.2950
19634SOL    HW160576   5.405   7.479   4.110  0.2830 -1.3457 -1.3292
19634SOL    HW260577   5.469   7.462   4.246 -2.6746 -0.8752  0.1924
19635SOL     OW60578   7.689   5.156   8.007 -0.1645 -0.2277 -0.0093
19635SOL    HW160579   7.780   5.147   7.981  0.2416 -0.9478  1.5495
19635SOL    HW260580   7.642   5.094   7.950  0.2513  0.3339 -0.9940
19636SOL     OW60581   7.342   9.501   9.513  0.1174 -0.0429 -0.1956
19636SOL    HW160582   7.348   9.445   9.590 -1.0677  2.1738  1.6274
19636SOL    HW260583   7.252   9.490   9.482  0.5432 -0.8072 -1.2117
19637SOL     OW60584   5.706   0.911   6.986  0.7682  0.3043 -0.4244
19637SOL    HW160585   5.717   0.822   7.021  2.6585  1.5568  2.6271
19637SOL    HW260586   5.623   0.941   7.024  1.4280  0.6857  0.7756
19638SOL     OW60587   5.756   3.110   7.825 -0.1549  0.3212 -0.4236
19638SOL    HW160588   5.828   3.093   7.885  0.9769  0.6454 -1.6304
19638SOL    HW260589   5.733   3.024   7.790 -0.6651  0.1623  0.2795
19639SOL     OW60590   8.551   2.837   8.600  0.2001  0.1799 -0.0322
19639SOL    HW160591   8.555   2.804   8.690 -0.2596 -0.9717 -0.4118
19639SOL    HW260592   8.599   2.772   8.549 -0.1125  0.4748 -0.7155
19640SOL     OW60593   4.583   9.230   5.732  0.3181 -0.2335 -0.4246
19640SOL    HW160594   4.643   9.201   5.800 -0.3786 -0.8005 -0.0488
19640SOL    HW260595   4.580   9.158   5.669 -1.3658 -0.9969  0.4774
19641SOL     OW60596   4.845   3.862   3.087 -0.1059  0.0800  0.2339
19641SOL    HW160597   4.759   3.891   3.059 -0.7001 -0.9180  0.9344
19641SOL    HW260598   4.888   3.831   3.007 -0.4299  0.5120 -0.1067
19642SOL     OW60599   3.939   6.973   6.183  0.0223 -0.0571 -0.0679
19642SOL    HW160600   3.941   6.935   6.271 -0.2583  1.2041  0.5153
19642SOL    HW260601   3.850   6.959   6.153 -0.3941  1.0309  0.5836
19643SOL     OW60602   2.608   0.366   2.801  0.0082  0.5139 -0.3314
19643SOL    HW160603   2.649   0.320   2.727 -2.8810 -1.3554 -0.9548
19643SOL    HW260604   2.654   0.333   2.878 -0.7636 -2.1657 -0.9235
19644SOL     OW60605   5.729   0.604   0.437 -0.0778  0.0803  0.1549
19644SOL    HW160606   5.686   0.690   0.435 -1.0850 -0.4112  0.2012
19644SOL    HW260607   5.746   0.584   0.345 -0.3795  0.0701  0.1003
19645SOL     OW60608   1.312   1.309   1.113 -0.0750  0.3799 -0.0123
19645SOL    HW160609   1.402   1.301   1.146  0.2795 -0.1448 -1.0542
19645SOL    HW260610   1.263   1.244   1.163  0.1408  0.6022  0.4980
19646SOL     OW60611   0.499   3.788   0.940  0.1322 -0.1785  0.3059
19646SOL    HW160612   0.516   3.711   0.994  0.2828  0.3653  1.0619
19646SOL    HW260613   0.555   3.777   0.864  0.6914 -0.4754  0.7484
19647SOL     OW60614   9.545   1.954   1.881  0.2135 -0.8205 -0.5346
19647SOL    HW160615   9.514   1.939   1.971  1.6973 -0.1985  0.1149
19647SOL    HW260616   9.557   2.049   1.875  0.9488 -0.9442 -1.1076
19648SOL     OW60617   4.759   9.006   5.395 -0.2113 -0.8263 -0.0875
19648SOL    HW160618   4.775   9.095   5.363 -0.7985 -1.5273 -2.5699
19648SOL    HW260619   4.844   8.964   5.391 -0.0402 -0.5542  0.5460
19649SOL     OW60620   4.001   3.862   1.457  0.1733 -0.0783  0.0179
19649SOL    HW160621   4.071   3.861   1.392  2.2522  0.3374  2.1215
19649SOL    HW260622   4.040   3.825   1.536 -2.5575 -1.5673  0.8242
19650SOL     OW60623   7.825   2.672   1.212 -0.6112  0.1828 -0.7861
19650SOL    HW160624   7.838   2.705   1.301 -0.8936  0.5946 -0.8942
19650SOL    HW260625   7.767   2.596   1.223  0.3542 -0.5327 -0.4976
19651SOL     OW60626   9.317   1.338   3.802 -0.4654  0.2606  0.0174
19651SOL    HW160627   9.356   1.414   3.845 -1.2057  0.6603  0.0060
19651SOL    HW260628   9.303   1.366   3.711  0.3881 -0.3160 -0.2962
19652SOL     OW60629   8.663   9.477   4.416 -0.0902 -0.4288  0.3421
19652SOL    HW160630   8.702   9.397   4.450  0.9524 -1.9620 -3.8791
19652SOL    HW260631   8.721   9.547   4.447  1.7565 -1.8461  0.2500
19653SOL     OW60632   5.974   4.262   2.523  0.2864  0.6311 -0.5067
19653SOL    HW160633   6.048   4.270   2.464 -0.6766 -1.6815 -2.1643
19653SOL    HW260634   5.942   4.172   2.511 -2.3955  1.3240  0.5867
19654SOL     OW60635   2.593   5.283   9.664  0.3369 -0.6484 -0.1108
19654SOL    HW160636   2.537   5.226   9.612 -0.4861 -0.4987  0.5739
19654SOL    HW260637   2.597   5.240   9.750 -1.6820  1.0895  0.9624
19655SOL     OW60638   0.475   4.042   0.672  0.0691 -0.0619  0.3320
19655SOL    HW160639   0.383   4.065   0.686  0.5387  1.8148  0.6454
19655SOL    HW260640   0.473   3.951   0.643 -1.9373  0.1421 -0.3315
19656SOL     OW60641   2.384   2.044   0.593 -0.0529 -0.1838  0.3235
19656SOL    HW160642   2.439   2.031   0.515 -0.6218 -2.2373  0.1991
19656SOL    HW260643   2.299   2.008   0.568 -0.9442  1.2945  1.1316
19657SOL     OW60644   6.100   5.012   8.389  0.1435  0.2069  0.0252
19657SOL    HW160645   6.082   4.938   8.331 -0.5654 -1.4402  2.2196
19657SOL    HW260646   6.192   5.034   8.371  0.2824 -0.9960 -0.9048
19658SOL     OW60647   7.374   6.729   6.769 -0.1151 -0.4193 -0.2398
19658SOL    HW160648   7.410   6.685   6.846 -0.0812 -0.4860 -0.2934
19658SOL    HW260649   7.311   6.667   6.733  0.2774 -0.6244 -0.5867
19659SOL     OW60650   6.855   5.564   4.949 -0.0717 -0.5961  0.1877
19659SOL    HW160651   6.879   5.616   5.026 -0.0934  0.9730 -0.8278
19659SOL    HW260652   6.850   5.474   4.982 -2.5706  0.3008  2.5863
19660SOL     OW60653   4.623   2.951   7.151 -0.0741 -0.5141 -0.1836
19660SOL    HW160654   4.666   2.913   7.228  0.3532  1.7136  0.7395
19660SOL    HW260655   4.574   3.025   7.186 -3.2296 -1.8177 -1.4700
19661SOL     OW60656   6.179   0.678   5.248 -0.3137  0.0384 -0.2654
19661SOL    HW160657   6.208   0.671   5.339 -0.5310  0.3636 -0.1697
19661SOL    HW260658   6.084   0.687   5.253 -0.4817 -1.2929 -0.5891
19662SOL     OW60659   3.732   0.309   6.887  0.1025 -0.2775 -0.4871
19662SOL    HW160660   3.642   0.320   6.857  0.1439 -1.3299 -1.0609
19662SOL    HW260661   3.739   0.364   6.965 -0.8050  0.4176 -0.8859
19663SOL     OW60662   1.056   3.715   0.154  0.0266  0.2971  0.2168
19663SOL    HW160663   0.970   3.672   0.152 -0.8385  1.9350  0.1317
19663SOL    HW260664   1.037   3.806   0.132  2.0002  0.4001 -1.2641
19664SOL     OW60665   2.114   8.020   6.215 -0.2254 -0.5990  0.2716
19664SOL    HW160666   2.085   7.947   6.160 -1.6611 -0.9157  1.4007
19664SOL    HW260667   2.129   7.981   6.301  0.6931  0.1316  0.4599
19665SOL     OW60668   6.025   6.612   2.290 -0.0941 -0.1180  0.1244
19665SOL    HW160669   5.997   6.634   2.201  1.2421  1.3124  0.0221
19665SOL    HW260670   6.121   6.610   2.286  0.1392  2.3841  2.0025
19666SOL     OW60671   9.182   5.129   9.477 -0.4212  0.1784  0.2999
19666SOL    HW160672   9.134   5.104   9.398 -0.2405  0.0203  0.2391
19666SOL    HW260673   9.228   5.210   9.453  1.1001 -0.8250 -0.3596
19667SOL     OW60674   2.312   7.963   8.059 -0.2264  0.0781  0.2191
19667SOL    HW160675   2.403   7.962   8.088 -0.2888  0.8919  0.4912
19667SOL    HW260676   2.299   7.879   8.015  0.2289 -0.6738  1.4720
19668SOL     OW60677   4.463   0.788   4.896  0.3775 -0.5095  0.2032
19668SOL    HW160678   4.435   0.773   4.987  1.1168 -1.7177  0.2508
19668SOL    HW260679   4.457   0.883   4.885  0.9928 -0.2574  1.7700
19669SOL     OW60680   3.128   5.431   3.986  0.0177 -0.3456  1.6186
19669SOL    HW160681   3.152   5.519   4.014 -0.4245  0.3886 -0.1597
19669SOL    HW260682   3.032   5.433   3.979  0.0676 -0.6582  0.6699
19670SOL     OW60683   2.418   9.346   5.178 -0.1591  0.4931  0.2050
19670SOL    HW160684   2.468   9.267   5.157  0.0946  0.2989  1.4642
19670SOL    HW260685   2.333   9.333   5.136  0.4440  0.3233 -1.0197
19671SOL     OW60686   2.071   2.379   4.142  0.0031  0.2353 -0.4333
19671SOL    HW160687   2.044   2.288   4.136 -0.0128  0.0725  1.4728
19671SOL    HW260688   2.156   2.376   4.187  0.2439  1.1288 -0.8016
19672SOL     OW60689   6.706   4.184   3.680 -1.0783  0.7927  0.4867
19672SOL    HW160690   6.682   4.110   3.624  2.6982 -2.1926  2.3823
19672SOL    HW260691   6.668   4.163   3.765  0.6988  0.5319  1.2462
19673SOL     OW60692   4.721   6.375   3.200  0.1680 -0.0054  0.1117
19673SOL    HW160693   4.761   6.299   3.156  1.1333  0.4179  0.2318
19673SOL    HW260694   4.675   6.421   3.130 -0.7450 -0.8826  0.1031
19674SOL     OW60695   6.923   0.974   0.767 -0.2989  0.2655  0.5197
19674SOL    HW160696   7.008   1.019   0.771  0.1807 -0.5888  0.1735
19674SOL    HW260697   6.862   1.035   0.809  0.4897  0.8784  0.8060
19675SOL     OW60698   5.922   5.302   9.522 -0.1643  0.0774  0.0004
19675SOL    HW160699   6.010   5.320   9.489 -0.8025  2.0693 -0.7669
19675SOL    HW260700   5.897   5.382   9.567 -1.4601 -0.6021  0.5303
19676SOL     OW60701   8.110   0.120   3.221 -0.1984 -0.1979  0.4596
19676SOL    HW160702   8.105   0.209   3.256 -1.3910 -0.4451  0.9429
19676SOL    HW260703   8.194   0.118   3.174 -0.1516  1.1738  0.4383
19677SOL     OW60704   8.414   1.889   7.859  0.0812 -0.3721 -0.3075
19677SOL    HW160705   8.419   1.956   7.927 -1.5756 -0.7037  0.2026
19677SOL    HW260706   8.427   1.937   7.777 -0.6335  0.5110  0.0737
19678SOL     OW60707   1.224   5.903   5.540 -0.0930 -0.1055  0.2127
19678SOL    HW160708   1.197   5.834   5.600  2.1277 -0.9050  0.3852
19678SOL    HW260709   1.244   5.858   5.458 -1.8410  0.8113 -0.7775
19679SOL     OW60710   6.365   3.421   4.951 -0.4511  0.3760 -0.2076
19679SOL    HW160711   6.385   3.374   4.870  0.6450  0.1386  0.1924
19679SOL    HW260712   6.283   3.468   4.931 -0.6111 -0.2837 -1.1886
19680SOL     OW60713   5.134   1.453   6.819 -0.3771  0.1406  0.4447
19680SOL    HW160714   5.141   1.360   6.799 -1.5396  0.0557  0.3424
19680SOL    HW260715   5.208   1.494   6.774  1.7050 -1.0077  2.5562
19681SOL     OW60716   2.287   0.732   3.743  0.1472  0.0389  0.0517
19681SOL    HW160717   2.333   0.816   3.741  2.4595 -1.1443  0.5649
19681SOL    HW260718   2.297   0.698   3.654  0.2864 -0.2284  0.1682
19682SOL     OW60719   8.765   5.923   4.001 -0.4395 -0.2095  0.3420
19682SOL    HW160720   8.747   6.017   4.011 -0.6613 -0.0671 -1.0437
19682SOL    HW260721   8.860   5.915   4.010 -0.3865  0.2034  0.1853
19683SOL     OW60722   7.028   7.275   9.413 -0.5559 -0.3936 -0.3925
19683SOL    HW160723   7.059   7.199   9.364 -0.0312  0.8695 -2.1193
19683SOL    HW260724   7.108   7.315   9.448 -0.7558 -0.1649 -0.1925
19684SOL     OW60725   4.232   3.866   2.884  0.2205  0.0167 -0.5176
19684SOL    HW160726   4.315   3.914   2.879 -0.0840  0.6736  0.3923
19684SOL    HW260727   4.172   3.917   2.830  0.3052 -0.2447 -0.8620
19685SOL     OW60728   0.083   9.210   5.216  0.3490  0.1020  0.0792
19685SOL    HW160729   0.097   9.132   5.270 -1.7653  0.2466  0.9560
19685SOL    HW260730   0.170   9.250   5.207  1.3222 -1.8448  0.3587
19686SOL     OW60731   0.197   1.014   4.698  0.2159  0.0939  0.1543
19686SOL    HW160732   0.217   1.080   4.765 -1.1880  0.4058  0.3051
19686SOL    HW260733   0.140   0.952   4.743  0.4094 -0.4721 -0.3734
19687SOL     OW60734   7.730   0.447   3.001 -0.2243  0.1498  0.4144
19687SOL    HW160735   7.666   0.417   3.066 -1.6995 -0.1925 -1.1505
19687SOL    HW260736   7.814   0.443   3.048 -1.2577  0.2774  2.4158
19688SOL     OW60737   6.246   1.803   9.628  0.2499  0.2265  0.0142
19688SOL    HW160738   6.188   1.853   9.685  0.0245  0.3860 -0.3507
19688SOL    HW260739   6.200   1.800   9.544  0.4946 -0.1613 -0.1068
19689SOL     OW60740   0.285   1.060   1.599  0.1594 -0.0899 -0.2755
19689SOL    HW160741   0.327   1.019   1.523  0.6910 -0.4848  0.2277
19689SOL    HW260742   0.245   1.140   1.564  1.1184  0.1647 -0.8087
19690SOL     OW60743   9.080   9.625   7.651  0.4500  0.2003 -0.2333
19690SOL    HW160744   9.112   9.544   7.691  1.2387  1.4584  1.8592
19690SOL    HW260745   9.149   9.650   7.589  0.5690 -0.3390 -0.3221
19691SOL     OW60746   7.471   3.793   1.110  0.0394 -1.0454  0.1320
19691SOL    HW160747   7.526   3.860   1.070  0.2241 -1.6931 -0.7427
19691SOL    HW260748   7.466   3.724   1.043 -1.2754 -1.2995  0.4676
19692SOL     OW60749   5.307   1.211   7.671 -0.3209 -0.1279 -0.2143
19692SOL    HW160750   5.348   1.125   7.679  1.7130  0.8184  0.2205
19692SOL    HW260751   5.374   1.272   7.702 -2.3645  1.4833  1.3573
19693SOL     OW60752   3.166   7.434   8.016 -0.0636  0.1393  0.2525
19693SOL    HW160753   3.140   7.518   8.053  0.2887 -0.1122  1.0947
19693SOL    HW260754   3.248   7.453   7.970 -0.6891  0.5276 -0.7460
19694SOL     OW60755   3.796   5.394   7.786 -0.4502  0.5481 -0.4347
19694SOL    HW160756   3.720   5.364   7.735 -0.1640  1.0227 -1.1523
19694SOL    HW260757   3.858   5.322   7.781 -0.9488  0.0424  0.3856
19695SOL     OW60758   8.346   5.946   6.460 -0.2476  0.0584  0.8356
19695SOL    HW160759   8.265   5.969   6.415 -0.0069 -0.5066  0.0944
19695SOL    HW260760   8.349   6.006   6.535 -1.0314  0.5096  0.5243
19696SOL     OW60761   2.527   1.406   0.315  0.2687 -0.1780  0.2993
19696SOL    HW160762   2.442   1.412   0.358 -0.6478 -0.6445 -1.3492
19696SOL    HW260763   2.557   1.496   0.307 -0.7821  0.1208 -0.4239
19697SOL     OW60764   2.575   1.668   0.307 -0.9536  0.1278  0.1743
19697SOL    HW160765   2.642   1.727   0.342 -1.5634  0.1472  1.3676
19697SOL    HW260766   2.493   1.716   0.315 -1.4597 -0.8598  1.1713
19698SOL     OW60767   4.991   7.843   1.833 -0.0261 -0.2254 -0.5333
19698SOL    HW160768   5.018   7.760   1.872  0.1368 -0.1807 -0.5467
19698SOL    HW260769   4.897   7.835   1.821 -0.1584 -0.0495  0.3203
19699SOL     OW60770   7.555   5.073   4.437 -0.2694  0.9808 -0.3371
19699SOL    HW160771   7.475   5.067   4.490 -0.7821 -0.2096 -1.1997
19699SOL    HW260772   7.524   5.088   4.348  0.1497 -2.8574 -1.3258
19700SOL     OW60773   9.150   9.492   0.211 -0.2591 -0.6220 -0.4495
19700SOL    HW160774   9.188   9.404   0.210 -0.8146 -0.8657 -0.4365
19700SOL    HW260775   9.094   9.493   0.288 -1.3454 -0.7275 -1.2253
19701SOL     OW60776   7.913   7.340   7.633 -0.7894 -0.1173  0.3681
19701SOL    HW160777   8.000   7.301   7.645 -1.0731 -0.5316  1.1632
19701SOL    HW260778   7.882   7.305   7.550  0.0754  0.5761 -0.2753
19702SOL     OW60779   4.875   6.056   1.065 -0.0458 -0.0854 -0.0157
19702SOL    HW160780   4.798   6.000   1.053 -0.1375  0.0504 -0.0615
19702SOL    HW260781   4.875   6.077   1.158 -0.1488  0.0369 -0.0433
19703SOL     OW60782   1.220   3.344   8.234  0.0005 -0.4803 -0.7291
19703SOL    HW160783   1.312   3.366   8.247 -0.2642  1.6187 -1.8928
19703SOL    HW260784   1.219   3.248   8.225  1.7062 -0.8038  1.6083
19704SOL     OW60785   2.867   9.379   6.061 -0.2403 -0.0055  0.0257
19704SOL    HW160786   2.789   9.369   6.007  0.2891  3.2908 -1.5590
19704SOL    HW260787   2.844   9.446   6.125  0.2666 -1.4486  1.8253
19705SOL     OW60788   9.145   4.808   0.242  0.0492 -0.2005  0.1056
19705SOL    HW160789   9.081   4.845   0.303 -0.4547  0.7283 -0.9469
19705SOL    HW260790   9.106   4.724   0.216 -0.0869 -0.2615  0.5012
19706SOL     OW60791   3.941   8.796   5.092  0.3523  0.5582 -0.0246
19706SOL    HW160792   3.889   8.841   5.026 -2.5729  0.4100  1.9919
19706SOL    HW260793   3.913   8.705   5.086  0.4265  0.4534  1.0309
19707SOL     OW60794   4.792   6.875   3.082 -0.1177  0.0932 -0.1287
19707SOL    HW160795   4.704   6.856   3.048 -0.2129 -2.4232  1.3329
19707SOL    HW260796   4.800   6.970   3.075 -3.2462  0.4876  0.3873
19708SOL     OW60797   8.397   7.269   9.256 -0.0996  0.7694  0.2444
19708SOL    HW160798   8.337   7.342   9.274  0.7737  1.1265  1.8703
19708SOL    HW260799   8.374   7.203   9.321 -0.4621 -0.1663 -0.8190
19709SOL     OW60800   2.057   4.327   1.709  0.2752  1.0943  0.1256
19709SOL    HW160801   2.029   4.310   1.619 -0.6053  0.5787  0.4776
19709SOL    HW260802   1.975   4.333   1.759  0.7609  0.1832  1.0883
19710SOL     OW60803   2.930   0.884   5.220 -0.3655 -0.2196  0.3449
19710SOL    HW160804   2.994   0.875   5.149 -1.1022 -1.1617 -0.2255
19710SOL    HW260805   2.920   0.795   5.255 -0.2561  0.1778  1.4337
19711SOL     OW60806   3.882   5.681   2.079  0.2925 -0.1535  0.0686
19711SOL    HW160807   3.815   5.715   2.019  0.5842 -0.6255 -0.5298
19711SOL    HW260808   3.831   5.639   2.149 -0.0828  1.6368  0.9284
19712SOL     OW60809   4.992   4.797   5.423 -0.1759  0.1281 -0.5468
19712SOL    HW160810   4.924   4.769   5.362 -0.1837 -1.0657 -0.0202
19712SOL    HW260811   4.949   4.863   5.478 -1.1097 -1.0098  0.1364
19713SOL     OW60812   3.806   6.322   1.235  0.7777  0.2349  0.0099
19713SOL    HW160813   3.759   6.312   1.152 -0.8584  2.5181  0.5572
19713SOL    HW260814   3.791   6.239   1.281  0.2106 -0.3943 -1.2645
19714SOL     OW60815   4.685   2.485   5.692 -0.0733  0.5263 -0.5612
19714SOL    HW160816   4.667   2.522   5.606 -0.4557  1.6132 -0.0392
19714SOL    HW260817   4.744   2.549   5.733  0.4574 -0.1976 -0.1811
19715SOL     OW60818   1.576   4.870   5.605  0.3107  0.5911 -0.4606
19715SOL    HW160819   1.490   4.834   5.629  0.8064  0.1798  0.7760
19715SOL    HW260820   1.556   4.939   5.541 -1.1904  2.2739  1.6701
19716SOL     OW60821   1.364   7.898   8.015  0.9193 -0.0557  0.1475
19716SOL    HW160822   1.295   7.951   8.055  1.4162 -0.0780  1.0760
19716SOL    HW260823   1.327   7.810   8.011  0.5601  0.1090 -0.2111
19717SOL     OW60824   8.660   1.398   7.622  0.2264 -0.0502  0.4399
19717SOL    HW160825   8.739   1.386   7.675  0.5024 -1.5941 -0.2743
19717SOL    HW260826   8.692   1.410   7.533 -0.3465 -1.1128  0.0741
19718SOL     OW60827   3.727   8.270   4.652 -0.0543 -0.2360 -0.3584
19718SOL    HW160828   3.808   8.318   4.633 -0.6357  0.5073 -1.0200
19718SOL    HW260829   3.687   8.319   4.724 -1.1688  0.9575 -1.7152
19719SOL     OW60830   7.685   5.902   4.688 -0.0663 -1.2527  0.0751
19719SOL    HW160831   7.613   5.902   4.623  0.8850  1.4701 -1.1260
19719SOL    HW260832   7.723   5.814   4.681 -1.2725 -1.7027 -1.5939
19720SOL     OW60833   6.866   7.814   8.150  0.3596 -0.4701  0.0130
19720SOL    HW160834   6.901   7.845   8.067  0.2096 -1.9944 -0.6590
19720SOL    HW260835   6.938   7.823   8.212  0.6592  0.1274 -0.4167
19721SOL     OW60836   2.812   3.486   1.891  0.2068  0.4432 -0.0659
19721SOL    HW160837   2.859   3.461   1.811  0.8181  1.7609 -0.1377
19721SOL    HW260838   2.862   3.445   1.961  0.4666  0.4180 -0.2622
19722SOL     OW60839   4.466   6.930   7.220  0.0381  0.1156 -0.3344
19722SOL    HW160840   4.376   6.961   7.227  0.0644 -0.0373  0.7185
19722SOL    HW260841   4.505   6.947   7.306  1.6271  2.0842 -1.3536
19723SOL     OW60842   3.664   5.104   6.758 -0.1926 -0.2969 -0.2907
19723SOL    HW160843   3.627   5.191   6.770 -0.3475 -0.4646  0.5589
19723SOL    HW260844   3.669   5.068   6.847  2.1109 -0.2360 -0.3250
19724SOL     OW60845   4.555   6.160   1.190 -0.5353 -0.1645 -0.1956
19724SOL    HW160846   4.600   6.244   1.197 -0.8107  0.1032 -1.4332
19724SOL    HW260847   4.538   6.134   1.281  2.2109 -0.3440  0.3744
19725SOL     OW60848   0.171   3.010   7.200 -0.5579 -0.0174 -0.1951
19725SOL    HW160849   0.100   3.055   7.155 -0.3713  0.1381 -0.3368
19725SOL    HW260850   0.211   3.077   7.256 -0.5147 -0.1016 -0.1248
19726SOL     OW60851   0.910   0.650   5.681 -0.6771  0.9263  0.0811
19726SOL    HW160852   0.903   0.555   5.692 -1.8697  0.9859 -0.0177
19726SOL    HW260853   1.004   0.669   5.691 -0.4380 -0.2461  0.1708
19727SOL     OW60854   0.061   2.664   6.270 -0.4590  0.2422  0.4971
19727SOL    HW160855   0.066   2.582   6.221 -1.0189 -0.2612  1.2555
19727SOL    HW260856   0.151   2.696   6.272 -0.0867 -0.7661  0.8440
19728SOL     OW60857   8.701   7.616   0.229 -0.0841 -0.1421 -0.4440
19728SOL    HW160858   8.660   7.660   0.302 -1.0070 -0.9982 -0.4247
19728SOL    HW260859   8.752   7.684   0.185  1.5518  0.1261  1.7052
19729SOL     OW60860   8.919   6.207   6.969  0.3599  0.2860 -0.0074
19729SOL    HW160861   8.883   6.292   6.942  0.2520  0.0765 -0.5553
19729SOL    HW260862   8.850   6.144   6.946 -1.0918  0.3448  3.5741
19730SOL     OW60863   4.548   4.543   4.602 -0.1531  0.4294 -0.5061
19730SOL    HW160864   4.525   4.490   4.526 -0.8437 -0.4361  0.2789
19730SOL    HW260865   4.570   4.478   4.670 -1.3824  1.1311  0.5946
19731SOL     OW60866   2.867   0.193   3.993  0.4633 -0.1419  0.1146
19731SOL    HW160867   2.864   0.100   3.970  0.8756 -0.5815  1.7001
19731SOL    HW260868   2.897   0.194   4.084  1.8741  1.6165 -0.3043
19732SOL     OW60869   8.964   6.983   6.107 -0.2031  0.2004  0.2808
19732SOL    HW160870   8.898   6.978   6.176  0.0930  2.0618  0.7438
19732SOL    HW260871   8.930   6.925   6.038 -1.7033  0.1641  0.9960
19733SOL     OW60872   7.448   6.738   0.295 -0.1692  0.4622  0.2187
19733SOL    HW160873   7.486   6.821   0.265 -0.0742  0.9595  1.6661
19733SOL    HW260874   7.370   6.764   0.345 -1.0115 -0.4203 -0.5717
19734SOL     OW60875   0.313   9.503   1.728 -0.0314  0.0746  0.1320
19734SOL    HW160876   0.276   9.439   1.789 -0.7720 -0.3105 -0.7052
19734SOL    HW260877   0.286   9.588   1.764  0.6820 -0.0783  1.0684
19735SOL     OW60878   5.762   4.107   1.710  0.3404  0.2351 -0.1323
19735SOL    HW160879   5.826   4.044   1.675  0.0731  0.3442 -0.8214
19735SOL    HW260880   5.714   4.138   1.634  0.7103  1.5591  0.1548
19736SOL     OW60881   3.085   3.226   7.785 -0.2681 -0.8789  0.2281
19736SOL    HW160882   3.064   3.319   7.773  1.0961 -0.7709 -1.9019
19736SOL    HW260883   3.005   3.180   7.760 -0.9337 -0.2971  1.2450
19737SOL     OW60884   4.141   7.886   6.990 -0.4945  0.1915  0.1054
19737SOL    HW160885   4.214   7.933   6.949  0.3524 -1.0959  0.0804
19737SOL    HW260886   4.115   7.941   7.064  0.5935  0.6154  0.1875
19738SOL     OW60887   5.223   7.185   4.617  0.7969  0.6122  0.1731
19738SOL    HW160888   5.135   7.190   4.578  1.2797  1.2268 -0.8934
19738SOL    HW260889   5.282   7.208   4.545  2.0111 -1.8842  0.2625
19739SOL     OW60890   4.690   9.052   2.618 -0.1603  0.1333  0.5543
19739SOL    HW160891   4.605   9.057   2.575 -1.3925 -0.2341  2.8057
19739SOL    HW260892   4.738   9.127   2.583 -1.3447  0.2907 -0.8407
19740SOL     OW60893   1.919   2.265   2.658  0.8801 -0.0729 -0.2847
19740SOL    HW160894   1.897   2.201   2.727 -0.4316  0.1578 -0.4718
19740SOL    HW260895   2.001   2.304   2.687  0.1470  0.3150  1.3874
19741SOL     OW60896   7.170   5.516   0.231  0.2832 -0.0486  0.5484
19741SOL    HW160897   7.175   5.443   0.293 -0.8254  1.0225  1.9557
19741SOL    HW260898   7.166   5.474   0.145 -0.5591 -1.6620  1.3303
19742SOL     OW60899   5.995   5.772   1.687 -0.4369  0.1916  0.2082
19742SOL    HW160900   6.019   5.787   1.596 -0.2431  0.5116  0.3055
19742SOL    HW260901   6.065   5.815   1.737 -0.6051  0.1252  0.5054
19743SOL     OW60902   1.935   8.915   0.935 -0.3121  0.2040 -0.5084
19743SOL    HW160903   2.009   8.869   0.975 -0.8849 -0.5712 -0.3043
19743SOL    HW260904   1.873   8.846   0.913 -1.6388  0.9359  0.7123
19744SOL     OW60905   2.155   0.458   1.953  0.3290 -0.2832  0.4719
19744SOL    HW160906   2.237   0.503   1.935 -0.6731  2.0676  1.3145
19744SOL    HW260907   2.115   0.445   1.867  0.7201  0.3387  0.1872
19745SOL     OW60908   2.724   4.400   4.071  0.3492  0.5882  0.0302
19745SOL    HW160909   2.688   4.488   4.060 -1.4858 -0.1046  0.1581
19745SOL    HW260910   2.756   4.399   4.161 -1.0617  0.6672  0.5619
19746SOL     OW60911   6.478   3.830   8.681 -0.1074 -0.3483 -0.1082
19746SOL    HW160912   6.482   3.926   8.672  2.8516 -0.0480  2.3637
19746SOL    HW260913   6.553   3.799   8.630  1.4488 -0.8303  2.2914
19747SOL     OW60914   0.218   7.675   7.237 -0.2892  0.0885  0.3767
19747SOL    HW160915   0.158   7.606   7.207 -0.6113  0.7987 -0.6439
19747SOL    HW260916   0.233   7.654   7.330 -0.1791 -1.4945  0.0378
19748SOL     OW60917   4.908   1.534   0.267  0.0915  0.6703  0.1333
19748SOL    HW160918   4.871   1.521   0.180  1.8378  1.5338 -0.8069
19748SOL    HW260919   4.833   1.543   0.325 -1.1117 -0.2861 -1.2149
19749SOL     OW60920   4.554   0.856   2.496 -0.1302  0.2828  0.6395
19749SOL    HW160921   4.625   0.914   2.524  0.1650 -0.0021  0.4847
19749SOL    HW260922   4.490   0.914   2.454 -0.1016  0.5727  0.9917
19750SOL     OW60923   7.277   0.865   7.426 -0.4296 -0.2011 -0.0033
19750SOL    HW160924   7.342   0.802   7.457 -0.7382 -0.1795  0.7153
19750SOL    HW260925   7.207   0.811   7.390 -0.5207 -0.2663  0.2639
19751SOL     OW60926   6.823   6.777   0.196 -0.2607 -0.0472 -0.4571
19751SOL    HW160927   6.784   6.757   0.280  0.5220 -0.8548 -0.2673
19751SOL    HW260928   6.794   6.707   0.138  0.2301 -0.2020 -0.5241
19752SOL     OW60929   1.114   1.140   1.237  0.0732  0.0554 -0.0603
19752SOL    HW160930   1.062   1.065   1.209 -5.5389  3.3334  0.0454
19752SOL    HW260931   1.124   1.128   1.332 -0.5899 -0.6700 -0.0715
19753SOL     OW60932   1.819   5.136   5.387  0.3504 -0.2093  0.5831
19753SOL    HW160933   1.909   5.160   5.365 -0.4085  0.4862 -2.0757
19753SOL    HW260934   1.795   5.196   5.458  1.6313  0.2903  0.6200
19754SOL     OW60935   5.825   1.233   7.118 -0.2762 -0.1483  0.6503
19754SOL    HW160936   5.836   1.142   7.142  0.3596  0.3338  2.2626
19754SOL    HW260937   5.761   1.267   7.180  0.6235  0.8658  1.0558
19755SOL     OW60938   3.620   6.678   5.882  0.5660 -0.1776 -0.4733
19755SOL    HW160939   3.626   6.771   5.903  0.3107  0.0956 -1.5196
19755SOL    HW260940   3.710   6.646   5.888  0.4682 -0.2193  1.3148
19756SOL     OW60941   0.251   5.662   7.590  0.0629 -0.3447 -0.3197
19756SOL    HW160942   0.347   5.658   7.589  0.0541 -0.9216  0.2977
19756SOL    HW260943   0.225   5.599   7.658 -0.7346  0.1855 -0.1228
19757SOL     OW60944   7.143   9.127   0.528  0.1369  0.0600 -0.3898
19757SOL    HW160945   7.107   9.103   0.442  0.6402 -0.9392 -0.3390
19757SOL    HW260946   7.150   9.044   0.575  1.4698  0.3612 -0.0086
19758SOL     OW60947   3.978   0.992   8.084  0.2464  0.1767 -0.1341
19758SOL    HW160948   4.004   0.977   7.993 -0.0199  0.5714 -0.2761
19758SOL    HW260949   3.965   0.904   8.120 -0.6252  0.0484 -0.7594
19759SOL     OW60950   8.366   4.170   3.820 -0.4166  0.4329  0.3615
19759SOL    HW160951   8.365   4.257   3.779  0.2976  0.4983  0.4745
19759SOL    HW260952   8.399   4.186   3.908 -0.1222  0.0196  0.3272
19760SOL     OW60953   6.423   3.383   0.496  0.1426  0.0171  0.0519
19760SOL    HW160954   6.418   3.472   0.531 -0.6208 -0.9639  2.6273
19760SOL    HW260955   6.365   3.384   0.420 -0.8961  1.4072  0.8196
19761SOL     OW60956   5.410   6.993   5.975 -0.2442 -0.3351  0.1141
19761SOL    HW160957   5.495   6.950   5.983 -0.3382 -0.9372 -1.5488
19761SOL    HW260958   5.428   7.074   5.927 -0.2706  0.8567  2.0306
19762SOL     OW60959   0.103   7.237   5.231  0.6494 -0.0961  0.4665
19762SOL    HW160960   0.026   7.288   5.205  0.9082  0.3537  0.5662
19762SOL    HW260961   0.105   7.164   5.169  0.6347  0.3647 -0.0924
19763SOL     OW60962   8.202   4.777   0.048  0.0892  0.2572 -0.2896
19763SOL    HW160963   8.225   4.867   0.073  0.1500 -0.4702  2.5962
19763SOL    HW260964   8.287   4.735   0.032  0.2099  0.1822  0.4932
19764SOL     OW60965   3.056   2.431   9.322 -0.2491 -0.0853 -0.2323
19764SOL    HW160966   3.022   2.478   9.397  0.6884  0.7479 -0.3078
19764SOL    HW260967   3.104   2.497   9.272 -1.1628 -0.5335 -1.7621
19765SOL     OW60968   0.843   6.644   3.179 -0.7106  0.5866 -0.2640
19765SOL    HW160969   0.920   6.701   3.181 -0.3433  0.0848  0.1742
19765SOL    HW260970   0.789   6.674   3.253 -0.7678  0.7065 -0.3540
19766SOL     OW60971   0.343   7.109   5.937  0.3487 -0.0265 -0.2817
19766SOL    HW160972   0.379   7.020   5.933 -2.9406 -1.4440 -1.2374
19766SOL    HW260973   0.249   7.097   5.940 -0.1958  3.4609  1.3597
19767SOL     OW60974   0.417   4.841   6.067 -0.4408 -0.4582  0.3183
19767SOL    HW160975   0.367   4.884   5.997  1.9347  1.9042 -0.1151
19767SOL    HW260976   0.478   4.783   6.021 -1.8126 -2.3625  0.7721
19768SOL     OW60977   2.524   4.633   3.223 -0.4681  0.3386 -0.1800
19768SOL    HW160978   2.499   4.621   3.131  0.8422  0.8786 -0.6335
19768SOL    HW260979   2.601   4.690   3.219  0.0045 -0.1696  1.2214
19769SOL     OW60980   1.566   1.051   0.295 -0.0277 -0.5383  0.7159
19769SOL    HW160981   1.497   1.019   0.353 -0.3351 -1.0359  0.0839
19769SOL    HW260982   1.635   1.082   0.354 -0.3328 -1.0465  1.3419
19770SOL     OW60983   7.914   6.219   4.253 -0.3710  0.3076  0.3793
19770SOL    HW160984   7.843   6.283   4.258 -0.2696  0.4262  0.3109
19770SOL    HW260985   7.913   6.175   4.338 -2.2701 -1.5578 -0.4806
19771SOL     OW60986   5.376   7.827   7.990 -0.1853 -0.3166  0.5722
19771SOL    HW160987   5.303   7.797   8.045 -0.7381 -0.4284 -0.2070
19771SOL    HW260988   5.447   7.843   8.052 -1.4940  1.8310  1.6167
19772SOL     OW60989   7.373   8.657   7.087 -0.4754 -0.1927 -0.3503
19772SOL    HW160990   7.380   8.742   7.044  0.1113  0.7261  1.4654
19772SOL    HW260991   7.463   8.635   7.112 -0.6602 -1.2213 -0.5404
19773SOL     OW60992   7.222   0.820   3.020 -0.3823  0.2683  0.3871
19773SOL    HW160993   7.142   0.799   3.068 -0.9796 -0.3859 -0.8419
19773SOL    HW260994   7.242   0.740   2.971  1.7912 -0.0544  1.6636
19774SOL     OW60995   4.420   3.435   8.366  0.0578 -0.3340  0.0355
19774SOL    HW160996   4.356   3.399   8.305  0.1179 -0.8084  0.2444
19774SOL    HW260997   4.504   3.407   8.332  0.2164  0.9087 -0.6446
19775SOL     OW60998   0.517   8.353   6.694 -0.7191  0.1719  0.3077
19775SOL    HW160999   0.534   8.433   6.645 -0.6815  0.5227  0.8752
19775SOL    HW261000   0.548   8.373   6.783 -0.4304 -0.5742  0.3831
19776SOL     OW61001   2.565   6.478   2.154 -0.0076  0.7623 -0.5094
19776SOL    HW161002   2.496   6.509   2.213 -0.9085 -0.8708 -0.6483
19776SOL    HW261003   2.638   6.456   2.213 -0.8863 -0.8237  0.0592
19777SOL     OW61004   6.946   2.170   0.213  0.0110  0.3386  0.0081
19777SOL    HW161005   6.940   2.149   0.120  0.2441  0.1459  0.0350
19777SOL    HW261006   6.861   2.142   0.249 -0.4601  1.3058 -0.3125
19778SOL     OW61007   1.139   9.378   2.452  0.5928  0.0427 -0.5572
19778SOL    HW161008   1.053   9.414   2.472  0.7200 -0.0929  0.2883
19778SOL    HW261009   1.124   9.286   2.433  0.7072 -0.3457  1.0808
19779SOL     OW61010   7.689   7.513   2.810 -0.0772  0.0571 -0.1398
19779SOL    HW161011   7.781   7.498   2.790 -0.3814 -1.9304 -0.2592
19779SOL    HW261012   7.670   7.454   2.883 -0.7303  2.1026  1.4394
19780SOL     OW61013   8.650   3.759   6.245 -0.1802  0.1739 -0.0981
19780SOL    HW161014   8.658   3.812   6.324  0.1201  3.1698 -1.9772
19780SOL    HW261015   8.736   3.763   6.205 -0.5736 -0.5140 -1.0384
19781SOL     OW61016   4.784   7.217   1.752  0.2758  0.0405  0.0186
19781SOL    HW161017   4.722   7.150   1.722 -0.6230  1.5529 -1.6610
19781SOL    HW261018   4.864   7.199   1.702  0.7143 -0.9471  1.0301
19782SOL     OW61019   4.933   4.193   1.992 -0.1262 -0.2754 -0.0490
19782SOL    HW161020   4.991   4.256   2.033 -2.1739  1.0536  0.9565
19782SOL    HW261021   4.916   4.228   1.905  1.5165 -1.3347 -0.8447
19783SOL     OW61022   6.626   2.672   3.605 -0.5280  0.0485 -0.0434
19783SOL    HW161023   6.674   2.735   3.659 -0.0169  0.2597 -0.7384
19783SOL    HW261024   6.623   2.593   3.659 -2.5773  1.0960  1.5324
19784SOL     OW61025   2.718   0.582   8.495  0.2155  0.4605 -0.1665
19784SOL    HW161026   2.648   0.578   8.559 -0.7810 -0.5228 -1.2770
19784SOL    HW261027   2.674   0.587   8.410  1.4957  1.4266 -0.8204
19785SOL     OW61028   8.177   0.843   0.354  0.3280 -0.4017  0.2835
19785SOL    HW161029   8.236   0.797   0.414  0.3976 -1.2426 -0.3981
19785SOL    HW261030   8.152   0.776   0.290  3.5980  1.3393 -3.1787
19786SOL     OW61031   1.507   8.748   4.796  0.2111  0.5642  0.0835
19786SOL    HW161032   1.447   8.709   4.860  0.7634  0.0243  0.2835
19786SOL    HW261033   1.591   8.704   4.811  0.4016  0.5696 -0.8747
19787SOL     OW61034   2.026   7.679   8.540 -0.0192 -0.8376 -0.3741
19787SOL    HW161035   1.956   7.651   8.599  0.6662 -1.0074  0.3740
19787SOL    HW261036   1.989   7.670   8.453 -1.0472 -0.5940  0.0272
19788SOL     OW61037   3.312   6.324   8.412  0.0512  0.7931  0.2964
19788SOL    HW161038   3.277   6.343   8.499 -0.3971  0.0619  0.2823
19788SOL    HW261039   3.241   6.349   8.352  0.5330  1.7363  0.1028
19789SOL     OW61040   8.819   3.740   4.013  0.3047  0.1116  0.2863
19789SOL    HW161041   8.863   3.742   4.098  0.3975 -1.6509  0.3042
19789SOL    HW261042   8.883   3.699   3.954 -0.4854 -0.4626 -0.1860
19790SOL     OW61043   0.562   3.154   8.175 -0.1345  0.1987  0.4448
19790SOL    HW161044   0.585   3.125   8.086  0.1341 -0.1067  0.6117
19790SOL    HW261045   0.620   3.227   8.193  0.6768 -0.5282  0.8394
19791SOL     OW61046   8.559   3.930   4.140 -0.3747 -0.4269  0.4806
19791SOL    HW161047   8.538   3.874   4.215 -0.7829 -0.8315  0.0728
19791SOL    HW261048   8.646   3.902   4.112 -0.6909 -1.0581  0.1087
19792SOL     OW61049   0.075   5.979   9.323 -0.1312 -0.0954  0.2860
19792SOL    HW161050   0.012   5.908   9.337 -0.3466  0.1502  0.5816
19792SOL    HW261051   0.043   6.050   9.379 -1.7303  1.3915 -2.2878
19793SOL     OW61052   0.468   4.897   9.081 -0.0692  0.3722  0.5760
19793SOL    HW161053   0.451   4.844   9.159 -1.2015  0.2873  0.2809
19793SOL    HW261054   0.542   4.853   9.039  2.7184  2.1718  3.1764
19794SOL     OW61055   2.419   4.738   3.623  0.0575  0.5770 -0.0178
19794SOL    HW161056   2.427   4.682   3.701  2.4168  1.2130  0.2615
19794SOL    HW261057   2.351   4.695   3.570  1.1633 -2.0988  0.5680
19795SOL     OW61058   2.467   3.242   7.785 -0.1372 -0.3103  0.5819
19795SOL    HW161059   2.492   3.318   7.733  0.0661  0.9393  2.4400
19795SOL    HW261060   2.372   3.250   7.795  0.0734  0.6407  2.1265
19796SOL     OW61061   0.482   2.113   2.101 -0.2644 -0.2219  0.4215
19796SOL    HW161062   0.456   2.119   2.009 -1.6346 -0.7957  0.7424
19796SOL    HW261063   0.482   2.204   2.132  2.4062  0.2476 -0.6572
19797SOL     OW61064   3.829   8.031   6.733 -0.2718  0.2267 -0.5502
19797SOL    HW161065   3.734   8.019   6.726 -0.2354  0.3429 -1.3863
19797SOL    HW261066   3.848   8.016   6.825 -1.1405  0.4681 -0.3175
19798SOL     OW61067   7.750   8.590   7.542  0.0212  0.2834  0.1388
19798SOL    HW161068   7.738   8.668   7.488 -0.7212  1.1615  1.5232
19798SOL    HW261069   7.770   8.624   7.630 -1.8709 -1.0316  1.1458
19799SOL     OW61070   7.098   5.824   7.093  0.1397  0.0405 -0.0985
19799SOL    HW161071   7.076   5.915   7.112 -0.8912 -0.3968  0.8720
19799SOL    HW261072   7.192   5.827   7.073  0.0770  1.3391 -0.3258
19800SOL     OW61073   2.298   0.822   9.595 -0.2784  0.1771  0.1411
19800SOL    HW161074   2.329   0.911   9.613 -0.1990  0.4005 -1.0057
19800SOL    HW261075   2.361   0.766   9.639 -0.1890  0.6832  0.6768
19801SOL     OW61076   1.063   7.532   8.842  0.1795  0.0956 -0.8529
19801SOL    HW161077   1.105   7.452   8.873 -1.4754 -0.3307  0.4391
19801SOL    HW261078   1.128   7.601   8.860  1.5503 -0.8807 -1.8267
19802SOL     OW61079   1.151   0.472   0.209 -0.3944  0.3572  0.1734
19802SOL    HW161080   1.117   0.550   0.252  0.4873  0.3866  0.8683
19802SOL    HW261081   1.154   0.406   0.279  2.1040  0.7209  0.5335
19803SOL     OW61082   4.129   4.182   9.419 -0.0015 -0.2096 -0.0688
19803SOL    HW161083   4.149   4.088   9.414  1.8908  0.2434 -2.5068
19803SOL    HW261084   4.129   4.212   9.328  1.4896  2.5270  0.7120
19804SOL     OW61085   0.468   2.769   1.343 -0.8951 -0.2713 -0.0859
19804SOL    HW161086   0.430   2.811   1.420 -0.2823  0.2267 -0.0537
19804SOL    HW261087   0.418   2.803   1.269 -0.7463  0.1118 -0.0104
19805SOL     OW61088   2.460   8.701   9.471 -0.2275 -0.8962 -0.4588
19805SOL    HW161089   2.511   8.767   9.424 -0.2382 -1.0632 -0.7033
19805SOL    HW261090   2.410   8.752   9.535 -1.3733 -0.4856 -1.6409
19806SOL     OW61091   6.378   7.167   4.646  0.4676 -0.4853 -0.2528
19806SOL    HW161092   6.385   7.194   4.554  0.4016 -0.6940 -0.3192
19806SOL    HW261093   6.467   7.139   4.669  0.1434 -1.9482 -0.7293
19807SOL     OW61094   5.148   6.611   4.288  0.1196  0.2364 -0.2020
19807SOL    HW161095   5.159   6.517   4.304  0.2999  0.3758  0.5255
19807SOL    HW261096   5.137   6.649   4.375  0.4084  0.9376 -0.4630
19808SOL     OW61097   9.103   6.117   3.630 -0.3906 -0.0930  0.4531
19808SOL    HW161098   9.105   6.208   3.658  1.7773 -0.2387  0.9683
19808SOL    HW261099   9.058   6.118   3.546 -0.4279  1.4383  0.4788
19809SOL     OW61100   0.640   7.387   4.712  0.3418  0.2661  0.2510
19809SOL    HW161101   0.616   7.462   4.766 -0.8523 -0.2162  0.4120
19809SOL    HW261102   0.681   7.426   4.634  0.2780  1.0465  0.5975
19810SOL     OW61103   6.484   3.575   1.500 -0.1467 -0.2923  0.2696
19810SOL    HW161104   6.410   3.529   1.463 -0.8202  1.0574 -0.1306
19810SOL    HW261105   6.561   3.534   1.460 -0.7251 -0.9372 -0.1982
19811SOL     OW61106   2.613   3.162   8.384 -0.5134 -0.0137 -0.1607
19811SOL    HW161107   2.517   3.152   8.384 -0.4826 -0.3865 -0.8912
19811SOL    HW261108   2.638   3.148   8.293  0.4285 -1.8693  0.3215
19812SOL     OW61109   5.585   2.007   1.665 -0.6626 -0.1195  0.1320
19812SOL    HW161110   5.658   2.022   1.605  0.6596  0.9346  1.9021
19812SOL    HW261111   5.540   2.091   1.670 -1.6892 -0.6055 -0.4921
19813SOL     OW61112   8.473   2.191   3.166 -0.5138 -0.4896  0.2898
19813SOL    HW161113   8.560   2.156   3.184 -0.9773 -1.2739  1.1032
19813SOL    HW261114   8.487   2.261   3.103  0.7404 -0.3776  0.6784
19814SOL     OW61115   0.895   2.715   4.796  0.1120  0.0927 -0.4197
19814SOL    HW161116   0.915   2.653   4.867 -0.7044  0.1626 -0.1205
19814SOL    HW261117   0.929   2.672   4.717 -0.2679 -0.6503 -0.1900
19815SOL     OW61118   0.041   3.584   8.652  0.3161 -0.0039  0.6714
19815SOL    HW161119   0.006   3.626   8.730 -1.6379  1.5505 -0.9455
19815SOL    HW261120   0.105   3.521   8.685 -0.0976  0.9268  3.4623
19816SOL     OW61121   0.851   5.121   8.934 -0.3223  0.1486  0.7162
19816SOL    HW161122   0.826   5.029   8.926 -0.2336  0.2263 -0.6314
19816SOL    HW261123   0.942   5.118   8.964  0.3019 -0.2617 -1.0964
19817SOL     OW61124   4.009   7.441   3.144 -0.1418 -0.4297 -0.1833
19817SOL    HW161125   3.918   7.412   3.142 -0.7311  1.3190 -0.0142
19817SOL    HW261126   4.017   7.499   3.069  0.7933 -0.4165 -0.0836
19818SOL     OW61127   1.847   2.443   0.723  0.2259 -0.1776  0.4640
19818SOL    HW161128   1.939   2.432   0.747  0.0316  0.6703  1.6877
19818SOL    HW261129   1.833   2.538   0.722 -0.1065 -0.1894 -1.9417
19819SOL     OW61130   4.223   3.248   7.166 -0.4342  0.5942  0.3464
19819SOL    HW161131   4.149   3.288   7.119 -1.7001 -0.9631  0.8960
19819SOL    HW261132   4.240   3.167   7.118  1.5780  1.3701 -0.3167
19820SOL     OW61133   8.796   2.415   2.259  0.4044 -0.0224 -0.0716
19820SOL    HW161134   8.875   2.437   2.308  1.7889 -2.0432 -1.2527
19820SOL    HW261135   8.795   2.319   2.257 -1.4204 -0.0234 -1.1497
19821SOL     OW61136   1.607   4.164   3.379  0.3083  0.2874  0.0622
19821SOL    HW161137   1.686   4.112   3.395 -0.2566 -0.6058 -0.0581
19821SOL    HW261138   1.592   4.156   3.285  0.9063  1.6777 -0.1877
19822SOL     OW61139   5.693   1.434   2.835  0.0716 -0.0961  0.4787
19822SOL    HW161140   5.689   1.375   2.910  0.6256  0.8918  1.3045
19822SOL    HW261141   5.763   1.496   2.856  1.6969 -1.0332 -1.7639
19823SOL     OW61142   3.510   3.808   5.457  0.2225 -0.0132 -0.1661
19823SOL    HW161143   3.549   3.784   5.540 -0.5495  0.0071  0.2143
19823SOL    HW261144   3.474   3.726   5.423  0.6580 -0.0488 -0.5531
19824SOL     OW61145   0.130   9.348   8.056  0.4089  0.5848  0.3128
19824SOL    HW161146   0.095   9.299   7.981  2.9824  1.0710 -1.3441
19824SOL    HW261147   0.057   9.404   8.083 -0.6617  0.3406 -1.7873
19825SOL     OW61148   7.819   9.229   6.404  0.0993  0.0084 -0.0302
19825SOL    HW161149   7.878   9.204   6.333  0.5319  1.8770 -0.3790
19825SOL    HW261150   7.781   9.313   6.376 -0.3219  0.3985  1.5835
19826SOL     OW61151   2.396   0.635   6.980 -0.2004  0.1947  0.0282
19826SOL    HW161152   2.404   0.669   7.069 -0.2498 -1.6690  0.7823
19826SOL    HW261153   2.471   0.577   6.969 -0.3819  0.1391 -1.0229
19827SOL     OW61154   0.325   7.365   5.334 -0.3372  0.2240  0.4932
19827SOL    HW161155   0.356   7.284   5.375  1.9320 -1.0456 -3.1921
19827SOL    HW261156   0.237   7.344   5.303  0.5811 -1.3312 -1.2907
19828SOL     OW61157   4.183   9.079   0.948 -0.7826  0.0806 -0.5893
19828SOL    HW161158   4.117   9.020   0.986 -0.4956 -0.1578 -0.4619
19828SOL    HW261159   4.136   9.124   0.879 -1.6176  1.2821  0.7027
19829SOL     OW61160   1.503   0.255   9.662  0.0497  0.0910 -0.1562
19829SOL    HW161161   1.561   0.318   9.704  1.8352 -0.5520 -1.5277
19829SOL    HW261162   1.534   0.250   9.571 -3.2830  1.0399 -1.5214
19830SOL     OW61163   7.376   4.119   0.177 -0.2365 -0.0124  0.4701
19830SOL    HW161164   7.369   4.109   0.082  1.0045 -0.8900  0.4392
19830SOL    HW261165   7.416   4.205   0.190  1.2764 -0.6255  0.0886
19831SOL     OW61166   6.515   2.594   8.645 -0.7051 -0.2854 -0.5319
19831SOL    HW161167   6.577   2.665   8.627  0.0244 -1.0322 -1.0796
19831SOL    HW261168   6.438   2.615   8.594 -0.1905 -0.2793 -1.3222
19832SOL     OW61169   6.261   3.279   3.511  0.5730 -0.0743 -0.1728
19832SOL    HW161170   6.234   3.345   3.447  0.6141  0.3734  0.2702
19832SOL    HW261171   6.313   3.217   3.460 -0.7009 -0.5896 -0.9021
19833SOL     OW61172   9.407   5.512   0.200 -0.1158  0.4071 -0.3216
19833SOL    HW161173   9.482   5.454   0.217  1.2167  2.0763 -0.2940
19833SOL    HW261174   9.347   5.496   0.273 -0.4705 -1.9394 -1.0378
19834SOL     OW61175   6.139   5.892   8.879  0.2055 -0.9281  0.0379
19834SOL    HW161176   6.209   5.831   8.854 -0.6338 -0.6437 -3.5942
19834SOL    HW261177   6.063   5.836   8.894  0.7389 -1.1134  2.6223
19835SOL     OW61178   3.580   7.903   0.161  0.1941  0.1084 -0.1816
19835SOL    HW161179   3.601   7.832   0.099  0.9131 -0.4348  0.6687
19835SOL    HW261180   3.497   7.938   0.128  0.5742 -0.1366 -1.4776
19836SOL     OW61181   2.345   8.944   8.443 -0.2152 -0.0559  0.1802
19836SOL    HW161182   2.314   8.875   8.385 -0.8725 -1.6762  2.3382
19836SOL    HW261183   2.270   9.003   8.453  0.0747  0.5410 -0.9840
19837SOL     OW61184   4.340   4.885   6.987 -0.0205  0.3224  0.2047
19837SOL    HW161185   4.372   4.974   6.969 -0.1184  0.0372 -1.5598
19837SOL    HW261186   4.245   4.892   6.978  0.0323 -0.1328 -0.9698
19838SOL     OW61187   8.778   3.033   0.245  0.0397  0.1486 -0.1511
19838SOL    HW161188   8.762   3.005   0.154  0.6430  1.4645 -0.6731
19838SOL    HW261189   8.774   2.951   0.295 -0.2029 -0.6185 -1.3674
19839SOL     OW61190   0.662   1.885   0.560 -0.2849 -0.5461  0.2317
19839SOL    HW161191   0.736   1.823   0.564  0.9774  0.9144  0.3683
19839SOL    HW261192   0.678   1.935   0.480  0.6136  1.8323  1.8000
19840SOL     OW61193   5.323   7.802   0.026 -0.3709  0.3672 -0.0866
19840SOL    HW161194   5.316   7.732  -0.039 -0.4685  1.7650 -1.6298
19840SOL    HW261195   5.405   7.846   0.005 -1.2962  1.9755 -0.4471
19841SOL     OW61196   3.393   3.716   6.172  0.6369 -0.1032  0.4030
19841SOL    HW161197   3.468   3.765   6.205  1.6882 -0.9827 -0.5739
19841SOL    HW261198   3.421   3.685   6.086 -1.5852  1.2035 -0.8986
19842SOL     OW61199   0.662   1.702   7.084  0.1670  0.3953 -0.3440
19842SOL    HW161200   0.727   1.755   7.038  1.5923 -1.3750 -0.4783
19842SOL    HW261201   0.593   1.687   7.019 -1.6192  4.1263  0.4443
19843SOL     OW61202   6.067   0.471   2.703 -0.0917  0.4962  0.7670
19843SOL    HW161203   6.024   0.401   2.752  0.8996 -1.6664 -1.2716
19843SOL    HW261204   5.995   0.527   2.673 -1.0025 -0.1718  1.6348
19844SOL     OW61205   7.167   3.864   3.682  0.0235  0.1484  0.3694
19844SOL    HW161206   7.244   3.809   3.702  0.1513  0.2414  0.1369
19844SOL    HW261207   7.134   3.890   3.768  2.7526  3.6431  0.5815
19845SOL     OW61208   0.899   1.047   2.088 -0.2780  0.3989 -0.0767
19845SOL    HW161209   0.959   0.996   2.034 -1.3306  1.0609 -1.9600
19845SOL    HW261210   0.816   1.046   2.041 -1.4371  0.5588  1.8310
19846SOL     OW61211   9.593   1.893   5.307  0.4559  0.7788  0.0503
19846SOL    HW161212   9.681   1.891   5.268  0.3624 -0.6223 -0.1367
19846SOL    HW261213   9.578   1.985   5.327  1.0546  1.3702 -1.9906
19847SOL     OW61214   8.322   8.111   1.376 -0.4231  0.3484  0.1561
19847SOL    HW161215   8.370   8.154   1.305  0.9453 -0.3282  0.6211
19847SOL    HW261216   8.232   8.106   1.345 -0.4134  2.5262 -0.3700
19848SOL     OW61217   1.881   2.643   5.064 -0.6371 -0.5516  0.5550
19848SOL    HW161218   1.957   2.699   5.045 -1.2931  0.2173  0.1351
19848SOL    HW261219   1.906   2.557   5.029  0.9959 -0.9749  2.5511
19849SOL     OW61220   6.671   5.136   8.463 -0.2369  0.1416 -0.9923
19849SOL    HW161221   6.655   5.046   8.490 -0.0578 -0.0947 -1.6685
19849SOL    HW261222   6.720   5.129   8.381 -0.0933  0.8519 -0.9775
19850SOL     OW61223   7.125   7.554   0.734 -0.5991 -0.1748  0.0863
19850SOL    HW161224   7.078   7.576   0.814 -0.3224  1.4979 -0.1854
19850SOL    HW261225   7.210   7.597   0.743 -1.1913  1.5245 -1.8225
19851SOL     OW61226   7.824   5.493   8.432  0.0229  0.0839 -0.1192
19851SOL    HW161227   7.773   5.520   8.356 -0.0767 -0.3805 -0.2179
19851SOL    HW261228   7.887   5.430   8.397  0.1596  0.0745  0.1398
19852SOL     OW61229   6.703   1.737   1.373  0.0736 -0.1376 -0.4567
19852SOL    HW161230   6.782   1.777   1.337 -0.5460  1.3913 -0.1952
19852SOL    HW261231   6.721   1.643   1.371  1.2097  0.0710 -1.9849
19853SOL     OW61232   1.435   7.098   0.015 -0.4892 -0.0916  0.3668
19853SOL    HW161233   1.359   7.045  -0.010 -0.6665 -0.1078  0.9256
19853SOL    HW261234   1.449   7.157  -0.059  0.2366 -1.4758 -0.6248
19854SOL     OW61235   7.026   8.421   9.161 -0.4138  0.3737 -0.5557
19854SOL    HW161236   7.027   8.476   9.240  1.4163  0.7571 -0.8046
19854SOL    HW261237   6.972   8.470   9.099 -1.3336  0.3857  0.2315
19855SOL     OW61238   8.770   8.850   2.047 -0.5370  0.7436  0.3506
19855SOL    HW161239   8.676   8.833   2.041 -0.6543  1.8493 -1.3368
19855SOL    HW261240   8.778   8.945   2.045  0.6646  0.6430 -0.4337
19856SOL     OW61241   6.959   1.105   5.035 -0.2367  0.7186 -0.3557
19856SOL    HW161242   6.868   1.132   5.049  0.5992  3.2334  0.8673
19856SOL    HW261243   7.001   1.182   4.997  1.2429 -0.6942 -1.7328
19857SOL     OW61244   3.177   5.148   5.434  0.0505 -0.6774  0.2664
19857SOL    HW161245   3.097   5.182   5.475  0.6171 -0.9524  1.6647
19857SOL    HW261246   3.157   5.057   5.414 -1.1003  0.0745 -2.5009
19858SOL     OW61247   9.302   6.637   7.054 -0.2381  0.6680  0.2538
19858SOL    HW161248   9.283   6.545   7.036  0.2693  0.5613  0.2432
19858SOL    HW261249   9.294   6.680   6.968 -0.2029  0.5830  0.2077
19859SOL     OW61250   9.357   0.653   0.621  0.2798  0.5579  0.5634
19859SOL    HW161251   9.445   0.690   0.627 -0.4227  2.3329  0.7816
19859SOL    HW261252   9.301   0.728   0.600 -1.2652 -0.3983  1.0604
19860SOL     OW61253   5.075   1.990   8.356 -0.7536  0.3955 -0.1328
19860SOL    HW161254   5.157   1.993   8.306 -1.0521  0.6994 -0.6159
19860SOL    HW261255   5.033   1.909   8.329 -0.8502  0.4930 -0.2823
19861SOL     OW61256   0.358   0.737   2.268  0.1703 -0.1863  0.3460
19861SOL    HW161257   0.451   0.714   2.275  0.0687 -0.6191  0.2919
19861SOL    HW261258   0.317   0.658   2.232  0.0054  0.4965 -1.0133
19862SOL     OW61259   7.361   9.215   8.989 -0.2740 -0.3167 -0.4727
19862SOL    HW161260   7.417   9.255   9.055  0.3393 -1.3704 -0.3231
19862SOL    HW261261   7.403   9.237   8.905  0.7549 -1.5960 -0.3376
19863SOL     OW61262   6.331   7.585   1.315 -0.2741 -0.0178  0.0425
19863SOL    HW161263   6.271   7.614   1.384 -0.1690 -0.8710  0.5024
19863SOL    HW261264   6.319   7.490   1.310 -1.4912  0.1727 -2.2610
19864SOL     OW61265   1.204   0.252   0.679 -0.1129 -0.2626  0.4176
19864SOL    HW161266   1.179   0.320   0.741 -0.7375  0.3620 -0.5048
19864SOL    HW261267   1.179   0.170   0.722 -0.1644  0.1326  1.1514
19865SOL     OW61268   0.584   8.569   1.764  0.5116  0.1623 -0.6526
19865SOL    HW161269   0.499   8.543   1.727 -0.3931  2.8379 -0.6630
19865SOL    HW261270   0.588   8.663   1.750  2.6336  0.4097  1.1592
19866SOL     OW61271   0.676   6.278   1.374 -0.2186  0.1823 -0.7553
19866SOL    HW161272   0.730   6.350   1.342 -0.5097  0.5338 -0.4658
19866SOL    HW261273   0.675   6.290   1.469 -1.6754  0.8088 -0.8243
19867SOL     OW61274   3.751   6.255   2.221 -0.1496 -0.2881  0.3447
19867SOL    HW161275   3.810   6.324   2.191 -1.7847  0.3560 -1.6553
19867SOL    HW261276   3.786   6.175   2.182 -0.3286  0.0251 -0.4847
19868SOL     OW61277   5.498   6.081   2.007  0.5247 -0.7695 -0.0664
19868SOL    HW161278   5.474   6.174   2.015 -0.4115 -1.0161  0.1243
19868SOL    HW261279   5.476   6.043   2.093  1.1432 -1.1164 -0.0579
19869SOL     OW61280   7.535   4.477   5.014 -0.1102  0.3597 -0.3164
19869SOL    HW161281   7.506   4.562   5.049 -1.8601  0.0848 -1.0003
19869SOL    HW261282   7.464   4.417   5.036  0.8779 -0.8404 -0.2891
19870SOL     OW61283   2.006   5.883   6.984 -0.5240 -0.1420 -0.4929
19870SOL    HW161284   1.967   5.797   6.971  0.2813 -0.7157  0.6520
19870SOL    HW261285   1.997   5.900   7.078  0.4834  0.4231 -0.4753
19871SOL     OW61286   1.494   3.043   3.316 -0.0133 -0.2837  0.4519
19871SOL    HW161287   1.512   3.008   3.404 -0.9730  0.5802  0.9993
19871SOL    HW261288   1.579   3.039   3.272  0.4019 -1.0920  1.2842
19872SOL     OW61289   2.327   9.076   4.102  0.1292 -0.3869 -0.3072
19872SOL    HW161290   2.232   9.081   4.092 -0.3069 -3.4164  0.9825
19872SOL    HW261291   2.343   9.105   4.191  0.2157 -1.0487 -0.0985
19873SOL     OW61292   0.463   9.277   3.657  0.2098  0.0755  0.4486
19873SOL    HW161293   0.377   9.318   3.666  0.5126  0.8416 -0.0503
19873SOL    HW261294   0.447   9.184   3.674 -1.0745 -0.1030 -1.4346
19874SOL     OW61295   6.811   8.471   0.679  0.0969  0.2158  0.2543
19874SOL    HW161296   6.837   8.490   0.769 -1.3749 -1.2161  1.0419
19874SOL    HW261297   6.814   8.375   0.674 -0.1804  0.2657 -1.1309
19875SOL     OW61298   1.030   4.848   6.267  0.0809  0.4106 -0.4673
19875SOL    HW161299   0.951   4.900   6.256  0.7592  1.6037  0.0281
19875SOL    HW261300   1.011   4.789   6.340  0.5783  2.7354  1.6963
19876SOL     OW61301   5.405   2.770   1.001 -0.0582 -0.0637  0.0605
19876SOL    HW161302   5.454   2.794   1.079 -0.3548 -0.3233  0.3267
19876SOL    HW261303   5.468   2.723   0.946  0.1304  0.0591  0.1709
19877SOL     OW61304   8.046   8.979   0.822 -0.2161  0.1776 -0.5647
19877SOL    HW161305   7.987   9.034   0.874 -0.5923 -1.0893  0.3946
19877SOL    HW261306   8.131   8.990   0.864 -0.0853  0.7355 -0.9558
19878SOL     OW61307   7.740   0.851   4.016 -0.1776 -0.1250 -0.1051
19878SOL    HW161308   7.809   0.788   3.999  0.7265  1.1883 -1.6150
19878SOL    HW261309   7.670   0.827   3.955 -0.0149  0.0482 -0.3631
19879SOL     OW61310   3.678   9.423   9.213  0.4161  0.1511  0.0063
19879SOL    HW161311   3.663   9.503   9.264 -2.4305 -0.0918 -0.2538
19879SOL    HW261312   3.618   9.431   9.139  0.2004 -2.1196 -0.1296
19880SOL     OW61313   8.887   3.365   9.502 -0.5198 -0.4680 -0.0359
19880SOL    HW161314   8.918   3.326   9.420  1.9773  3.0168 -0.9769
19880SOL    HW261315   8.808   3.413   9.476 -1.4660 -1.7636  0.3345
19881SOL     OW61316   1.952   5.473   6.539  0.4268  0.2168 -0.1839
19881SOL    HW161317   1.863   5.454   6.571 -0.0419  0.9906 -0.9747
19881SOL    HW261318   1.945   5.460   6.444  1.6264 -1.4526 -0.0874
19882SOL     OW61319   1.116   8.287   4.599 -0.3820  0.4389  0.1024
19882SOL    HW161320   1.062   8.365   4.591 -0.0653  0.8176  1.5378
19882SOL    HW261321   1.112   8.263   4.691 -0.2635 -1.0955 -0.2594
19883SOL     OW61322   1.780   0.951   8.881 -0.5279  0.5363  0.0524
19883SOL    HW161323   1.865   0.907   8.891 -0.3238  1.0224  0.5182
19883SOL    HW261324   1.716   0.886   8.908 -0.4087 -0.2973 -1.5666
19884SOL     OW61325   1.799   7.989   4.661 -0.0029  0.6872  0.2956
19884SOL    HW161326   1.861   8.042   4.712  1.0815  0.3723 -0.6650
19884SOL    HW261327   1.733   8.051   4.631  0.9206  1.4041 -0.3031
19885SOL     OW61328   3.444   7.168   1.077 -0.8618 -0.6819  0.1161
19885SOL    HW161329   3.435   7.232   1.147 -1.2646 -0.8436  0.2147
19885SOL    HW261330   3.501   7.210   1.013 -1.1823 -0.1946  0.1484
19886SOL     OW61331   2.225   5.546   1.719 -0.0132 -0.0642 -0.0398
19886SOL    HW161332   2.253   5.484   1.652 -2.0596  0.2208 -1.2608
19886SOL    HW261333   2.181   5.491   1.784  1.8791 -0.3287  1.0637
19887SOL     OW61334   3.549   6.626   8.313  0.0532  0.3694  0.6438
19887SOL    HW161335   3.542   6.561   8.243 -1.2160  1.4271 -0.2563
19887SOL    HW261336   3.602   6.583   8.380  0.6069 -0.9831 -0.6029
19888SOL     OW61337   3.750   0.063   6.735  0.7528  0.6475 -0.4135
19888SOL    HW161338   3.730   0.152   6.766 -0.1098  0.6001 -0.7914
19888SOL    HW261339   3.765   0.012   6.815 -1.5187  0.5061 -0.0089
19889SOL     OW61340   9.649   4.299   1.400 -0.1276  0.4225  0.7014
19889SOL    HW161341   9.666   4.242   1.475 -0.3168  0.0874  0.4893
19889SOL    HW261342   9.569   4.265   1.362 -0.2910  0.8888  0.6267
19890SOL     OW61343   6.279   3.025   8.703 -0.4061 -0.9418  0.5934
19890SOL    HW161344   6.316   2.963   8.639 -1.5218 -1.6992  0.6603
19890SOL    HW261345   6.194   3.049   8.666 -0.3335 -0.0734  0.9791
19891SOL     OW61346   2.193   4.724   9.663  0.3628 -0.3870  0.6964
19891SOL    HW161347   2.235   4.713   9.748  0.7133 -1.0109  0.4505
19891SOL    HW261348   2.266   4.738   9.602  0.4466 -3.2929 -0.0418
19892SOL     OW61349   2.042   0.387   3.676 -0.3029 -0.2388  0.7990
19892SOL    HW161350   1.986   0.339   3.615 -1.3491  1.8216  0.0511
19892SOL    HW261351   2.073   0.320   3.738 -0.0331 -2.2226 -1.3367
19893SOL     OW61352   5.994   9.645   8.386 -0.6340  0.2240  0.1584
19893SOL    HW161353   5.998   9.550   8.397 -0.1106  0.2397  0.1682
19893SOL    HW261354   6.084   9.674   8.403 -0.6684  0.6613 -0.3863
19894SOL     OW61355   1.975   6.991   9.316 -0.5238 -0.9238 -0.2251
19894SOL    HW161356   2.045   6.940   9.274  0.8297  0.8448 -0.2259
19894SOL    HW261357   1.998   6.989   9.409  1.5697  2.4008 -0.5077
19895SOL     OW61358   0.298   9.617   9.022  0.1898  0.3443 -0.3146
19895SOL    HW161359   0.349   9.684   8.976 -0.3895  1.2117  0.2718
19895SOL    HW261360   0.336   9.534   8.993  0.0139  0.8664 -2.1453
19896SOL     OW61361   3.992   9.590   2.290 -0.1406  0.6040  0.1602
19896SOL    HW161362   4.083   9.619   2.288 -0.1150  0.4881 -1.0373
19896SOL    HW261363   3.947   9.645   2.226 -1.1634  1.4106  1.5275
19897SOL     OW61364   2.582   3.785   0.032  0.2635  0.2417 -0.2100
19897SOL    HW161365   2.633   3.866   0.039 -1.0635  1.0208  0.8335
19897SOL    HW261366   2.581   3.765  -0.062 -0.9489  2.4945 -0.7423
19898SOL     OW61367   7.364   4.207   7.967 -0.1769 -0.1733  0.2725
19898SOL    HW161368   7.270   4.217   7.953 -0.1405 -1.0119 -0.6603
19898SOL    HW261369   7.403   4.224   7.881  0.4978 -0.1717  0.5714
19899SOL     OW61370   0.699   8.827   6.883  0.2905 -0.9981 -0.2036
19899SOL    HW161371   0.639   8.894   6.914 -0.0423 -0.7481 -1.3454
19899SOL    HW261372   0.780   8.843   6.931  0.7713  1.3096 -1.6432
19900SOL     OW61373   6.128   3.084   8.300 -0.3700 -0.1835 -0.1171
19900SOL    HW161374   6.206   3.139   8.307  0.0000 -0.4719 -1.4929
19900SOL    HW261375   6.145   3.030   8.222 -2.4522  0.5803 -1.1719
19901SOL     OW61376   1.394   8.443   1.808 -0.2848 -0.2376 -0.0995
19901SOL    HW161377   1.390   8.417   1.716 -0.2799  0.7343 -0.3935
19901SOL    HW261378   1.460   8.385   1.847 -1.5670 -1.8716 -0.2584
19902SOL     OW61379   4.787   0.610   6.590 -0.3459  0.4352  0.4027
19902SOL    HW161380   4.804   0.685   6.532 -2.0095  1.0415  0.6452
19902SOL    HW261381   4.693   0.595   6.583 -0.0503 -1.6808  0.3478
19903SOL     OW61382   0.460   6.760   7.310  0.4418 -0.3468 -0.3789
19903SOL    HW161383   0.471   6.671   7.277 -0.3466 -1.1962  1.4820
19903SOL    HW261384   0.417   6.749   7.395  0.7609  1.7879  0.1251
19904SOL     OW61385   7.313   5.064   9.427 -0.0355  0.0542 -0.1398
19904SOL    HW161386   7.222   5.039   9.437 -0.8836  1.9272 -2.3747
19904SOL    HW261387   7.332   5.120   9.502 -0.6536 -0.4155  0.3771
19905SOL     OW61388   6.732   4.785   5.318 -0.6582 -0.1855 -0.4193
19905SOL    HW161389   6.674   4.714   5.289 -0.6070 -0.1405 -0.6367
19905SOL    HW261390   6.819   4.760   5.286 -0.8704  0.6539 -1.7533
19906SOL     OW61391   8.305   3.219   4.114  0.4001  0.0895 -0.2185
19906SOL    HW161392   8.295   3.163   4.191 -0.1680  0.4859  0.0067
19906SOL    HW261393   8.299   3.308   4.149 -1.4427  0.2807 -0.8897
19907SOL     OW61394   4.776   5.087   3.154  0.7459  0.4063  0.5171
19907SOL    HW161395   4.738   5.014   3.202  1.9032 -0.0783  0.7188
19907SOL    HW261396   4.820   5.048   3.079 -0.0162  1.0532 -0.2895
19908SOL     OW61397   6.105   1.822   4.529 -0.2180  0.2266  0.1919
19908SOL    HW161398   6.084   1.794   4.440  0.6428  1.7660 -0.5434
19908SOL    HW261399   6.148   1.906   4.518  2.1515 -0.6565  1.8958
19909SOL     OW61400   7.215   7.023   8.945  0.1081 -0.4414  0.0252
19909SOL    HW161401   7.138   6.999   8.893 -0.7648  1.1465  0.5422
19909SOL    HW261402   7.235   6.944   8.996 -1.1688 -0.8842 -0.1289
19910SOL     OW61403   3.903   8.994   9.123  0.0463  0.1894  0.3733
19910SOL    HW161404   3.852   8.995   9.204 -2.3199  0.9974 -1.0224
19910SOL    HW261405   3.910   8.901   9.100  0.2365 -0.0016  1.1876
19911SOL     OW61406   2.919   0.733   9.156  0.1229 -0.3956 -0.2176
19911SOL    HW161407   2.897   0.826   9.162  1.5551 -0.0654  0.2540
19911SOL    HW261408   2.961   0.713   9.240 -1.1979 -1.7679  0.1404
19912SOL     OW61409   7.740   3.557   1.535 -0.2757 -0.0328 -0.6314
19912SOL    HW161410   7.703   3.481   1.581 -0.7393  0.2517 -0.5310
19912SOL    HW261411   7.672   3.585   1.475 -0.9468  1.5716  0.7879
19913SOL     OW61412   7.737   6.831   3.117  0.1811 -0.7824  0.0692
19913SOL    HW161413   7.643   6.848   3.125  0.3417  0.3408 -0.2410
19913SOL    HW261414   7.743   6.754   3.060 -0.5025  0.7527 -2.2233
19914SOL     OW61415   8.996   7.101   5.762  0.1189 -0.2735  0.4700
19914SOL    HW161416   9.086   7.107   5.795 -0.0372 -0.8397  1.0213
19914SOL    HW261417   8.949   7.050   5.828 -1.4611  2.8163  1.9691
19915SOL     OW61418   2.936   7.624   2.255 -0.2334  0.0091 -0.3451
19915SOL    HW161419   2.920   7.563   2.183  1.5987 -1.5800  0.5179
19915SOL    HW261420   2.874   7.598   2.323  0.5372 -0.9420  0.0193
19916SOL     OW61421   4.169   8.905   6.227 -0.1558 -0.2564  0.3195
19916SOL    HW161422   4.148   8.899   6.320  0.0165 -1.3497  0.2946
19916SOL    HW261423   4.243   8.845   6.215  0.5132  0.6671 -0.3271
19917SOL     OW61424   1.506   4.983   9.106 -0.0170  0.1379 -0.1099
19917SOL    HW161425   1.589   4.938   9.093  0.3816  0.1120  2.1256
19917SOL    HW261426   1.463   4.935   9.177 -0.9699  1.4161  0.2208
19918SOL     OW61427   6.988   4.459   6.768  0.3655 -0.6581 -0.4943
19918SOL    HW161428   6.933   4.536   6.770 -0.2397 -1.0807 -0.6182
19918SOL    HW261429   7.075   4.492   6.744  0.0543 -0.0615 -0.8192
19919SOL     OW61430   0.631   5.786   8.244  0.6970  0.2858  0.0360
19919SOL    HW161431   0.675   5.859   8.287  0.9260 -0.0674  0.4099
19919SOL    HW261432   0.538   5.802   8.258  0.7677  0.2484  0.5341
19920SOL     OW61433   3.775   4.971   8.938 -0.4304  0.5104  0.5985
19920SOL    HW161434   3.728   4.894   8.906  0.5573  0.6019 -1.2165
19920SOL    HW261435   3.728   4.997   9.017 -0.4159 -2.3244  1.6442
19921SOL     OW61436   6.947   3.389   0.442  0.1275 -0.5413  0.0469
19921SOL    HW161437   7.009   3.354   0.379  0.1778  0.5726 -0.5380
19921SOL    HW261438   6.992   3.380   0.527  0.3609 -1.3489 -0.1526
19922SOL     OW61439   2.490   2.340   1.498 -0.7597 -0.1496 -0.1679
19922SOL    HW161440   2.435   2.397   1.552  1.8857  1.7418  0.7369
19922SOL    HW261441   2.529   2.278   1.560  1.7970  1.6278  0.1117
19923SOL     OW61442   7.854   9.634   3.644 -0.2038 -0.5605  0.6607
19923SOL    HW161443   7.893   9.568   3.702 -0.8682 -0.7095  0.9410
19923SOL    HW261444   7.910   9.711   3.655 -0.5784 -0.4465  1.8354
19924SOL     OW61445   7.108   0.541   2.249  0.0984  0.5577  0.2667
19924SOL    HW161446   7.131   0.581   2.333 -0.4823  1.0615  0.1906
19924SOL    HW261447   7.061   0.461   2.273 -3.3160  2.4462  0.5400
19925SOL     OW61448   5.417   2.556   7.167 -0.3073 -0.8088  0.2625
19925SOL    HW161449   5.427   2.545   7.072  1.6925 -1.2746  0.4929
19925SOL    HW261450   5.481   2.623   7.190 -1.3915 -0.0549  1.1854
19926SOL     OW61451   9.231   7.895   4.772  0.5967  0.2793  0.1273
19926SOL    HW161452   9.300   7.860   4.828 -0.8139 -0.7059  1.3399
19926SOL    HW261453   9.172   7.940   4.832  0.8889  2.3593 -1.0686
19927SOL     OW61454   7.861   0.904   8.230  0.3956 -0.0883  0.8949
19927SOL    HW161455   7.910   0.829   8.196 -0.6804 -0.0053 -0.9566
19927SOL    HW261456   7.895   0.916   8.319  2.4721 -1.1017  0.3070
19928SOL     OW61457   9.488   3.835   3.157 -0.0473 -0.4685  0.0689
19928SOL    HW161458   9.482   3.852   3.251  2.2253  0.8271  0.0483
19928SOL    HW261459   9.569   3.786   3.147  0.0125 -0.1201 -1.2607
19929SOL     OW61460   3.817   8.825   4.301 -0.5582  0.0454 -0.4964
19929SOL    HW161461   3.780   8.899   4.349 -0.9884 -0.5748  0.1554
19929SOL    HW261462   3.741   8.773   4.275 -0.3176  0.3061 -1.7553
19930SOL     OW61463   3.111   5.160   3.871 -0.1511  0.3066 -0.1692
19930SOL    HW161464   3.183   5.195   3.819  0.7943  0.1543  0.9883
19930SOL    HW261465   3.043   5.227   3.867 -1.0192 -0.6107 -3.3574
19931SOL     OW61466   4.840   3.829   4.609  0.0361  0.3383  0.2175
19931SOL    HW161467   4.911   3.845   4.672 -0.0118 -0.2253  0.4182
19931SOL    HW261468   4.764   3.810   4.664 -0.6270  2.2737  0.0477
19932SOL     OW61469   4.291   0.770   3.406  0.4385  0.3052  0.1958
19932SOL    HW161470   4.375   0.760   3.450  0.7015  0.4039 -0.2827
19932SOL    HW261471   4.308   0.830   3.334 -0.0269  0.2695  0.0507
19933SOL     OW61472   2.699   5.560   5.241  0.2098 -0.6507 -0.0066
19933SOL    HW161473   2.605   5.556   5.257  0.0331 -0.2488 -0.8345
19933SOL    HW261474   2.709   5.632   5.178  1.2149  0.2054  1.0969
19934SOL     OW61475   7.284   8.145   7.005  0.0717 -0.2751 -0.4435
19934SOL    HW161476   7.203   8.094   7.016 -1.1487  1.3058 -1.6545
19934SOL    HW261477   7.257   8.236   7.014  0.8964  0.5788 -4.4435
19935SOL     OW61478   2.742   1.557   7.145 -0.6425 -0.1356  0.5650
19935SOL    HW161479   2.724   1.520   7.058  1.4591  0.4246 -0.1667
19935SOL    HW261480   2.713   1.490   7.206 -0.6243 -1.2702 -0.6342
19936SOL     OW61481   8.402   6.581   0.095 -0.0546  0.6391 -0.3112
19936SOL    HW161482   8.463   6.655   0.102  1.4687 -0.5427 -0.4261
19936SOL    HW261483   8.449   6.517   0.041 -1.2117 -0.5146  0.0028
19937SOL     OW61484   7.677   5.440   4.489  0.8389 -0.3121 -0.1803
19937SOL    HW161485   7.624   5.416   4.413  2.5763 -0.2608 -1.4742
19937SOL    HW261486   7.624   5.505   4.536 -0.3292 -0.4350 -1.2769
19938SOL     OW61487   3.173   1.715   4.444  0.2147 -0.0205 -0.3046
19938SOL    HW161488   3.160   1.799   4.490  1.2195 -0.2249  0.3890
19938SOL    HW261489   3.122   1.724   4.364 -1.3421  0.4757  0.6889
19939SOL     OW61490   6.790   6.941   7.055  0.1388  0.1973  0.4151
19939SOL    HW161491   6.859   6.939   6.989  1.1173  1.2528  1.3843
19939SOL    HW261492   6.786   6.851   7.088 -0.0609 -0.2410 -0.7451
19940SOL     OW61493   8.581   0.928   3.009  0.2553  0.1666  0.3851
19940SOL    HW161494   8.613   0.842   2.984  1.7208  0.3696  1.4120
19940SOL    HW261495   8.486   0.918   3.015  0.5358 -2.4850  4.0486
19941SOL     OW61496   2.942   8.395   7.747 -0.0143 -0.2607 -0.5285
19941SOL    HW161497   2.981   8.482   7.740 -1.4968  0.6065  1.2380
19941SOL    HW261498   2.900   8.381   7.662  2.7364 -0.6180 -1.9583
19942SOL     OW61499   1.536   4.926   8.032  0.3565 -0.0134  0.0821
19942SOL    HW161500   1.466   4.903   7.971 -1.0774  0.7494  1.3810
19942SOL    HW261501   1.541   4.851   8.092  0.1519  0.2344  0.4132
19943SOL     OW61502   0.079   4.412   3.803 -0.0349 -0.1412 -0.1592
19943SOL    HW161503  -0.006   4.437   3.839 -0.5221  1.9691 -2.5151
19943SOL    HW261504   0.143   4.447   3.866 -0.8799 -0.3536  0.8354
19944SOL     OW61505   7.211   6.236   0.190  0.2334  0.2262 -0.0917
19944SOL    HW161506   7.292   6.229   0.139 -0.4581 -0.7869 -1.0972
19944SOL    HW261507   7.158   6.300   0.144  0.4062  0.7985  0.4981
19945SOL     OW61508   5.840   9.331   3.354  0.4185 -0.2435 -0.0541
19945SOL    HW161509   5.803   9.310   3.268  0.9241 -0.4262 -0.2338
19945SOL    HW261510   5.867   9.422   3.347 -0.5845  0.0876  0.2929
19946SOL     OW61511   4.083   4.992   9.582  0.6683  0.1552  0.0640
19946SOL    HW161512   4.149   5.054   9.614  2.8750 -0.4709 -2.8911
19946SOL    HW261513   4.063   5.022   9.494 -0.0823 -1.9176 -0.5107
19947SOL     OW61514   2.346   3.624   8.794  0.6562 -0.1819 -0.4996
19947SOL    HW161515   2.306   3.547   8.835  1.1369 -0.4789 -0.5861
19947SOL    HW261516   2.292   3.697   8.824 -0.1320 -0.6103 -0.8519
19948SOL     OW61517   0.388   5.139   0.143  0.4232 -0.0886 -0.2924
19948SOL    HW161518   0.457   5.086   0.102  0.1107  0.1391 -1.1353
19948SOL    HW261519   0.428   5.171   0.224  1.4750  0.4125 -0.9886
19949SOL     OW61520   4.160   8.622   9.239 -0.1833 -0.1216  0.1156
19949SOL    HW161521   4.252   8.599   9.232 -0.3469 -0.6012 -0.5345
19949SOL    HW261522   4.158   8.696   9.300  0.8109  1.0646 -1.2324
19950SOL     OW61523   2.231   8.393   6.462 -0.3819  0.2363 -0.2720
19950SOL    HW161524   2.213   8.470   6.409  0.1010  0.4326 -0.1535
19950SOL    HW261525   2.312   8.413   6.508  0.3379 -0.7542 -1.0432
19951SOL     OW61526   1.155   2.149   6.334  0.5214 -0.9532 -0.2119
19951SOL    HW161527   1.096   2.165   6.261  0.0568  0.1088  0.3862
19951SOL    HW261528   1.222   2.090   6.297  0.9313  0.4163 -1.8184
19952SOL     OW61529   7.956   5.895   1.494 -0.2086 -0.3271 -0.7078
19952SOL    HW161530   7.924   5.805   1.484 -1.0075 -0.0041 -1.0431
19952SOL    HW261531   7.888   5.939   1.544 -0.0397  0.2238 -0.9609
19953SOL     OW61532   7.913   6.136   4.527 -0.0378  0.1406 -0.0567
19953SOL    HW161533   7.851   6.168   4.592 -0.1987 -2.4553  1.1557
19953SOL    HW261534   7.994   6.121   4.576 -0.6308 -3.4703  0.0954
19954SOL     OW61535   0.126   1.234   0.206  0.0564 -0.2778  0.1531
19954SOL    HW161536   0.116   1.327   0.226 -0.6926  0.0870 -1.7752
19954SOL    HW261537   0.221   1.220   0.204  0.2263  0.8685 -1.2809
19955SOL     OW61538   1.162   7.142   3.435 -0.3735  0.1194 -0.3163
19955SOL    HW161539   1.116   7.222   3.411  0.2373  0.7959  0.6678
19955SOL    HW261540   1.205   7.114   3.354 -0.8746  0.5846 -0.7537
19956SOL     OW61541   7.815   6.632   1.499  0.1081 -0.2934  0.4472
19956SOL    HW161542   7.791   6.581   1.576  1.5774 -0.9810  0.4906
19956SOL    HW261543   7.870   6.573   1.447 -0.2436  0.4058 -0.7734
19957SOL     OW61544   7.895   4.922   0.486  0.4340 -0.4662 -0.5375
19957SOL    HW161545   7.943   5.002   0.500  0.3805 -0.3985 -0.7270
19957SOL    HW261546   7.867   4.894   0.573  0.5877 -0.3650 -0.4559
19958SOL     OW61547   6.160   6.440   0.946 -0.5489 -0.0813 -0.9180
19958SOL    HW161548   6.123   6.424   1.033 -0.8798 -0.6037 -1.1491
19958SOL    HW261549   6.218   6.365   0.931 -1.7223 -0.8464 -1.8015
19959SOL     OW61550   6.158   2.730   2.961  0.4803 -0.2072 -0.4737
19959SOL    HW161551   6.225   2.796   2.974 -0.5249  0.6546  0.5222
19959SOL    HW261552   6.076   2.780   2.954 -0.4776 -1.3651  1.5632
19960SOL     OW61553   6.335   5.575   2.145 -0.5293  0.5332 -0.0446
19960SOL    HW161554   6.282   5.501   2.115 -0.6324  0.4255  0.3977
19960SOL    HW261555   6.388   5.539   2.215  0.9643  0.3572 -1.2243
19961SOL     OW61556   5.736   0.504   3.158  0.2524 -0.5607  0.8903
19961SOL    HW161557   5.750   0.456   3.076 -0.8432  0.0475  0.3159
19961SOL    HW261558   5.667   0.567   3.137 -0.0155 -0.3588  2.2856
19962SOL     OW61559   7.162   8.480   0.206  0.3871 -0.4071  0.2343
19962SOL    HW161560   7.227   8.411   0.191  0.2491 -0.4439 -0.2128
19962SOL    HW261561   7.088   8.455   0.151 -0.8673 -1.5017  2.2777
19963SOL     OW61562   1.408   5.412   6.969 -0.3489 -0.2269 -0.4824
19963SOL    HW161563   1.482   5.355   6.990  0.0829  0.3787 -0.3483
19963SOL    HW261564   1.332   5.355   6.974 -0.1678 -0.3413  1.7974
19964SOL     OW61565   2.631   5.881   9.188  0.2208 -0.0107  0.2177
19964SOL    HW161566   2.539   5.864   9.169  0.2397 -0.6336  0.6723
19964SOL    HW261567   2.639   5.976   9.181 -0.5543  0.0918  0.6277
19965SOL     OW61568   3.157   5.542   0.269  0.8064  0.3336 -0.4400
19965SOL    HW161569   3.239   5.583   0.240  0.0770  0.8068 -1.9291
19965SOL    HW261570   3.175   5.448   0.268  1.8668  0.4858  1.0271
19966SOL     OW61571   2.284   2.541   4.519  0.1151  0.0537 -0.5224
19966SOL    HW161572   2.340   2.606   4.476 -0.9089  1.2482 -0.0979
19966SOL    HW261573   2.345   2.471   4.543  1.2118  0.7255 -1.2091
19967SOL     OW61574   6.751   1.560   0.513 -0.5103  0.3439 -0.0034
19967SOL    HW161575   6.826   1.563   0.453 -0.7548 -1.2164 -0.4254
19967SOL    HW261576   6.741   1.468   0.533  0.3642  0.8825  3.5163
19968SOL     OW61577   2.169   1.126   2.286 -0.5117  0.3440 -0.0081
19968SOL    HW161578   2.128   1.071   2.353  0.9457 -1.8618 -0.7867
19968SOL    HW261579   2.223   1.188   2.334 -0.1418 -0.6496  0.8948
19969SOL     OW61580   5.644   1.458   9.512  0.1605 -0.5707 -0.3673
19969SOL    HW161581   5.579   1.390   9.492 -1.4081  0.8194 -0.2262
19969SOL    HW261582   5.715   1.442   9.450 -1.0709 -1.1541 -1.6911
19970SOL     OW61583   9.642   3.242   5.708  0.4594 -0.3574  0.3605
19970SOL    HW161584   9.656   3.297   5.785  0.6111 -1.9594  1.5283
19970SOL    HW261585   9.546   3.240   5.697  0.5125  1.7848 -0.9896
19971SOL     OW61586   5.484   4.605   7.231  0.1954  0.6432 -0.1344
19971SOL    HW161587   5.512   4.695   7.210 -0.3025  0.4383 -1.8293
19971SOL    HW261588   5.555   4.570   7.284  1.6435  1.2076 -1.6112
19972SOL     OW61589   8.016   0.697   8.158  0.1212 -0.2421 -0.5431
19972SOL    HW161590   8.008   0.606   8.187 -1.0388  0.2356  0.7183
19972SOL    HW261591   8.070   0.691   8.079 -0.5107 -2.1044 -0.9085
19973SOL     OW61592   9.212   1.675   1.665 -0.4861  0.3329 -0.6464
19973SOL    HW161593   9.284   1.633   1.617 -0.5587 -0.3723 -0.1540
19973SOL    HW261594   9.139   1.615   1.654 -0.4557  0.0856  0.4833
19974SOL     OW61595   7.697   7.306   3.003  0.0740 -0.0014 -0.7388
19974SOL    HW161596   7.711   7.241   2.935 -0.3368  0.4420 -1.2594
19974SOL    HW261597   7.783   7.344   3.020  0.2677 -0.4851 -0.6214
19975SOL     OW61598   4.163   6.962   8.985  0.2664  0.7527  0.0603
19975SOL    HW161599   4.230   6.908   9.028  0.8460  0.3510 -1.3053
19975SOL    HW261600   4.205   7.047   8.973  0.1183  0.8513  0.2291
19976SOL     OW61601   9.235   0.718   3.963 -0.1070  0.2860 -0.2602
19976SOL    HW161602   9.155   0.771   3.964  1.0320  2.3392 -3.3064
19976SOL    HW261603   9.279   0.740   4.045 -1.6509  0.7528  0.4900
19977SOL     OW61604   8.985   2.683   4.796  0.4819  0.5021 -0.2623
19977SOL    HW161605   9.037   2.763   4.788  2.6412 -0.5931  1.4414
19977SOL    HW261606   8.895   2.713   4.804  0.9942  2.6119 -1.6719
19978SOL     OW61607   4.931   3.383   3.261  0.4287  0.2272 -0.1125
19978SOL    HW161608   4.920   3.332   3.181  0.8950  0.6212 -0.4374
19978SOL    HW261609   4.974   3.324   3.322  2.3740  0.6627 -0.9874
19979SOL     OW61610   4.603   8.323   4.464  0.0124  0.2130  0.6333
19979SOL    HW161611   4.575   8.398   4.411  0.8480  0.4307  0.4886
19979SOL    HW261612   4.547   8.326   4.541  1.7215  2.5835  1.9220
19980SOL     OW61613   7.782   2.312   5.847  0.9268  0.2876 -0.1649
19980SOL    HW161614   7.793   2.258   5.769  0.9834 -2.2278  1.4332
19980SOL    HW261615   7.723   2.382   5.821  0.2192 -0.9927 -2.2152
19981SOL     OW61616   0.073   2.502   1.724  0.5501  0.2384  0.1948
19981SOL    HW161617   0.022   2.516   1.804  1.7308  0.5855  0.9165
19981SOL    HW261618   0.065   2.408   1.707 -0.7822  0.3842 -0.0397
19982SOL     OW61619   6.981   5.785   3.156 -0.1299 -0.2059 -0.4025
19982SOL    HW161620   6.946   5.748   3.237  0.4393  0.4496  0.1527
19982SOL    HW261621   6.971   5.715   3.092 -2.1952 -0.1382 -0.2066
19983SOL     OW61622   1.696   3.462   0.211  0.0199  0.1333  0.3937
19983SOL    HW161623   1.625   3.406   0.242 -1.2609  0.6025 -1.5125
19983SOL    HW261624   1.655   3.547   0.195  1.4120  0.9446  0.8997
19984SOL     OW61625   4.994   1.571   6.294  0.9469  0.0113  0.9040
19984SOL    HW161626   5.014   1.575   6.387  2.1033 -0.8501  0.7075
19984SOL    HW261627   5.039   1.647   6.257  1.0282 -0.0161  0.9475
19985SOL     OW61628   3.068   3.081   0.939  0.1341 -0.7638  0.2973
19985SOL    HW161629   3.102   3.118   1.020  0.8347 -0.5762 -0.0751
19985SOL    HW261630   2.996   3.025   0.966 -0.2880  0.0809  0.9618
19986SOL     OW61631   2.120   4.363   7.408 -0.4296 -0.3765  0.1152
19986SOL    HW161632   2.055   4.310   7.360  0.6632 -1.5442 -0.1412
19986SOL    HW261633   2.134   4.315   7.489 -1.4817  1.0359  1.1786
19987SOL     OW61634   6.298   8.987   2.051 -0.0461  0.6236  0.4980
19987SOL    HW161635   6.277   9.079   2.032  1.8453  0.6708 -1.7736
19987SOL    HW261636   6.308   8.946   1.965  1.8749 -1.0221  1.4267
19988SOL     OW61637   8.934   3.755   9.411 -0.2192 -0.4059 -0.1555
19988SOL    HW161638   9.003   3.755   9.345  0.4098 -1.5766  0.4698
19988SOL    HW261639   8.980   3.774   9.493 -0.9824  0.9818 -0.0235
19989SOL     OW61640   3.604   4.737   6.523 -0.0254 -0.3246 -0.2663
19989SOL    HW161641   3.603   4.715   6.616 -0.6889  0.5086 -0.0602
19989SOL    HW261642   3.655   4.818   6.518 -1.2589  0.4699 -0.4075
19990SOL     OW61643   7.146   2.701   6.156  0.3069 -0.0089  0.1239
19990SOL    HW161644   7.232   2.724   6.190 -0.0699  2.1927 -0.2801
19990SOL    HW261645   7.120   2.776   6.103 -2.8586  0.4547  2.0576
19991SOL     OW61646   4.485   9.187   7.844 -0.7841  0.1208  0.0634
19991SOL    HW161647   4.391   9.200   7.832 -0.8065  0.1225  0.2383
19991SOL    HW261648   4.522   9.276   7.840 -0.7594  0.0960 -0.2633
19992SOL     OW61649   0.110   3.178   9.264  0.4190 -0.2684  0.1460
19992SOL    HW161650   0.070   3.260   9.234 -0.4810 -0.4310  0.8759
19992SOL    HW261651   0.202   3.200   9.278  0.2292  0.5588  0.1432
19993SOL     OW61652   2.176   9.060   1.482 -0.4706  0.3852  0.0429
19993SOL    HW161653   2.185   8.965   1.477  0.2230  0.3133  1.9292
19993SOL    HW261654   2.122   9.083   1.406 -2.2769 -1.7218  0.5860
19994SOL     OW61655   5.315   0.862   3.589 -0.0600 -0.1347 -0.4008
19994SOL    HW161656   5.254   0.803   3.633  0.8416  0.1386  1.2676
19994SOL    HW261657   5.259   0.919   3.536 -1.2218 -0.1745  0.7552
19995SOL     OW61658   8.927   8.537   8.300 -0.9176 -0.1948 -0.0888
19995SOL    HW161659   9.011   8.502   8.330 -1.5737 -1.2054  0.6461
19995SOL    HW261660   8.866   8.515   8.370 -1.7301  0.8372 -0.4570
19996SOL     OW61661   2.715   7.414   7.849  0.0082 -0.2099 -0.5007
19996SOL    HW161662   2.672   7.443   7.929 -0.4403 -1.0836 -0.4196
19996SOL    HW261663   2.651   7.357   7.806  0.2489  0.2260 -1.4713
19997SOL     OW61664   9.230   5.905   8.248  0.0825 -0.3487 -0.3030
19997SOL    HW161665   9.221   5.912   8.153 -1.2835 -0.4270 -0.2041
19997SOL    HW261666   9.217   5.994   8.280 -0.9043 -0.5459 -0.1144
19998SOL     OW61667   7.851   2.268   1.209 -0.7637 -0.5112 -0.3104
19998SOL    HW161668   7.871   2.326   1.136 -2.3227 -0.3490 -0.6378
19998SOL    HW261669   7.906   2.300   1.280 -1.5827  1.3810 -0.4732
19999SOL     OW61670   9.580   0.478   2.537  0.5196 -1.0152 -0.0508
19999SOL    HW161671   9.589   0.490   2.442  0.9680 -1.2455 -0.0383
19999SOL    HW261672   9.639   0.405   2.558 -1.5084 -2.7485  0.0001
20000SOL     OW61673   0.095   3.052   0.891  0.2581 -0.0771  0.4361
20000SOL    HW161674   0.033   3.044   0.963 -0.6354 -1.4902 -0.4292
20000SOL    HW261675   0.067   3.130   0.844  2.4071  2.4209  2.9499
20001SOL     OW61676   0.059   3.860   4.377  0.6642 -0.4818 -0.4029
20001SOL    HW161677  -0.015   3.890   4.429  1.1165  0.4085 -0.2650
20001SOL    HW261678   0.051   3.907   4.294 -0.1221 -1.9740 -1.2286
20002SOL     OW61679   0.345   5.124   3.604  0.1862 -0.0792  0.0426
20002SOL    HW161680   0.394   5.154   3.528  1.0470  0.9766  0.9657
20002SOL    HW261681   0.350   5.198   3.666 -0.7002 -0.8018  1.0180
20003SOL     OW61682   9.280   7.868   5.271 -0.3911 -0.4212  0.1192
20003SOL    HW161683   9.368   7.835   5.252  0.6294  1.1758  1.7228
20003SOL    HW261684   9.247   7.810   5.340 -0.2205 -0.4734  0.1562
20004SOL     OW61685   5.004   2.537   9.523  0.0915 -0.1646 -0.6115
20004SOL    HW161686   5.067   2.598   9.483  1.0789  0.8763  2.2053
20004SOL    HW261687   5.059   2.473   9.568 -0.8876 -0.7081 -0.1639
20005SOL     OW61688   3.930   5.276   7.223  0.1425 -0.4289 -0.1391
20005SOL    HW161689   3.886   5.360   7.229  1.6558  0.4346 -0.6638
20005SOL    HW261690   3.867   5.213   7.259 -1.0088  0.9090  0.2598
20006SOL     OW61691   0.519   0.098   5.813  0.3582  0.3179 -0.0792
20006SOL    HW161692   0.497   0.115   5.904 -0.4986  2.8810 -0.6682
20006SOL    HW261693   0.615   0.092   5.813  0.3998  0.7089  0.9359
20007SOL     OW61694   9.219   2.926   1.086 -0.3591  0.1841 -0.1867
20007SOL    HW161695   9.206   2.943   1.179  1.8921 -2.6106  0.7863
20007SOL    HW261696   9.130   2.923   1.050 -1.2967  1.4274  1.8062
20008SOL     OW61697   8.395   4.446   4.873  0.4718  0.0664  0.4665
20008SOL    HW161698   8.482   4.407   4.879  0.2244 -0.7335 -0.6457
20008SOL    HW261699   8.377   4.479   4.960  1.0687 -1.5504  1.2395
20009SOL     OW61700   3.626   9.400   6.337 -0.6520  0.2530  0.4659
20009SOL    HW161701   3.703   9.345   6.320  0.6742  1.8901  0.9879
20009SOL    HW261702   3.650   9.453   6.412 -2.0156  1.3464  0.1707
20010SOL     OW61703   0.221   5.550   4.592  0.7250  0.2023 -0.0256
20010SOL    HW161704   0.244   5.581   4.504  0.2317  0.0565 -0.2065
20010SOL    HW261705   0.305   5.539   4.635  0.9431  1.6166 -0.0213
20011SOL     OW61706   8.989   6.411   0.213  0.2470  0.3461 -0.2767
20011SOL    HW161707   8.993   6.428   0.119  0.6170  1.1194 -0.1304
20011SOL    HW261708   8.937   6.331   0.221 -2.6261  2.0036 -0.9428
20012SOL     OW61709   1.899   6.257   8.517  0.5289 -0.1995 -0.1898
20012SOL    HW161710   1.877   6.261   8.424 -3.3445 -0.2799  0.5908
20012SOL    HW261711   1.893   6.348   8.547 -1.3243 -0.5144  0.5178
20013SOL     OW61712   5.802   5.564   2.480 -0.3460  0.4167 -0.3541
20013SOL    HW161713   5.772   5.630   2.543 -0.9638 -0.5440  0.3777
20013SOL    HW261714   5.752   5.584   2.401 -1.1221  0.3400  0.1082
20014SOL     OW61715   3.685   0.967   5.483  0.2143  0.0060 -0.0966
20014SOL    HW161716   3.686   0.879   5.444  2.4346  0.4265 -1.1120
20014SOL    HW261717   3.747   0.962   5.556  1.0167  0.9312 -0.6978
20015SOL     OW61718   6.051   1.333   7.035 -0.4708  0.2694 -0.0918
20015SOL    HW161719   5.963   1.307   7.062 -1.4253  1.4516 -1.8582
20015SOL    HW261720   6.106   1.258   7.059 -1.8856 -0.3982  1.2875
20016SOL     OW61721   0.473   5.430   8.389  0.2776  0.2185 -0.4286
20016SOL    HW161722   0.432   5.410   8.305  0.6330  0.1812 -0.5957
20016SOL    HW261723   0.404   5.472   8.441 -0.9326 -2.6402  0.4353
20017SOL     OW61724   4.364   6.563   7.830  0.0160 -0.6042  0.0861
20017SOL    HW161725   4.385   6.473   7.804 -0.2592  0.1091 -3.0307
20017SOL    HW261726   4.277   6.578   7.794  0.9989  1.6020 -1.6000
20018SOL     OW61727   4.121   1.185   0.014 -0.1230  0.2750 -0.2463
20018SOL    HW161728   4.045   1.236   0.042 -0.2547 -0.9401  1.7748
20018SOL    HW261729   4.134   1.211  -0.077 -0.9973  2.8674  0.2818
20019SOL     OW61730   3.309   3.119   7.651 -0.0779  0.8206  0.5762
20019SOL    HW161731   3.245   3.143   7.718 -2.3100  1.7351 -1.7385
20019SOL    HW261732   3.313   3.194   7.593  2.0389  0.1860 -0.2031
20020SOL     OW61733   4.464   2.069   8.650 -0.6286  0.1190  0.0271
20020SOL    HW161734   4.420   2.004   8.705  0.9071 -0.1654  0.9767
20020SOL    HW261735   4.558   2.056   8.667 -0.2014  1.3342 -1.1910
20021SOL     OW61736   6.316   6.290   3.406 -0.2617  0.1672 -0.2625
20021SOL    HW161737   6.340   6.381   3.425 -1.0810  0.9055 -2.4581
20021SOL    HW261738   6.220   6.289   3.413 -0.2473 -0.5576 -0.1393
20022SOL     OW61739   6.467   5.919   8.602 -0.5179  0.1072 -0.2478
20022SOL    HW161740   6.382   5.875   8.598  0.0946 -1.1362 -0.0342
20022SOL    HW261741   6.501   5.898   8.688  0.3431 -0.0369 -0.6131
20023SOL     OW61742   6.687   9.055   6.432 -0.0371 -0.1740 -0.0278
20023SOL    HW161743   6.713   9.133   6.383 -1.0570 -0.3235 -0.8663
20023SOL    HW261744   6.632   9.006   6.370  0.4920 -1.5040  0.5190
20024SOL     OW61745   6.046   5.121   4.207  0.2847  0.4758 -0.4448
20024SOL    HW161746   5.998   5.105   4.288  0.9304  2.1116  0.3089
20024SOL    HW261747   5.994   5.186   4.160  0.9803  1.1389 -0.3200
20025SOL     OW61748   1.718   7.024   0.231 -0.4313 -0.2187 -0.6474
20025SOL    HW161749   1.657   6.959   0.197 -2.6151  1.9291 -1.1575
20025SOL    HW261750   1.727   7.087   0.159  0.4118  0.8068  0.3323
20026SOL     OW61751   7.021   1.283   0.142  0.4515  0.1046  0.2490
20026SOL    HW161752   7.003   1.190   0.136  0.6230  0.1618 -2.0380
20026SOL    HW261753   7.095   1.290   0.202 -0.5035 -1.0629  1.6252
20027SOL     OW61754   9.276   2.984   8.456  0.2028 -0.4144 -0.0830
20027SOL    HW161755   9.335   3.051   8.491 -0.6363 -0.0906  0.7751
20027SOL    HW261756   9.334   2.917   8.421  1.2158 -1.3569  3.0069
20028SOL     OW61757   8.056   6.023   3.131 -0.5079  0.4607  0.8904
20028SOL    HW161758   8.049   5.932   3.161  0.5020  0.7667  2.1592
20028SOL    HW261759   8.146   6.048   3.152 -1.4771  2.5551  2.9958
20029SOL     OW61760   4.969   5.588   3.499 -0.6134 -0.1803 -0.1735
20029SOL    HW161761   4.894   5.647   3.498 -1.4929 -1.2435  0.4637
20029SOL    HW261762   4.945   5.520   3.562  0.4611 -1.1003 -0.7211
20030SOL     OW61763   8.969   4.866   0.427  0.2959  0.4548  0.6026
20030SOL    HW161764   8.962   4.915   0.509 -1.4869  0.1005  0.6872
20030SOL    HW261765   8.883   4.874   0.386  0.3356 -1.5464  0.0184
20031SOL     OW61766   2.854   8.402   6.597 -0.5028 -0.2635  0.2153
20031SOL    HW161767   2.914   8.478   6.594 -1.6873  0.6932 -2.2529
20031SOL    HW261768   2.812   8.408   6.683  0.3891  1.1075  0.5909
20032SOL     OW61769   3.875   1.201   0.424 -0.4975  0.5287 -0.1271
20032SOL    HW161770   3.885   1.275   0.484  1.2554 -0.9633  1.5325
20032SOL    HW261771   3.781   1.183   0.425 -0.6936  1.4526  1.0428
20033SOL     OW61772   6.833   4.162   0.187  0.2172 -0.2441 -0.3597
20033SOL    HW161773   6.908   4.117   0.226  1.0609  0.8672 -0.6407
20033SOL    HW261774   6.870   4.243   0.153 -0.8976 -0.2211 -1.5726
20034SOL     OW61775   5.001   1.658   3.754  0.3521  0.7074  0.0315
20034SOL    HW161776   5.096   1.662   3.769  0.4429 -0.9204  0.0143
20034SOL    HW261777   4.986   1.569   3.722 -1.0577  1.2592 -0.9198
20035SOL     OW61778   0.115   9.174   2.922 -0.5164 -0.5757 -0.1095
20035SOL    HW161779   0.104   9.124   3.003  1.2930 -1.1496 -0.1721
20035SOL    HW261780   0.161   9.254   2.949 -1.3911  0.0173 -0.3419
20036SOL     OW61781   5.366   3.615   1.616  0.0811 -0.3027 -0.7083
20036SOL    HW161782   5.320   3.622   1.532  2.1421 -1.3132 -1.9832
20036SOL    HW261783   5.313   3.553   1.666 -0.7959 -0.2420 -1.5235
20037SOL     OW61784   8.383   0.155   3.782  0.0379  0.2009 -0.0994
20037SOL    HW161785   8.449   0.168   3.850 -0.5641 -3.9792  1.5888
20037SOL    HW261786   8.417   0.085   3.727 -1.4378  0.4663 -1.4520
20038SOL     OW61787   7.897   7.632   6.456 -0.5937 -0.4594  0.3541
20038SOL    HW161788   7.897   7.727   6.458 -1.5737 -0.4557  1.1616
20038SOL    HW261789   7.854   7.610   6.373 -2.3089 -0.1579  1.1133
20039SOL     OW61790   9.429   5.316   8.415 -0.0186 -0.5964  0.4588
20039SOL    HW161791   9.479   5.235   8.430 -1.0340 -1.5956 -1.2616
20039SOL    HW261792   9.339   5.287   8.406  0.0170  0.1039 -4.1764
20040SOL     OW61793   2.178   6.581   5.083  0.4031 -0.2680  0.1745
20040SOL    HW161794   2.202   6.673   5.094  1.2270 -0.3780 -0.6628
20040SOL    HW261795   2.160   6.550   5.172  0.3261  0.6384  0.4799
20041SOL     OW61796   5.570   1.799   4.121 -0.4132 -0.1980  0.0606
20041SOL    HW161797   5.541   1.764   4.206 -1.4831 -0.0140 -0.2184
20041SOL    HW261798   5.574   1.722   4.064  1.6152 -0.5381  0.6018
20042SOL     OW61799   5.958   3.945   0.263  0.1151 -0.3315 -0.6597
20042SOL    HW161800   5.930   3.965   0.352  0.2042 -0.4897 -0.5962
20042SOL    HW261801   6.048   3.978   0.257 -0.2944  0.7588 -1.0629
20043SOL     OW61802   3.855   8.385   4.119  0.5240  0.4517 -0.0356
20043SOL    HW161803   3.906   8.344   4.048  0.9955  1.4062 -0.2602
20043SOL    HW261804   3.764   8.374   4.092  0.6396 -0.5133 -0.0518
20044SOL     OW61805   9.111   6.496   4.155 -0.1763 -0.4716  0.1409
20044SOL    HW161806   9.033   6.551   4.162 -1.2344 -1.2725 -3.2504
20044SOL    HW261807   9.178   6.554   4.118  0.2213 -0.3431  1.0203
20045SOL     OW61808   1.510   3.167   5.326 -0.3719  0.0847 -0.4154
20045SOL    HW161809   1.541   3.081   5.355  0.0799  0.7845  1.2957
20045SOL    HW261810   1.474   3.151   5.239 -3.2923 -2.5078  1.0502
20046SOL     OW61811   9.029   8.587   0.455  0.8247 -0.0381 -0.3851
20046SOL    HW161812   8.945   8.548   0.430 -0.4387  2.0263  0.4102
20046SOL    HW261813   9.043   8.657   0.392  0.9774  0.8680  0.6355
20047SOL     OW61814   2.942   5.163   0.042 -0.0716  0.6302 -0.7383
20047SOL    HW161815   2.897   5.194  -0.037 -1.1614 -0.6555 -0.6340
20047SOL    HW261816   2.911   5.221   0.111 -0.1595  0.8965 -0.9967
20048SOL     OW61817   9.133   3.755   8.106 -0.9506  0.3630 -0.0649
20048SOL    HW161818   9.220   3.776   8.141  0.0537 -0.5782 -1.8542
20048SOL    HW261819   9.128   3.805   8.024 -2.2222  0.6112  0.1421
20049SOL     OW61820   1.964   7.143   1.857 -0.2664  0.2058 -0.1305
20049SOL    HW161821   1.949   7.200   1.782 -0.5814  0.0013 -0.2261
20049SOL    HW261822   1.905   7.176   1.925 -0.5230 -0.0626 -0.2190
20050SOL     OW61823   3.863   3.993   5.534  0.2611 -0.1284  0.3129
20050SOL    HW161824   3.783   3.999   5.483 -0.4955 -2.0829  1.1377
20050SOL    HW261825   3.846   4.046   5.612  0.3861  0.7182 -0.2322
20051SOL     OW61826   3.174   7.747   2.213 -0.2847 -0.3440 -1.0451
20051SOL    HW161827   3.156   7.830   2.257  1.1252 -1.1082  1.1129
20051SOL    HW261828   3.097   7.693   2.231 -0.1401 -0.3206 -0.3513
20052SOL     OW61829   4.956   0.796   8.711 -0.1461 -0.1010  0.1894
20052SOL    HW161830   4.950   0.891   8.714 -1.6012 -0.1280 -0.5952
20052SOL    HW261831   4.948   0.774   8.618 -1.8985 -1.0396  0.4954
20053SOL     OW61832   8.391   7.432   2.639 -0.0057 -0.3314 -0.0181
20053SOL    HW161833   8.335   7.408   2.565  0.6845 -0.3047 -0.5540
20053SOL    HW261834   8.424   7.520   2.617  0.8076 -0.6381 -0.0443
20054SOL     OW61835   2.001   2.517   9.553  0.1452  0.5851 -0.6188
20054SOL    HW161836   2.016   2.424   9.565  1.1989  0.8549  0.3135
20054SOL    HW261837   2.073   2.547   9.497  0.4549  1.0299  0.0015
20055SOL     OW61838   7.594   3.507   0.042 -0.3885 -0.2033  0.4150
20055SOL    HW161839   7.517   3.451   0.036  0.4662 -1.3726  0.1360
20055SOL    HW261840   7.623   3.499   0.133 -0.6983  0.3986  0.5750
20056SOL     OW61841   7.066   9.333   5.598  0.3541 -0.0653 -0.3553
20056SOL    HW161842   6.972   9.320   5.610  0.5116  0.7046  2.5192
20056SOL    HW261843   7.103   9.245   5.603 -0.1255 -0.2861 -0.6014
20057SOL     OW61844   1.630   7.113   6.462  0.1187  0.3241 -0.0725
20057SOL    HW161845   1.617   7.024   6.496 -0.0749  1.1120  2.0199
20057SOL    HW261846   1.543   7.141   6.434 -0.0294  0.2779  0.3438
20058SOL     OW61847   8.072   8.054   4.584  0.3452  0.3337  0.0267
20058SOL    HW161848   8.035   8.140   4.563  0.6803  0.2910 -0.8118
20058SOL    HW261849   7.996   7.997   4.593  0.1323  0.6450  0.2218
20059SOL     OW61850   5.764   7.241   0.116  0.7857  0.7970  0.4672
20059SOL    HW161851   5.732   7.190   0.191  1.1941  0.9908  0.7768
20059SOL    HW261852   5.700   7.224   0.047  0.8406 -0.0139  0.6105
20060SOL     OW61853   3.998   2.962   8.682  0.0764  0.0519  0.8044
20060SOL    HW161854   4.077   2.980   8.631  0.4426  0.0822  1.3655
20060SOL    HW261855   4.004   2.868   8.702 -1.8547 -0.8448 -2.1671
20061SOL     OW61856   6.275   2.974   1.063  0.4261 -0.4020  0.5622
20061SOL    HW161857   6.298   2.884   1.041 -0.6883 -0.4368 -0.5842
20061SOL    HW261858   6.353   3.009   1.105  1.5539 -1.3348 -0.6671
20062SOL     OW61859   8.641   5.660   4.033 -0.3240 -0.3411 -0.0025
20062SOL    HW161860   8.663   5.753   4.031  0.1654 -0.4593 -0.2920
20062SOL    HW261861   8.690   5.626   4.107 -0.5256 -0.3654  0.1209
20063SOL     OW61862   8.610   8.834   3.881 -0.1490 -0.1787 -0.5318
20063SOL    HW161863   8.544   8.835   3.813 -1.4233  1.5104  0.6531
20063SOL    HW261864   8.588   8.758   3.936 -0.2889 -0.3785 -0.8618
20064SOL     OW61865   4.572   2.943   3.543 -0.2793  0.0343 -0.0652
20064SOL    HW161866   4.564   3.015   3.607  0.1073  0.0449 -0.0250
20064SOL    HW261867   4.562   2.864   3.595 -0.3011  0.0510 -0.0440
20065SOL     OW61868   8.736   8.487   2.704 -0.4073 -0.3972 -0.2425
20065SOL    HW161869   8.720   8.488   2.610 -0.9157 -1.7962 -0.1957
20065SOL    HW261870   8.773   8.573   2.723 -0.8634  0.1309 -1.6184
20066SOL     OW61871   5.205   1.200   2.818  0.6504 -0.3047  0.1073
20066SOL    HW161872   5.296   1.169   2.821  0.9331  0.5777  1.4757
20066SOL    HW261873   5.212   1.294   2.802  0.0133 -0.1055  0.9304
20067SOL     OW61874   0.806   7.506   1.580 -0.1002  0.5780 -0.2589
20067SOL    HW161875   0.725   7.524   1.533  1.4106  2.8461 -2.2116
20067SOL    HW261876   0.837   7.592   1.608  3.1541  0.2511 -2.3411
20068SOL     OW61877   2.885   3.222   0.799  0.3854 -0.0907  0.0116
20068SOL    HW161878   2.900   3.308   0.837  0.7920 -1.0646  2.2113
20068SOL    HW261879   2.972   3.182   0.794  0.0262 -0.9882  0.6425
20069SOL     OW61880   4.860   0.821   6.103  0.3257  0.7701  0.1635
20069SOL    HW161881   4.821   0.885   6.044 -2.8048 -0.2476  0.9282
20069SOL    HW261882   4.816   0.739   6.081  1.8952 -0.4443  1.3578
20070SOL     OW61883   8.074   4.422   6.950 -0.5396 -0.4151 -0.4858
20070SOL    HW161884   8.159   4.388   6.977 -0.5666  0.1007  0.3025
20070SOL    HW261885   8.011   4.358   6.984 -0.5106 -0.2928 -0.1902
20071SOL     OW61886   8.916   4.055   2.553  0.8510  0.1210 -0.0641
20071SOL    HW161887   8.966   4.079   2.631 -0.1573 -0.7950  0.8970
20071SOL    HW261888   8.914   3.959   2.554  0.4028  0.1121 -0.9406
20072SOL     OW61889   8.234   8.203   2.672 -0.6802  0.3882  0.2897
20072SOL    HW161890   8.238   8.214   2.767 -1.5629 -0.2451  0.4094
20072SOL    HW261891   8.319   8.165   2.649 -0.4808  0.4977  0.8226
20073SOL     OW61892   8.585   7.176   2.525  0.0092 -0.7789 -0.2750
20073SOL    HW161893   8.610   7.085   2.540  0.1143 -0.9454 -1.3920
20073SOL    HW261894   8.490   7.173   2.512 -0.2745 -0.4709  1.4965
20074SOL     OW61895   0.353   3.883   9.642  0.6237  0.1054 -0.2312
20074SOL    HW161896   0.260   3.882   9.622  0.5291  0.1814  0.2002
20074SOL    HW261897   0.370   3.973   9.672  0.9306  0.2268 -0.7583
20075SOL     OW61898   8.137   0.623   7.923  0.2358  0.3985  0.0417
20075SOL    HW161899   8.100   0.597   7.839  1.8492 -0.6328 -0.3949
20075SOL    HW261900   8.229   0.597   7.918  1.3705  3.8430  0.6453
20076SOL     OW61901   3.279   7.853   2.716  0.2705  0.6211  0.1858
20076SOL    HW161902   3.253   7.865   2.808 -0.1235  1.0013  0.0309
20076SOL    HW261903   3.313   7.938   2.689 -1.3239  1.0803 -0.5433
20077SOL     OW61904   1.486   8.073   2.384  0.4394 -0.2397  0.4691
20077SOL    HW161905   1.442   8.022   2.452  0.7182 -1.0877  0.0276
20077SOL    HW261906   1.577   8.078   2.413  0.3177  0.4352  0.7536
20078SOL     OW61907   7.005   8.018   9.271 -0.1103 -0.5081  0.0983
20078SOL    HW161908   7.084   8.024   9.324  0.2225 -2.0092 -0.1972
20078SOL    HW261909   6.947   7.960   9.320 -0.8063  0.1112  0.0283
20079SOL     OW61910   4.171   3.669   9.270 -0.2872  0.4684 -0.0151
20079SOL    HW161911   4.108   3.700   9.206 -2.0648 -1.5211  0.6544
20079SOL    HW261912   4.181   3.742   9.331 -0.3060  1.5627 -1.2817
20080SOL     OW61913   6.122   2.419   4.268 -0.2882  0.2516  0.2411
20080SOL    HW161914   6.080   2.451   4.348 -0.3245 -2.3276  1.3510
20080SOL    HW261915   6.053   2.371   4.223  0.3657 -0.3735 -0.1015
20081SOL     OW61916   8.341   3.010   6.019 -0.4108  0.8414  0.0916
20081SOL    HW161917   8.377   2.927   5.987 -0.9069 -0.0125  1.6403
20081SOL    HW261918   8.250   3.010   5.988 -0.8807  0.0304  1.3560
20082SOL     OW61919   7.443   1.284   1.968 -0.0701 -0.1157 -0.4481
20082SOL    HW161920   7.447   1.362   2.023  1.3810 -0.6514  0.2644
20082SOL    HW261921   7.407   1.216   2.026 -0.3081 -0.2332 -0.7314
20083SOL     OW61922   4.474   9.162   9.610 -0.4158 -0.0900  0.2276
20083SOL    HW161923   4.380   9.148   9.601 -0.4908 -0.2836  1.1733
20083SOL    HW261924   4.482   9.247   9.654 -0.2030 -0.6626  1.3277
20084SOL     OW61925   3.540   0.254   8.620 -0.1023 -0.0108 -0.0764
20084SOL    HW161926   3.482   0.318   8.661  1.2926 -0.5710  3.0746
20084SOL    HW261927   3.522   0.172   8.666  0.5331 -1.1139 -1.6852
20085SOL     OW61928   1.673   3.687   0.497 -0.4289  0.2432 -0.0355
20085SOL    HW161929   1.706   3.602   0.527 -0.7970  1.0988  3.2632
20085SOL    HW261930   1.744   3.723   0.444  1.8711 -0.1574  2.5367
20086SOL     OW61931   3.399   1.636   0.351 -0.4574 -0.5715 -0.5249
20086SOL    HW161932   3.482   1.652   0.307 -0.2906 -2.2529 -0.8873
20086SOL    HW261933   3.423   1.596   0.434 -0.8936 -2.2461 -1.1578
20087SOL     OW61934   1.600   4.564   7.041 -0.0318  0.4252 -0.5503
20087SOL    HW161935   1.535   4.612   6.989 -0.9154 -0.4735 -0.3199
20087SOL    HW261936   1.681   4.572   6.992 -0.9227 -0.7674 -2.3549
20088SOL     OW61937   4.167   7.326   2.847 -0.2237 -0.5531  0.0093
20088SOL    HW161938   4.109   7.392   2.884  0.6671  0.4513 -0.3377
20088SOL    HW261939   4.165   7.342   2.753 -0.0925 -1.1093 -0.0944
20089SOL     OW61940   9.565   8.500   0.831 -0.9647 -0.0707 -0.3058
20089SOL    HW161941   9.615   8.541   0.902 -1.1227  1.0300 -0.7948
20089SOL    HW261942   9.618   8.518   0.753 -0.6442 -1.5154 -0.4491
20090SOL     OW61943   3.627   0.854   3.447  0.5458  0.1224  0.1423
20090SOL    HW161944   3.638   0.879   3.355  0.0330 -1.8283 -0.5063
20090SOL    HW261945   3.562   0.915   3.481 -0.7862 -0.3582 -1.4031
20091SOL     OW61946   6.131   2.294   0.775  0.2362 -0.2018  0.1065
20091SOL    HW161947   6.063   2.249   0.724 -0.8317  2.1107 -0.6613
20091SOL    HW261948   6.213   2.269   0.733 -0.5865  1.3691 -2.7278
20092SOL     OW61949   8.057   9.384   8.994 -0.3709  0.1184 -0.4359
20092SOL    HW161950   8.034   9.459   8.940 -1.2890  0.2667  0.1429
20092SOL    HW261951   8.006   9.312   8.958  0.0193 -0.0799 -0.5899
20093SOL     OW61952   0.818   4.216   6.854 -0.0848  0.3193  0.5093
20093SOL    HW161953   0.903   4.258   6.839 -0.2011  0.6730  0.8056
20093SOL    HW261954   0.839   4.127   6.880  0.2358  0.6688  1.4852
20094SOL     OW61955   6.366   6.173   4.029  0.0160  0.1251  0.8265
20094SOL    HW161956   6.365   6.228   3.950  1.2756 -0.0146  0.7020
20094SOL    HW261957   6.286   6.121   4.022 -0.8940  1.4830  0.6292
20095SOL     OW61958   1.098   4.795   1.124 -0.7066  0.2661  0.5312
20095SOL    HW161959   1.096   4.811   1.030  2.5455  0.8196  0.4497
20095SOL    HW261960   1.031   4.728   1.139  0.4647 -1.7660 -2.5665
20096SOL     OW61961   6.633   9.275   8.383  0.2670 -0.0688  0.5354
20096SOL    HW161962   6.662   9.347   8.438 -0.0901  0.6789 -0.2366
20096SOL    HW261963   6.649   9.305   8.293 -0.3073 -0.7676  0.1869
20097SOL     OW61964   0.401   4.434   3.200 -0.0077  0.6064  0.7348
20097SOL    HW161965   0.398   4.397   3.111 -0.8648  3.5182 -0.5584
20097SOL    HW261966   0.377   4.360   3.256 -1.4872 -0.8903 -1.6296
20098SOL     OW61967   0.796   2.383   3.237  0.5432 -0.0647  0.0289
20098SOL    HW161968   0.891   2.377   3.223  0.6158  0.0827  0.4361
20098SOL    HW261969   0.761   2.415   3.154  0.8103 -0.4604 -0.2397
20099SOL     OW61970   4.627   8.914   3.315  0.8318  0.3657 -0.3312
20099SOL    HW161971   4.571   8.917   3.393  1.1511 -0.8293 -0.0294
20099SOL    HW261972   4.648   8.821   3.305  1.7376  0.6488 -1.1714
20100SOL     OW61973   5.092   4.662   4.482 -0.1040  0.2466  0.3104
20100SOL    HW161974   5.053   4.733   4.431 -0.1028  0.4595  0.6037
20100SOL    HW261975   5.137   4.706   4.554 -1.1197 -0.1104  1.1817
20101SOL     OW61976   8.330   2.721   4.348  0.3549 -0.1491  0.0378
20101SOL    HW161977   8.385   2.661   4.399  2.5461  1.3608 -0.4237
20101SOL    HW261978   8.242   2.683   4.354  1.3882 -2.6235  0.9021
20102SOL     OW61979   0.163   7.084   3.706 -0.5481 -0.2186  0.3346
20102SOL    HW161980   0.113   7.165   3.723 -0.2627 -0.0657  0.4449
20102SOL    HW261981   0.137   7.059   3.618  2.0259  1.9530 -1.1687
20103SOL     OW61982   0.136   3.016   6.237  0.0962 -0.2430 -0.0132
20103SOL    HW161983   0.070   3.084   6.248 -0.3194 -0.6399 -0.0442
20103SOL    HW261984   0.125   2.985   6.147  0.2080 -0.4330  0.0371
20104SOL     OW61985   9.443   6.686   8.657  0.3273  0.1424  0.1560
20104SOL    HW161986   9.435   6.626   8.583  1.1631  1.0592 -0.7100
20104SOL    HW261987   9.408   6.638   8.731 -0.6695 -0.7513 -0.8634
20105SOL     OW61988   2.308   2.037   7.008 -0.0157 -0.6463 -0.2337
20105SOL    HW161989   2.333   1.947   6.990 -0.3208 -1.1561  1.6825
20105SOL    HW261990   2.212   2.037   7.003 -0.0386 -0.5303  0.1667
20106SOL     OW61991   0.042   5.602   6.010  0.3455  0.4537  0.2615
20106SOL    HW161992   0.121   5.653   6.029 -0.0675  0.9315  0.7259
20106SOL    HW261993   0.074   5.525   5.963  0.8006  2.0496 -2.2344
20107SOL     OW61994   4.342   3.351   6.115  0.0459 -0.5550 -0.4675
20107SOL    HW161995   4.391   3.423   6.155  1.0828 -1.7946  0.6060
20107SOL    HW261996   4.408   3.288   6.089 -0.8934 -3.0965  2.6183
20108SOL     OW61997   7.353   5.256   8.947 -0.0969  0.2868  0.4485
20108SOL    HW161998   7.381   5.296   8.864 -0.6887  2.0650  1.0574
20108SOL    HW261999   7.425   5.197   8.970 -1.1521 -2.5627 -2.7330
20109SOL     OW62000   2.044   1.282   9.116  0.1815 -0.4968 -0.0586
20109SOL    HW162001   2.088   1.366   9.130  0.8156 -1.0819  1.7340
20109SOL    HW262002   1.985   1.298   9.042  1.1557  1.1755 -0.5297
20110SOL     OW62003   4.650   9.418   8.482 -0.0934  0.0859  0.4548
20110SOL    HW162004   4.721   9.371   8.526 -0.7354 -0.3825  1.0102
20110SOL    HW262005   4.587   9.436   8.551  0.0513  1.6283  0.2227
20111SOL     OW62006   4.559   5.001   3.436  0.2174  0.0939 -0.2296
20111SOL    HW162007   4.524   5.087   3.461 -0.4730 -0.0592 -0.6268
20111SOL    HW262008   4.504   4.938   3.482 -2.1349 -0.2615 -3.1567
20112SOL     OW62009   1.771   2.634   4.010  0.4692  0.0206 -0.2022
20112SOL    HW162010   1.789   2.691   4.085 -1.6585  0.0783  0.3495
20112SOL    HW262011   1.854   2.628   3.963  1.4254  1.3743  1.2158
20113SOL     OW62012   2.085   6.796   1.580  0.3939 -0.2031 -0.6304
20113SOL    HW162013   2.125   6.758   1.501 -0.0094 -2.0344 -0.0084
20113SOL    HW262014   2.015   6.735   1.603 -0.9935  1.4919 -0.1082
20114SOL     OW62015   8.618   8.209   6.855  0.3949  0.0107 -0.5877
20114SOL    HW162016   8.583   8.292   6.886 -0.5026 -0.1414 -1.1538
20114SOL    HW262017   8.620   8.217   6.760  0.6206 -0.4818 -0.6268
20115SOL     OW62018   1.643   5.316   5.599 -0.1004 -0.8579  0.5564
20115SOL    HW162019   1.581   5.280   5.535 -0.2072  1.2027 -0.5783
20115SOL    HW262020   1.600   5.305   5.683 -2.8283  1.8741 -0.3126
20116SOL     OW62021   6.707   3.542   8.810  0.0950  0.5179  0.5729
20116SOL    HW162022   6.612   3.553   8.803 -0.4313  0.8968  5.1885
20116SOL    HW262023   6.717   3.462   8.861  2.2948  0.5877  0.3173
20117SOL     OW62024   7.672   1.465   1.194 -0.0011 -0.0560  0.2370
20117SOL    HW162025   7.673   1.441   1.286  1.7724  0.5496  0.4151
20117SOL    HW262026   7.752   1.515   1.181 -0.3163  0.0603 -1.5960
20118SOL     OW62027   1.630   3.188   1.116  0.4209  0.2631  0.0377
20118SOL    HW162028   1.594   3.107   1.081 -0.0605  0.3574  0.2950
20118SOL    HW262029   1.712   3.163   1.158 -0.1115 -0.2314  0.8134
20119SOL     OW62030   6.707   9.208   4.920  0.8525  0.2800  0.1702
20119SOL    HW162031   6.749   9.128   4.950  0.8112  0.4133  0.5895
20119SOL    HW262032   6.635   9.222   4.983 -0.7310 -0.7286 -1.3272
20120SOL     OW62033   6.790   2.365   8.636  0.5678 -0.2020 -0.2343
20120SOL    HW162034   6.700   2.339   8.618  0.2471 -0.4522  1.5193
20120SOL    HW262035   6.839   2.283   8.634  0.3295 -0.4046  0.9741
20121SOL     OW62036   4.037   6.554   8.260  0.2419  0.2393  0.2418
20121SOL    HW162037   4.124   6.592   8.273  0.7588 -1.0019  0.5569
20121SOL    HW262038   3.982   6.596   8.326  0.6748  0.8252  0.2292
20122SOL     OW62039   9.225   7.299   5.915  0.0237  0.5287  0.1178
20122SOL    HW162040   9.318   7.318   5.899  0.0949  0.7426  0.7732
20122SOL    HW262041   9.216   7.205   5.897  0.6875  0.1823  1.4937
20123SOL     OW62042   9.387   9.223   7.200  0.3079 -0.8072  0.0583
20123SOL    HW162043   9.443   9.286   7.156  0.7370 -0.3446  1.2228
20123SOL    HW262044   9.319   9.201   7.136 -1.0453  2.3256  0.2204
20124SOL     OW62045   6.781   7.631   3.678 -0.1786  0.4256 -0.1023
20124SOL    HW162046   6.811   7.720   3.664  0.7296  0.4641  1.8337
20124SOL    HW262047   6.859   7.577   3.666 -0.9793 -0.3232 -2.6276
20125SOL     OW62048   0.744   3.790   5.372 -0.3769 -0.0189  0.1523
20125SOL    HW162049   0.672   3.728   5.373 -0.5912  0.2276  1.1826
20125SOL    HW262050   0.778   3.786   5.283 -1.0126 -0.8823 -0.0629
20126SOL     OW62051   1.762   7.947   5.859  0.1458  0.4813  0.2317
20126SOL    HW162052   1.842   7.895   5.852 -0.6423 -0.8541  0.9242
20126SOL    HW262053   1.771   7.993   5.943  0.4685  0.8407  0.0040
20127SOL     OW62054   9.312   8.140   4.660  0.2122  0.3556  0.2026
20127SOL    HW162055   9.324   8.053   4.697 -1.6455  0.1632  0.4284
20127SOL    HW262056   9.223   8.139   4.625 -0.2660  2.4998  1.1898
20128SOL     OW62057   4.675   1.745   0.818  0.1066  0.1236 -0.1126
20128SOL    HW162058   4.744   1.689   0.854  0.3980  0.9465  0.6532
20128SOL    HW262059   4.599   1.727   0.873 -0.3895 -0.9942 -1.1364
20129SOL     OW62060   8.545   1.770   3.273 -0.0859  0.2206  0.2864
20129SOL    HW162061   8.635   1.798   3.252 -0.2194 -0.2449 -0.9812
20129SOL    HW262062   8.501   1.850   3.302  0.4138  0.6917 -0.2339
20130SOL     OW62063   8.154   0.197   6.996 -0.4844 -0.0352  0.3159
20130SOL    HW162064   8.105   0.222   6.918  0.1796  1.1309  0.2452
20130SOL    HW262065   8.230   0.149   6.962  0.5560  1.6661  0.0811
20131SOL     OW62066   3.350   8.986   4.341 -0.1169  0.4443  0.2686
20131SOL    HW162067   3.395   8.938   4.272 -0.8133  1.3623 -0.8565
20131SOL    HW262068   3.320   9.066   4.299 -1.4735  0.5492  1.3668
20132SOL     OW62069   0.688   1.523   6.827 -0.6286  0.1385 -0.4834
20132SOL    HW162070   0.625   1.456   6.853  0.9715 -0.5017  2.1487
20132SOL    HW262071   0.641   1.605   6.839 -1.6485 -0.3898 -0.7021
20133SOL     OW62072   9.422   4.709   4.874  0.0955  0.2736 -0.0348
20133SOL    HW162073   9.402   4.716   4.967  0.5694 -0.2866  0.1153
20133SOL    HW262074   9.489   4.775   4.859  1.0610 -0.5990  0.3375
20134SOL     OW62075   9.174   9.053   3.687  0.0833  0.8589 -0.3708
20134SOL    HW162076   9.265   9.057   3.657 -0.1434  2.3242 -0.9465
20134SOL    HW262077   9.179   9.070   3.781  0.4737  0.0940 -0.2493
20135SOL     OW62078   3.233   1.186   6.160 -0.0734 -0.8025  0.3496
20135SOL    HW162079   3.324   1.205   6.133 -1.1152  2.2321 -1.5578
20135SOL    HW262080   3.182   1.197   6.079 -2.2420 -1.6848  1.5294
20136SOL     OW62081   3.735   2.771   9.540  0.2494 -0.3686 -0.3834
20136SOL    HW162082   3.800   2.774   9.610  0.7856 -1.8307 -0.7865
20136SOL    HW262083   3.674   2.702   9.566 -0.6475  0.3796 -0.4426
20137SOL     OW62084   1.484   6.035   8.694 -0.3664  0.7651 -0.2076
20137SOL    HW162085   1.475   6.108   8.755  1.8882  1.1349 -0.2479
20137SOL    HW262086   1.569   6.048   8.653 -0.8219 -0.7598 -1.7590
20138SOL     OW62087   1.776   1.690   2.649 -0.2336 -0.4302 -0.0297
20138SOL    HW162088   1.686   1.656   2.655  0.1930 -1.4480  0.8131
20138SOL    HW262089   1.797   1.718   2.738 -0.3564  1.5622 -0.5909
20139SOL     OW62090   4.982   6.054   8.724 -0.4466 -0.3103 -0.6648
20139SOL    HW162091   5.043   6.127   8.716  0.7698 -1.1836  0.3085
20139SOL    HW262092   4.897   6.091   8.696 -0.2168  1.9292  1.2516
20140SOL     OW62093   2.541   5.354   8.661 -0.3683 -0.7426 -0.1000
20140SOL    HW162094   2.462   5.342   8.608 -0.4181  2.1790 -0.8935
20140SOL    HW262095   2.612   5.364   8.596  0.2292 -0.8147  0.5295
20141SOL     OW62096   1.691   1.337   0.568  0.1577  0.3438  0.8653
20141SOL    HW162097   1.690   1.298   0.481  1.5433  1.4012  0.3301
20141SOL    HW262098   1.628   1.286   0.619 -0.0646 -0.8134 -0.5267
20142SOL     OW62099   2.338   9.002   1.876  0.6059 -0.0290  0.0225
20142SOL    HW162100   2.350   9.048   1.959  1.5775  0.5877 -0.4371
20142SOL    HW262101   2.257   9.037   1.840 -0.3877 -1.0457  1.1587
20143SOL     OW62102   3.412   7.919   3.193 -0.3847 -0.6636  0.4073
20143SOL    HW162103   3.490   7.958   3.152 -1.5589  0.3875 -0.9098
20143SOL    HW262104   3.411   7.829   3.163 -0.8064 -0.1108 -1.3437
20144SOL     OW62105   7.922   9.005   2.011 -0.1931 -0.2678 -0.3346
20144SOL    HW162106   7.921   9.002   2.107 -1.0825  0.3347 -0.3131
20144SOL    HW262107   7.837   8.970   1.985 -0.6423  1.1191 -0.8344
20145SOL     OW62108   9.475   6.890   1.385  0.5632 -0.0803 -0.1206
20145SOL    HW162109   9.509   6.938   1.309 -1.1341 -0.7642 -1.3830
20145SOL    HW262110   9.380   6.896   1.376  0.3234 -0.9974  1.4428
20146SOL     OW62111   2.495   2.976   6.091  0.0779 -0.2007 -0.2565
20146SOL    HW162112   2.518   3.052   6.038  1.1242 -1.2676 -1.4025
20146SOL    HW262113   2.578   2.931   6.107 -0.5407 -1.2493  0.1574
20147SOL     OW62114   4.736   3.555   3.558 -0.4989 -0.5613  0.2259
20147SOL    HW162115   4.778   3.492   3.618 -0.6659 -0.3964  0.5171
20147SOL    HW262116   4.686   3.501   3.497 -0.6367 -0.7100  0.4721
20148SOL     OW62117   5.227   6.423   3.969 -0.2448 -0.0065  0.3043
20148SOL    HW162118   5.247   6.501   4.020  0.6282 -0.5988  0.8904
20148SOL    HW262119   5.260   6.350   4.021  2.5056 -0.5309 -1.9169
20149SOL     OW62120   2.881   2.807   4.237  0.1910 -0.0835  0.4209
20149SOL    HW162121   2.837   2.785   4.319  0.4262  0.1102  0.6016
20149SOL    HW262122   2.974   2.808   4.259  0.1965  0.9772  0.4031
20150SOL     OW62123   9.375   1.010   0.782  0.2641 -0.1974  0.1200
20150SOL    HW162124   9.327   0.988   0.862  0.3674 -0.4761  0.1060
20150SOL    HW262125   9.329   0.963   0.712 -0.1654  0.4913 -0.0678
20151SOL     OW62126   8.632   5.903   5.408  0.1902 -0.3267 -0.1976
20151SOL    HW162127   8.700   5.897   5.341  0.2345  1.6913 -0.4008
20151SOL    HW262128   8.550   5.882   5.362  0.3288  0.1781 -0.6869
20152SOL     OW62129   2.011   3.301   0.711 -0.3425  0.3034 -0.1460
20152SOL    HW162130   2.069   3.289   0.636 -0.7239  0.3066 -0.4500
20152SOL    HW262131   1.972   3.215   0.725  1.5975 -0.3563  1.6607
20153SOL     OW62132   2.907   4.173   9.028 -0.0777 -0.1728 -0.0827
20153SOL    HW162133   2.860   4.257   9.031 -1.5284 -0.9732  0.6679
20153SOL    HW262134   2.988   4.193   8.982 -0.7054  1.4924 -0.5474
20154SOL     OW62135   3.166   8.415   3.077  0.2858 -0.0777 -0.6041
20154SOL    HW162136   3.182   8.322   3.060 -0.2828  0.0372 -1.8042
20154SOL    HW262137   3.254   8.452   3.090  0.4657 -0.9459  0.9127
20155SOL     OW62138   8.664   8.813   7.927 -0.5679  0.1052 -0.5758
20155SOL    HW162139   8.723   8.831   8.000 -0.2607 -0.7996 -0.5898
20155SOL    HW262140   8.604   8.747   7.960 -0.1558 -0.6382 -1.2695
20156SOL     OW62141   6.618   3.628   3.472  0.2115  0.4289  0.5241
20156SOL    HW162142   6.665   3.580   3.405  1.3969 -1.2472  2.4476
20156SOL    HW262143   6.622   3.720   3.443  1.5665 -0.1029 -1.1438
20157SOL     OW62144   2.173   7.016   3.628 -0.4891  0.0188 -0.2818
20157SOL    HW162145   2.217   7.092   3.589 -1.2000  1.8901  2.3281
20157SOL    HW262146   2.094   7.005   3.575 -1.1859  2.1613  0.2038
20158SOL     OW62147   5.842   8.234   5.077  0.2001 -0.1173 -0.1128
20158SOL    HW162148   5.902   8.295   5.034  1.5155  0.0713  1.8735
20158SOL    HW262149   5.847   8.154   5.025  1.6801  0.1219 -0.3883
20159SOL     OW62150   9.359   7.518   8.816 -0.1452 -0.0806 -0.4922
20159SOL    HW162151   9.402   7.493   8.897 -1.8532  1.1387  0.8555
20159SOL    HW262152   9.361   7.614   8.816 -0.9929 -0.0424 -1.4259
20160SOL     OW62153   7.910   4.857   4.484 -0.4543  0.3309 -0.0553
20160SOL    HW162154   7.915   4.810   4.401  1.7647 -0.9264  0.7189
20160SOL    HW262155   7.846   4.808   4.535 -1.7328  1.0356 -0.9162
20161SOL     OW62156   7.028   2.996   4.736 -0.4246 -0.1072 -0.7291
20161SOL    HW162157   7.098   2.932   4.734 -0.3920 -0.2019  1.2313
20161SOL    HW262158   7.014   3.020   4.645  0.0204 -2.3786 -1.4512
20162SOL     OW62159   6.599   4.591   6.271  0.3135  0.5850 -0.1435
20162SOL    HW162160   6.537   4.626   6.206 -0.4225  0.6717  0.5797
20162SOL    HW262161   6.608   4.499   6.248 -0.0374  0.5857 -0.3008
20163SOL     OW62162   5.646   3.122   8.202 -0.0757  0.0756 -0.3060
20163SOL    HW162163   5.698   3.190   8.244 -0.2413 -0.2799  0.4863
20163SOL    HW262164   5.580   3.170   8.152  0.2725  0.5035 -0.3650
20164SOL     OW62165   2.032   6.996   5.821  0.3295  0.2357 -0.4538
20164SOL    HW162166   1.952   6.989   5.769 -0.9089  0.6677  1.2802
20164SOL    HW262167   2.007   7.052   5.895  1.3150 -2.0108  1.7282
20165SOL     OW62168   3.930   6.561   3.154 -0.1441  0.2607 -0.7129
20165SOL    HW162169   3.898   6.505   3.224 -0.3588  0.3515 -0.7379
20165SOL    HW262170   3.992   6.620   3.198  0.6575 -0.4850 -0.8245
20166SOL     OW62171   1.952   0.123   7.318 -0.0610  0.1354 -0.3489
20166SOL    HW162172   1.971   0.135   7.225  2.0373  0.7244  0.1047
20166SOL    HW262173   1.971   0.208   7.357  0.1282 -0.4000  0.7608
20167SOL     OW62174   3.277   9.635   2.447  0.4674 -0.5888 -0.3356
20167SOL    HW162175   3.229   9.716   2.462 -0.3232 -0.9403 -0.8689
20167SOL    HW262176   3.317   9.646   2.360  3.6881  0.7982  1.1629
20168SOL     OW62177   9.469   1.877   2.759  0.2822  0.2858 -0.4239
20168SOL    HW162178   9.503   1.820   2.828  0.6788 -0.0959 -0.9318
20168SOL    HW262179   9.545   1.924   2.727 -0.1028  1.4032  0.2566
20169SOL     OW62180   0.388   1.672   1.678  0.0531  0.0495 -0.3157
20169SOL    HW162181   0.413   1.627   1.758  2.1898  0.2190 -0.8318
20169SOL    HW262182   0.358   1.759   1.707  0.3637 -0.0572  0.3253
20170SOL     OW62183   0.763   4.058   9.351  0.4405 -0.0985 -0.0069
20170SOL    HW162184   0.805   3.972   9.350  0.0226 -0.3261  0.8133
20170SOL    HW262185   0.832   4.119   9.326  0.7635 -0.6626 -0.5058
20171SOL     OW62186   3.656   7.463   1.936 -0.6597 -0.0400  0.7543
20171SOL    HW162187   3.694   7.534   1.988  0.4315 -1.2724  1.7115
20171SOL    HW262188   3.730   7.422   1.893 -1.1722 -1.0862  0.8312
20172SOL     OW62189   5.470   2.166   0.835  0.9952  0.2046 -0.5611
20172SOL    HW162190   5.538   2.183   0.900 -0.0063  0.8758  0.3471
20172SOL    HW262191   5.499   2.087   0.790  2.4158  0.5300 -0.2672
20173SOL     OW62192   0.050   3.347   1.147 -0.2268 -0.1549  0.4784
20173SOL    HW162193   0.023   3.429   1.105 -0.5270 -0.1033  0.7664
20173SOL    HW262194   0.145   3.353   1.152 -0.1583 -0.2971 -0.4752
20174SOL     OW62195   4.751   4.949   5.921 -0.2545  0.4700 -0.4156
20174SOL    HW162196   4.824   4.987   5.969 -1.2652 -1.1367  2.6486
20174SOL    HW262197   4.677   5.005   5.941 -0.9003 -0.7742  0.8363
20175SOL     OW62198   6.230   4.172   2.662 -0.2095  0.4833  0.3972
20175SOL    HW162199   6.146   4.129   2.680 -0.0302 -1.0121 -1.8652
20175SOL    HW262200   6.274   4.175   2.746 -1.6330 -0.7469  1.2417
20176SOL     OW62201   6.931   1.055   0.450 -0.5977 -0.4807 -0.1190
20176SOL    HW162202   6.923   0.979   0.507 -0.1731 -0.8679 -0.5727
20176SOL    HW262203   7.017   1.091   0.470  0.3913 -1.7400 -1.8648
20177SOL     OW62204   8.323   4.266   0.494 -0.5035 -0.2066  0.9383
20177SOL    HW162205   8.413   4.233   0.484 -1.5382 -2.9139 -0.4785
20177SOL    HW262206   8.302   4.304   0.408 -0.3636  1.5132  1.6330
20178SOL     OW62207   4.330   4.041   7.965 -0.2971  0.2950 -0.0600
20178SOL    HW162208   4.379   3.999   8.036 -0.0758  0.6263 -0.0143
20178SOL    HW262209   4.398   4.079   7.909 -0.4806  0.2260 -0.3281
20179SOL     OW62210   0.840   4.524   3.015  0.0280 -0.2854  0.8981
20179SOL    HW162211   0.894   4.484   2.947 -0.3591  1.9904 -0.8846
20179SOL    HW262212   0.760   4.550   2.969 -0.5716  0.6673  2.4149
20180SOL     OW62213   2.252   8.547   5.690  0.0786 -0.3962 -0.2493
20180SOL    HW162214   2.336   8.557   5.733 -0.0287 -1.4041  0.2341
20180SOL    HW262215   2.273   8.510   5.604  0.2709  1.3431 -0.9784
20181SOL     OW62216   0.688   1.439   2.789 -0.2863  0.0821 -0.0819
20181SOL    HW162217   0.663   1.504   2.724  1.2467 -0.9593 -1.8173
20181SOL    HW262218   0.741   1.375   2.741 -1.2394 -2.1597  1.6401
20182SOL     OW62219   8.485   6.465   8.513 -0.9305  0.4179  0.1850
20182SOL    HW162220   8.540   6.540   8.534 -1.2705  0.2537  1.8210
20182SOL    HW262221   8.479   6.465   8.418  1.7065  0.5525 -0.0412
20183SOL     OW62222   6.550   1.289   2.684 -0.8064 -0.3594  0.7316
20183SOL    HW162223   6.464   1.273   2.645 -0.4440 -2.7006  0.7050
20183SOL    HW262224   6.538   1.367   2.738 -3.1130 -0.9273  1.1553
20184SOL     OW62225   0.497   8.527   0.607  0.3489  0.0295  0.2373
20184SOL    HW162226   0.493   8.454   0.546  0.8837 -0.3973  0.6976
20184SOL    HW262227   0.429   8.587   0.578  1.0341  0.1436 -1.1758
20185SOL     OW62228   1.475   4.720   1.987 -0.6337 -0.3700 -0.3979
20185SOL    HW162229   1.395   4.721   1.934 -0.1280 -0.4038 -1.1709
20185SOL    HW262230   1.541   4.761   1.931  0.1348 -1.2483 -0.1440
20186SOL     OW62231   2.459   7.081   0.421 -0.4248 -0.4795  0.0411
20186SOL    HW162232   2.493   7.009   0.368  0.2826 -0.9061  1.0508
20186SOL    HW262233   2.501   7.070   0.506 -0.5521  0.9478  0.3044
20187SOL     OW62234   7.330   8.652   9.103 -0.1465  0.2194 -0.2755
20187SOL    HW162235   7.321   8.679   9.012  1.3504  0.6739 -0.3171
20187SOL    HW262236   7.304   8.560   9.104 -1.5819  0.5829 -0.8615
20188SOL     OW62237   9.384   6.912   0.902  0.1749  0.4008  0.5703
20188SOL    HW162238   9.473   6.895   0.934 -0.4212 -1.3314  1.3920
20188SOL    HW262239   9.387   6.888   0.809  1.0444  2.3036  0.0373
20189SOL     OW62240   4.376   9.035   3.190 -0.0998  0.0896  0.5504
20189SOL    HW162241   4.306   9.086   3.231  0.1803 -0.3092  1.5607
20189SOL    HW262242   4.335   8.952   3.168 -0.0993  0.0831  0.5724
20190SOL     OW62243   2.728   2.289   4.412  0.2960 -0.3385  0.3335
20190SOL    HW162244   2.686   2.362   4.458 -0.5242 -0.7067  0.1888
20190SOL    HW262245   2.757   2.230   4.482  1.1020  0.1931  0.4572
20191SOL     OW62246   5.574   7.508   8.900  0.1512  0.3943 -0.1766
20191SOL    HW162247   5.626   7.484   8.823 -0.1167  2.7549 -1.1532
20191SOL    HW262248   5.594   7.600   8.916 -0.6978  0.2847  1.9025
20192SOL     OW62249   2.815   5.364   9.518 -0.0979 -0.1725  0.6833
20192SOL    HW162250   2.732   5.363   9.565 -0.1414 -2.5102  0.6734
20192SOL    HW262251   2.832   5.457   9.501 -2.4051  0.4018  1.1838
20193SOL     OW62252   0.176   0.062   8.192 -0.4237  0.1845  0.1838
20193SOL    HW162253   0.157   0.152   8.164 -1.8131  0.7251  2.5854
20193SOL    HW262254   0.181   0.067   8.288 -2.5121 -2.5949  0.5580
20194SOL     OW62255   6.911   7.877   7.886 -0.0293 -0.3762 -0.7631
20194SOL    HW162256   6.879   7.953   7.838  0.8782 -0.2255 -1.1462
20194SOL    HW262257   6.866   7.803   7.846 -0.7602 -0.0719 -0.5236
20195SOL     OW62258   6.611   3.760   0.783 -0.3757  0.5022  0.6996
20195SOL    HW162259   6.609   3.758   0.879  0.1168  0.3247  0.7070
20195SOL    HW262260   6.704   3.754   0.761 -0.6181 -2.4626  0.1574
20196SOL     OW62261   0.449   6.474   0.315 -0.7320  0.0842  0.3283
20196SOL    HW162262   0.478   6.526   0.240  0.7532  1.2263  1.6374
20196SOL    HW262263   0.363   6.440   0.289 -0.3828  0.6816 -1.7573
20197SOL     OW62264   3.496   3.838   9.276  0.2020 -0.7949 -0.4819
20197SOL    HW162265   3.482   3.914   9.221  1.4844 -0.7042 -0.7256
20197SOL    HW262266   3.485   3.763   9.218 -1.6987 -0.8489 -0.0986
20198SOL     OW62267   2.218   2.607   0.976 -0.1149 -0.0117 -0.2824
20198SOL    HW162268   2.173   2.573   0.899 -1.8897  1.0163  0.2582
20198SOL    HW262269   2.226   2.701   0.961 -0.5630  0.2199  0.8215
20199SOL     OW62270   6.290   4.010   7.515 -0.1444  0.2733  0.8066
20199SOL    HW162271   6.215   4.066   7.493  0.6927  0.8435 -0.6770
20199SOL    HW262272   6.358   4.070   7.543 -0.3236 -0.2719  2.5282
20200SOL     OW62273   0.252   6.715   1.582 -0.2454  0.0064 -0.3971
20200SOL    HW162274   0.159   6.726   1.604  0.1969 -0.6459  2.1379
20200SOL    HW262275   0.290   6.802   1.592 -0.1712 -0.1673  1.0052
20201SOL     OW62276   8.270   5.403   4.438 -0.8764 -0.3278  0.5156
20201SOL    HW162277   8.184   5.433   4.468 -1.3705 -0.4444 -0.7274
20201SOL    HW262278   8.288   5.326   4.491 -1.0183  0.3339  1.5605
20202SOL     OW62279   0.346   7.980   2.678  0.7840 -0.2640 -0.4055
20202SOL    HW162280   0.335   8.072   2.699  1.1223 -0.0343 -1.1806
20202SOL    HW262281   0.285   7.964   2.606  1.9188 -0.2103 -1.4017
20203SOL     OW62282   6.254   3.474   3.959 -0.5278  0.1049  0.6135
20203SOL    HW162283   6.258   3.560   3.917 -2.8629 -0.4238 -0.8477
20203SOL    HW262284   6.275   3.412   3.889 -1.6500 -0.6507  0.9170
20204SOL     OW62285   5.006   4.533   3.620 -0.0736  0.1494 -0.2504
20204SOL    HW162286   4.991   4.621   3.654 -2.0687 -0.2735  0.0596
20204SOL    HW262287   4.955   4.529   3.539 -0.2113 -0.7996 -0.1282
20205SOL     OW62288   9.316   3.542   2.693 -0.5448 -0.6751 -0.0375
20205SOL    HW162289   9.314   3.628   2.736  0.8496 -0.6152 -0.0543
20205SOL    HW262290   9.389   3.496   2.735  1.2796 -0.3987 -2.6987
20206SOL     OW62291   8.242   2.578   5.660  0.3833  0.0470 -0.1910
20206SOL    HW162292   8.227   2.625   5.742  2.2305  0.4928 -0.0659
20206SOL    HW262293   8.203   2.492   5.674  1.7047 -0.2986  1.6121
20207SOL     OW62294   7.920   1.736   5.362 -0.1809  0.2984 -0.1902
20207SOL    HW162295   7.829   1.763   5.350 -0.4819  0.1587  1.5521
20207SOL    HW262296   7.917   1.640   5.359 -0.2747  0.2563  0.9100
20208SOL     OW62297   6.905   6.647   5.823 -0.1849  0.1008 -0.1539
20208SOL    HW162298   6.971   6.621   5.887  0.0154  0.3334 -0.2645
20208SOL    HW262299   6.929   6.599   5.744  0.2317  0.6662 -0.3818
20209SOL     OW62300   4.147   9.626   8.622  0.6346 -1.1163 -0.1857
20209SOL    HW162301   4.229   9.665   8.589 -0.0859 -0.3632 -1.1790
20209SOL    HW262302   4.175   9.548   8.670  2.0899  0.1695  1.1850
20210SOL     OW62303   9.136   3.815   2.096  0.2031 -0.2701  0.0546
20210SOL    HW162304   9.219   3.770   2.080  1.6033  2.2738 -0.3718
20210SOL    HW262305   9.093   3.816   2.011 -0.4894 -1.9040  0.3497
20211SOL     OW62306   1.829   9.572   7.114  0.1067 -0.1878 -0.1909
20211SOL    HW162307   1.825   9.643   7.050  0.2565  1.5973  1.6750
20211SOL    HW262308   1.742   9.533   7.112  0.8496 -1.9803 -3.3130
20212SOL     OW62309   1.602   6.773   9.046 -0.4840  0.1108 -0.1585
20212SOL    HW162310   1.666   6.795   8.977 -0.9149 -1.8146 -1.2530
20212SOL    HW262311   1.598   6.851   9.100  0.8528  1.2441 -1.5796
20213SOL     OW62312   3.147   8.199   0.240  0.0255 -0.2005  0.1085
20213SOL    HW162313   3.096   8.181   0.161  0.1995  1.7965 -0.5058
20213SOL    HW262314   3.106   8.277   0.278  0.1857 -0.8917  1.8037
20214SOL     OW62315   2.162   3.988   7.504  0.4773  0.5620  0.1222
20214SOL    HW162316   2.139   4.041   7.580 -2.4180  2.0744 -1.6035
20214SOL    HW262317   2.117   3.905   7.517  0.6579  0.5172  0.4455
20215SOL     OW62318   7.836   6.571   9.630  0.4114  0.5423  0.1549
20215SOL    HW162319   7.892   6.579   9.707 -0.0367 -1.2807  0.7286
20215SOL    HW262320   7.879   6.505   9.576 -0.0099  0.7874 -0.4891
20216SOL     OW62321   2.027   7.322   8.605 -0.2331  0.0749  0.1797
20216SOL    HW162322   1.934   7.335   8.622 -0.3827 -0.0008 -0.5604
20216SOL    HW262323   2.039   7.227   8.613 -0.3228  0.0286 -0.2187
20217SOL     OW62324   8.269   2.989   6.442  0.1837  0.2330  0.6176
20217SOL    HW162325   8.214   3.066   6.426 -0.2185  0.3215  2.2224
20217SOL    HW262326   8.339   2.995   6.377 -2.1637 -0.4030 -2.1839
20218SOL     OW62327   8.141   7.542   6.373  0.4824  0.7768  0.4489
20218SOL    HW162328   8.170   7.455   6.402  1.1494  1.0499  0.6276
20218SOL    HW262329   8.055   7.553   6.412  0.2424  0.0499  0.1392
20219SOL     OW62330   9.223   5.099   1.212 -0.0884  0.6629  0.0964
20219SOL    HW162331   9.180   5.043   1.148  0.0867  1.4107 -0.6998
20219SOL    HW262332   9.279   5.157   1.160  0.0219  1.3206  0.9180
20220SOL     OW62333   7.532   7.634   8.583 -0.0387 -0.2190  0.2369
20220SOL    HW162334   7.541   7.661   8.674 -0.7723 -0.3788  0.3638
20220SOL    HW262335   7.552   7.540   8.584  0.2409 -0.1597  0.1846
20221SOL     OW62336   1.459   0.683   7.647 -0.1733 -0.0701 -0.0453
20221SOL    HW162337   1.460   0.731   7.730 -3.2424 -0.3251  0.2240
20221SOL    HW262338   1.490   0.596   7.670 -1.2358 -0.2219  0.9367
20222SOL     OW62339   1.162   1.766   9.503  0.1951 -0.4023 -0.1428
20222SOL    HW162340   1.151   1.744   9.411 -0.1980  1.2125 -0.5141
20222SOL    HW262341   1.074   1.764   9.540 -0.0672  1.7603 -0.5193
20223SOL     OW62342   8.842   7.691   7.213  0.0429  0.0580 -0.1570
20223SOL    HW162343   8.763   7.643   7.187  0.7117 -1.4720  0.5601
20223SOL    HW262344   8.855   7.669   7.305  0.5006  1.4700  0.1448
20224SOL     OW62345   1.675   0.423   3.792 -0.2377  0.6541 -0.0839
20224SOL    HW162346   1.700   0.331   3.792  0.5497  0.8352  1.2263
20224SOL    HW262347   1.720   0.460   3.716 -1.3184 -0.2112 -1.1744
20225SOL     OW62348   2.988   9.264   6.659 -0.4320  0.0193 -0.0643
20225SOL    HW162349   2.909   9.318   6.663  0.3167  1.0705  2.8972
20225SOL    HW262350   3.060   9.327   6.657  0.4034 -0.9010  0.1172
20226SOL     OW62351   6.032   6.589   6.007  0.1209 -0.5839 -0.0832
20226SOL    HW162352   5.963   6.615   5.946  2.0110  1.2626 -1.5694
20226SOL    HW262353   6.036   6.661   6.070  1.7735  0.2239 -1.0388
20227SOL     OW62354   4.162   4.501   5.237  0.4727 -0.4304 -0.3009
20227SOL    HW162355   4.204   4.564   5.295 -1.0539 -1.1308  1.6916
20227SOL    HW262356   4.115   4.555   5.174  0.4781  0.4199  0.3950
20228SOL     OW62357   2.902   8.454   2.716  0.6103  0.1218  0.1741
20228SOL    HW162358   2.966   8.517   2.683  1.0666 -1.1716 -1.5425
20228SOL    HW262359   2.819   8.479   2.675 -0.4165  2.4644  3.2183
20229SOL     OW62360   5.764   9.514   5.246 -0.2068  0.2094 -0.1564
20229SOL    HW162361   5.839   9.479   5.294 -0.5770 -0.3001  0.0712
20229SOL    HW262362   5.701   9.442   5.246 -1.5218  1.2659  1.4681
20230SOL     OW62363   7.248   0.078   8.757 -0.6585 -0.4729 -0.1018
20230SOL    HW162364   7.308   0.152   8.769 -1.6037  0.4958 -1.1513
20230SOL    HW262365   7.257   0.054   8.665 -1.9795 -0.2032 -0.3195
20231SOL     OW62366   3.316   6.781   3.538 -0.2667  0.3658  1.1819
20231SOL    HW162367   3.255   6.805   3.608 -0.3954  2.1185  0.5187
20231SOL    HW262368   3.261   6.774   3.460  0.4045  2.4691  0.4751
20232SOL     OW62369   0.108   6.343   8.971 -0.8561  0.1292  0.0242
20232SOL    HW162370   0.154   6.358   9.054 -1.8551  1.1825  0.4211
20232SOL    HW262371   0.156   6.397   8.907 -2.1543  2.1664  0.6731
20233SOL     OW62372   5.992   9.372   1.478 -0.0692 -0.3787  0.4431
20233SOL    HW162373   5.943   9.375   1.559  1.3084  2.4164  1.2969
20233SOL    HW262374   6.041   9.290   1.482 -1.6948 -1.3533  1.3242
20234SOL     OW62375   6.480   6.725   5.701 -0.1578 -0.5089 -0.5712
20234SOL    HW162376   6.512   6.790   5.638  0.9644  0.7473  1.1925
20234SOL    HW262377   6.460   6.776   5.780  2.6602 -2.4229  1.6039
20235SOL     OW62378   5.941   6.800   0.799 -0.1908  0.1621 -0.0495
20235SOL    HW162379   5.969   6.891   0.805 -2.1570  0.9194 -1.4020
20235SOL    HW262380   5.854   6.798   0.841  0.2323 -1.3193  0.8603
20236SOL     OW62381   0.538   1.585   6.221  0.0090  0.3841  0.1716
20236SOL    HW162382   0.473   1.534   6.174 -0.3066 -0.4968  1.4942
20236SOL    HW262383   0.525   1.561   6.313 -0.8670  3.6507  1.0171
20237SOL     OW62384   5.062   0.082   4.527  0.4227 -0.0276  0.2747
20237SOL    HW162385   5.062   0.177   4.534 -0.2005  0.3485 -3.0891
20237SOL    HW262386   4.972   0.055   4.545 -0.5337  0.6112 -2.8828
20238SOL     OW62387   0.111   6.181   7.432 -0.2107  0.5853 -0.1560
20238SOL    HW162388   0.127   6.102   7.483 -1.1940  0.1752 -0.4508
20238SOL    HW262389   0.071   6.243   7.493 -0.8759  0.2923 -0.2887
20239SOL     OW62390   3.746   3.676   2.575 -0.5619  0.4526 -0.4101
20239SOL    HW162391   3.689   3.615   2.622 -0.8553  0.4171 -0.8139
20239SOL    HW262392   3.700   3.695   2.494 -0.5970  1.4173 -0.1811
20240SOL     OW62393   1.047   6.308   6.746  0.3864 -0.0749 -0.1940
20240SOL    HW162394   1.013   6.306   6.657  1.3603  2.0320 -0.6739
20240SOL    HW262395   1.142   6.309   6.736  0.5099  1.2322  0.7757
20241SOL     OW62396   6.691   0.105   8.646  0.3106  0.2502 -0.1970
20241SOL    HW162397   6.750   0.116   8.721  1.6201 -1.4418 -0.9348
20241SOL    HW262398   6.684   0.193   8.609 -1.2791  1.4023  2.4901
20242SOL     OW62399   0.173   2.909   4.790 -0.2991  0.1530  0.2587
20242SOL    HW162400   0.167   2.863   4.873  1.0494  0.4265  0.5391
20242SOL    HW262401   0.153   2.843   4.724  1.0990 -0.7360  0.6791
20243SOL     OW62402   3.391   5.495   2.572  0.3573 -0.8458 -0.0689
20243SOL    HW162403   3.463   5.451   2.616 -0.2754 -0.7629  1.1005
20243SOL    HW262404   3.314   5.473   2.624 -0.7234 -2.0411 -2.0448
20244SOL     OW62405   5.014   7.544   2.468 -0.4947 -0.5842 -0.2632
20244SOL    HW162406   4.922   7.569   2.465 -0.3358  0.5149  2.0958
20244SOL    HW262407   5.062   7.627   2.462  0.3590 -1.1064 -0.9945
20245SOL     OW62408   5.790   8.470   2.374  0.2137 -0.2986 -1.0719
20245SOL    HW162409   5.810   8.394   2.429  0.3740  0.0461 -0.6518
20245SOL    HW262410   5.694   8.472   2.371  0.2056 -1.1705 -2.0072
20246SOL     OW62411   1.288   0.128   7.659  0.2969  0.3598  0.2205
20246SOL    HW162412   1.337   0.095   7.734 -0.1938  0.4350  0.5807
20246SOL    HW262413   1.259   0.050   7.613 -0.6487  0.2679  0.9298
20247SOL     OW62414   7.166   7.264   2.569 -0.5283 -0.4280 -0.0371
20247SOL    HW162415   7.074   7.287   2.581 -0.1376  0.5941  1.1781
20247SOL    HW262416   7.202   7.333   2.514 -0.3039 -0.3924  0.1515
20248SOL     OW62417   3.186   1.189   5.251 -0.1592 -0.0517  0.0217
20248SOL    HW162418   3.107   1.216   5.203  0.3083  0.3119 -0.5448
20248SOL    HW262419   3.215   1.268   5.296 -0.1111 -0.1872  0.2300
20249SOL     OW62420   9.071   5.479   6.857  0.6198 -0.0002  0.4608
20249SOL    HW162421   9.081   5.505   6.765 -0.7270 -0.0401  0.2908
20249SOL    HW262422   9.042   5.559   6.902  0.1036 -0.2756  0.6233
20250SOL     OW62423   4.699   6.684   2.716 -0.5903  0.4298 -0.1164
20250SOL    HW162424   4.676   6.699   2.624 -0.9541  2.1851  0.2126
20250SOL    HW262425   4.795   6.687   2.718 -0.5069 -1.1691 -0.6425
20251SOL     OW62426   0.041   2.182   6.140  0.1180 -0.6485  0.1932
20251SOL    HW162427   0.053   2.137   6.056  0.3031 -0.5169  0.1496
20251SOL    HW262428  -0.048   2.159   6.167 -0.0599 -0.4220 -0.1974
20252SOL     OW62429   0.740   1.895   6.296  0.1083  0.0720 -0.3099
20252SOL    HW162430   0.674   1.922   6.231  1.4705 -1.0733 -2.2881
20252SOL    HW262431   0.813   1.862   6.243  1.3095 -0.9181  1.8407
20253SOL     OW62432   8.978   3.165   5.855  0.1379  0.3020 -0.7271
20253SOL    HW162433   9.035   3.241   5.871  0.8979 -0.3093 -0.4403
20253SOL    HW262434   8.900   3.202   5.814  0.3934  1.2674 -0.3764
20254SOL     OW62435   6.018   4.830   6.332  0.2518 -0.1787  0.4573
20254SOL    HW162436   6.078   4.901   6.356  1.0446 -0.6622 -0.0295
20254SOL    HW262437   6.065   4.781   6.265 -0.3977 -1.0057  0.5871
20255SOL     OW62438   6.682   0.523   0.569 -0.0653  0.0395 -0.4209
20255SOL    HW162439   6.728   0.531   0.652 -0.3130 -0.3211 -0.2461
20255SOL    HW262440   6.692   0.608   0.527  0.5423  0.0460 -0.2707
20256SOL     OW62441   4.123   4.674   3.480  0.0202  0.7720  0.9936
20256SOL    HW162442   4.131   4.757   3.527  1.6636  1.5707 -0.5311
20256SOL    HW262443   4.033   4.672   3.448  0.2333  2.4925  0.2004
20257SOL     OW62444   3.186   8.799   2.319  0.7338 -0.0638  0.2059
20257SOL    HW162445   3.159   8.757   2.400  1.5968 -0.2591  0.4076
20257SOL    HW262446   3.107   8.801   2.265  0.1557  0.0658  1.0450
20258SOL     OW62447   2.270   6.661   2.603 -0.2828 -0.7075  0.1749
20258SOL    HW162448   2.258   6.575   2.564  1.8359 -1.4363  0.9682
20258SOL    HW262449   2.337   6.648   2.670 -0.1135  1.5117  0.5278
20259SOL     OW62450   1.547   2.579   2.300  0.3994  0.0446 -0.0700
20259SOL    HW162451   1.569   2.609   2.388  0.1329 -0.3757  0.1404
20259SOL    HW262452   1.515   2.490   2.311 -1.8033  0.7409 -0.2855
20260SOL     OW62453   1.780   2.515   7.612 -0.1820  0.5164 -0.0525
20260SOL    HW162454   1.874   2.530   7.624 -0.2165  0.9258 -0.2932
20260SOL    HW262455   1.771   2.484   7.523 -0.3509  1.1877 -0.2785
20261SOL     OW62456   6.655   2.829   9.333  0.2235 -0.4556 -0.0605
20261SOL    HW162457   6.678   2.739   9.312 -1.3641 -1.4409  2.1134
20261SOL    HW262458   6.612   2.862   9.254  0.3955 -1.7528 -0.7101
20262SOL     OW62459   2.050   0.882   7.058  0.3192  0.6751 -0.5981
20262SOL    HW162460   2.107   0.947   7.018  1.7046  1.1304  1.8753
20262SOL    HW262461   2.064   0.802   7.007  1.2647  1.4432 -1.5762
20263SOL     OW62462   6.193   3.061   5.922  0.2745  0.0831 -0.5538
20263SOL    HW162463   6.115   3.115   5.917  0.5299  0.7842  1.8175
20263SOL    HW262464   6.265   3.123   5.933  1.0921 -0.5866 -1.9249
20264SOL     OW62465   4.901   9.158   8.850  0.0449 -0.0369  0.1383
20264SOL    HW162466   4.864   9.148   8.937  1.7957 -0.0908  0.9100
20264SOL    HW262467   4.922   9.069   8.822 -1.5768 -0.1528 -0.8802
20265SOL     OW62468   5.671   1.917   0.389 -0.0194 -0.4106  0.2967
20265SOL    HW162469   5.665   2.013   0.389 -0.8055 -0.4557  0.5941
20265SOL    HW262470   5.764   1.899   0.401  0.7179  0.3429 -3.0373
20266SOL     OW62471   9.059   7.358   6.126  0.0627 -0.1071 -0.1359
20266SOL    HW162472   9.038   7.299   6.198  1.3906  1.0969  1.3268
20266SOL    HW262473   9.129   7.313   6.077  3.0918  1.2463  2.5947
20267SOL     OW62474   7.980   2.465   3.935  0.5656 -0.0611  0.5597
20267SOL    HW162475   8.001   2.402   3.866 -1.9728 -0.0791 -0.2841
20267SOL    HW262476   7.930   2.415   4.000  0.8004  0.5127  1.1986
20268SOL     OW62477   5.432   7.251   3.626  0.5205  0.2108 -0.0478
20268SOL    HW162478   5.462   7.160   3.613 -0.6628 -0.4187  1.3503
20268SOL    HW262479   5.458   7.296   3.546  0.6229 -1.5026 -1.0344
20269SOL     OW62480   5.351   2.891   9.394 -0.5695  0.1649  0.4998
20269SOL    HW162481   5.351   2.965   9.334  1.0298 -0.4159 -0.2816
20269SOL    HW262482   5.416   2.913   9.460  2.7483 -1.9302 -1.7337
20270SOL     OW62483   3.459   0.316   4.541  0.1225 -0.5719 -0.5946
20270SOL    HW162484   3.472   0.402   4.582 -0.6611 -1.4444  1.6670
20270SOL    HW262485   3.445   0.335   4.449  0.7026  1.6615 -0.2845
20271SOL     OW62486   8.419   5.395   0.196 -0.1578 -0.5760  0.0955
20271SOL    HW162487   8.511   5.384   0.170 -0.0231  0.3070  0.1662
20271SOL    HW262488   8.422   5.407   0.290 -0.5499 -2.6187  0.4237
20272SOL     OW62489   0.544   8.167   9.424  0.5738 -0.2451  0.1646
20272SOL    HW162490   0.531   8.240   9.364 -0.7252 -0.3054  0.3361
20272SOL    HW262491   0.524   8.089   9.373  2.3801 -0.5445 -0.1400
20273SOL     OW62492   7.255   0.632   9.557 -0.2135 -0.1236  0.1089
20273SOL    HW162493   7.268   0.562   9.493  1.1651 -1.2956  1.5760
20273SOL    HW262494   7.341   0.642   9.599 -1.6039 -1.2937  3.5991
20274SOL     OW62495   2.104   3.383   1.590 -0.2855 -0.0465  0.1605
20274SOL    HW162496   2.142   3.364   1.504 -1.6594  0.2168 -0.5374
20274SOL    HW262497   2.091   3.298   1.630 -2.9487 -0.4952 -1.4140
20275SOL     OW62498   9.437   6.220   1.670 -0.4910  0.1791 -0.2671
20275SOL    HW162499   9.484   6.261   1.743 -0.2126  0.3549 -0.5389
20275SOL    HW262500   9.505   6.204   1.604 -0.4759 -1.3537  0.0959
20276SOL     OW62501   9.528   8.161   6.790 -0.1659  0.2206  0.1338
20276SOL    HW162502   9.520   8.249   6.828 -1.3867  0.6409 -1.0219
20276SOL    HW262503   9.474   8.164   6.711  1.7713 -0.8204 -1.3067
20277SOL     OW62504   4.122   6.921   0.842  0.2755 -0.3847 -0.3113
20277SOL    HW162505   4.156   6.992   0.897  0.7146  0.7946 -1.9994
20277SOL    HW262506   4.120   6.844   0.899  0.6706  0.7729  1.3253
20278SOL     OW62507   4.249   2.583   3.810  0.0451  0.8849 -0.0996
20278SOL    HW162508   4.325   2.641   3.806  0.2440  0.5818 -1.1309
20278SOL    HW262509   4.283   2.497   3.784 -0.9370  1.0842 -2.3260
20279SOL     OW62510   3.634   0.510   1.044 -0.5764 -0.2048 -0.0031
20279SOL    HW162511   3.584   0.446   0.992 -0.0138 -1.3958  0.8720
20279SOL    HW262512   3.725   0.494   1.019 -0.3978 -0.0412  0.5468
20280SOL     OW62513   4.502   7.291   7.136  0.5895  0.1446  0.5266
20280SOL    HW162514   4.493   7.197   7.120 -0.5261  0.5433 -1.6222
20280SOL    HW262515   4.412   7.323   7.137  0.9721  1.2356  0.9874
20281SOL     OW62516   5.015   4.977   8.921  0.3537 -0.2351 -0.3908
20281SOL    HW162517   5.034   5.064   8.884 -0.1824  0.1495  0.2052
20281SOL    HW262518   4.921   4.978   8.935  0.5858 -0.2008  1.3380
20282SOL     OW62519   1.759   4.858   6.059  0.4326 -0.4532 -0.1451
20282SOL    HW162520   1.683   4.915   6.047 -0.3742 -0.7368  2.8177
20282SOL    HW262521   1.788   4.838   5.970 -0.4223  2.9411 -1.3368
20283SOL     OW62522   7.820   5.818   5.610  0.0489  0.1147 -0.1844
20283SOL    HW162523   7.820   5.739   5.665  1.0899 -0.6691 -1.2493
20283SOL    HW262524   7.894   5.805   5.550  0.6203  2.1798 -0.0049
20284SOL     OW62525   5.737   5.526   4.931  0.0063  0.2629  0.0823
20284SOL    HW162526   5.772   5.443   4.965 -1.4014  0.5698  2.4546
20284SOL    HW262527   5.693   5.566   5.005 -4.0579  0.6311 -2.2489
20285SOL     OW62528   1.637   0.690   1.843 -0.6869  0.3058 -0.2532
20285SOL    HW162529   1.713   0.747   1.831 -0.9474  0.5280 -0.9102
20285SOL    HW262530   1.581   0.709   1.768 -0.1696 -1.7836 -1.2373
20286SOL     OW62531   4.719   9.127   5.924 -0.0710  0.2333  0.0467
20286SOL    HW162532   4.758   9.157   6.007 -2.4210  1.4315  0.7925
20286SOL    HW262533   4.639   9.082   5.950 -0.6339  0.2618 -1.5601
20287SOL     OW62534   2.818   2.178   7.202  0.0685  0.7853 -0.2181
20287SOL    HW162535   2.805   2.104   7.143  0.0394  2.0051 -1.7983
20287SOL    HW262536   2.775   2.252   7.159  0.6435  1.8726  0.9986
20288SOL     OW62537   0.727   0.330   4.900 -0.1791 -0.2010 -0.1168
20288SOL    HW162538   0.686   0.367   4.979  0.2829  1.3227 -0.5461
20288SOL    HW262539   0.680   0.248   4.885 -0.6145 -0.2811  1.4504
20289SOL     OW62540   4.423   7.477   8.612  0.0812  0.3581  0.3058
20289SOL    HW162541   4.441   7.541   8.681  1.5438 -0.2406  0.5132
20289SOL    HW262542   4.420   7.393   8.657 -1.7524  0.2173  0.0225
20290SOL     OW62543   8.572   7.874   6.072 -0.3167 -0.1145  0.3196
20290SOL    HW162544   8.660   7.848   6.045  1.1393  2.0593  2.6113
20290SOL    HW262545   8.534   7.794   6.109  0.8752 -0.9551 -0.1964
20291SOL     OW62546   3.487   4.642   0.214 -0.5250 -0.3476 -0.0833
20291SOL    HW162547   3.440   4.573   0.168  0.0598 -0.6951 -0.1704
20291SOL    HW262548   3.521   4.698   0.143  0.2088 -0.7737 -0.0863
20292SOL     OW62549   5.839   9.617   4.247 -0.7085 -0.0302  0.0229
20292SOL    HW162550   5.818   9.633   4.339 -1.4470 -0.8393  0.0140
20292SOL    HW262551   5.756   9.632   4.201 -0.5371 -0.3820 -0.4058
20293SOL     OW62552   8.293   3.463   7.609 -0.6421 -0.3156 -0.6338
20293SOL    HW162553   8.283   3.503   7.695  0.7941  1.7781 -1.3831
20293SOL    HW262554   8.297   3.536   7.548 -1.3956 -1.7349 -2.5089
20294SOL     OW62555   5.050   3.191   8.038 -0.0782  0.5942 -0.1648
20294SOL    HW162556   5.130   3.169   8.086 -0.3018 -0.1231 -0.0979
20294SOL    HW262557   5.051   3.132   7.962 -0.4447  0.7149 -0.2655
20295SOL     OW62558   0.581   6.302   5.798 -0.2861 -0.0182  0.4409
20295SOL    HW162559   0.524   6.296   5.722 -0.5964 -2.9351  0.7970
20295SOL    HW262560   0.663   6.262   5.770  0.5986  1.4607  0.8281
20296SOL     OW62561   1.295   6.912   3.496  0.1184 -1.0334 -0.2343
20296SOL    HW162562   1.273   7.005   3.506 -1.4479 -1.2966 -0.9263
20296SOL    HW262563   1.387   6.912   3.471  0.2068  0.3168 -0.0161
20297SOL     OW62564   8.508   6.404   2.689  0.3026 -0.0742 -0.3194
20297SOL    HW162565   8.509   6.312   2.662 -1.1487 -0.5505  1.0937
20297SOL    HW262566   8.502   6.401   2.785 -0.3954  1.4807 -0.2842
20298SOL     OW62567   2.773   7.681   3.256 -0.0002 -1.0104 -0.7168
20298SOL    HW162568   2.765   7.624   3.180  0.8548 -2.0578 -0.0451
20298SOL    HW262569   2.866   7.680   3.277  0.1041  0.8934 -0.8534
20299SOL     OW62570   9.051   9.146   0.814  0.2314  0.4254 -0.0118
20299SOL    HW162571   9.126   9.180   0.862 -0.3572  1.1915  0.3955
20299SOL    HW262572   9.057   9.050   0.823  0.9735  0.4961  0.2699
20300SOL     OW62573   2.382   1.073   0.024  0.2500  0.1105 -0.0933
20300SOL    HW162574   2.470   1.104   0.002 -0.6099  1.8896 -1.2960
20300SOL    HW262575   2.376   1.087   0.119  0.8918  1.0701 -0.1706
20301SOL     OW62576   1.618   6.435   3.270  0.4091  0.4138  0.2690
20301SOL    HW162577   1.711   6.446   3.288  0.2042  2.5919  0.2896
20301SOL    HW262578   1.593   6.514   3.222 -1.6254  0.3890  1.1763
20302SOL     OW62579   2.690   8.519   3.586  0.4613 -0.8660 -0.3421
20302SOL    HW162580   2.610   8.474   3.559  0.8214  0.1448 -3.5868
20302SOL    HW262581   2.681   8.608   3.552  2.0882 -0.0871  1.0848
20303SOL     OW62582   2.293   7.542   2.370 -0.4846  0.3447 -0.5651
20303SOL    HW162583   2.294   7.503   2.457  0.1419  0.9053 -0.3096
20303SOL    HW262584   2.385   7.558   2.350 -0.7433  2.7358 -0.1710
20304SOL     OW62585   4.640   7.275   4.553 -0.1569  0.1833 -0.1492
20304SOL    HW162586   4.588   7.194   4.556 -3.0309  1.8442  3.5641
20304SOL    HW262587   4.717   7.255   4.607 -0.8664 -0.1546  0.7780
20305SOL     OW62588   7.125   6.332   9.318  1.0485 -0.1671 -0.6218
20305SOL    HW162589   7.126   6.284   9.401  0.5607 -0.2971 -0.6887
20305SOL    HW262590   7.191   6.400   9.329  0.7793 -0.0007 -0.0165
20306SOL     OW62591   6.987   1.746   6.455 -0.0420  0.0540 -0.1898
20306SOL    HW162592   7.003   1.689   6.379  1.2728 -0.1119  0.1901
20306SOL    HW262593   6.949   1.826   6.418 -1.5035 -0.8586 -0.7778
20307SOL     OW62594   6.713   9.308   5.338 -0.3995 -0.4210  0.1294
20307SOL    HW162595   6.730   9.392   5.380  0.4417 -0.7481  0.4763
20307SOL    HW262596   6.652   9.263   5.397  2.0414 -1.5614  1.9989
20308SOL     OW62597   7.277   0.921   2.152 -0.4286 -1.0084 -0.0911
20308SOL    HW162598   7.336   0.995   2.172  0.2658 -1.9840  1.6793
20308SOL    HW262599   7.262   0.928   2.058  2.8137 -0.8760 -0.7150
20309SOL     OW62600   8.385   3.495   2.091  0.1666 -0.0576  0.0392
20309SOL    HW162601   8.449   3.516   2.159 -0.5516  0.2509  0.6341
20309SOL    HW262602   8.309   3.548   2.113 -0.7418 -1.3329  0.0429
20310SOL     OW62603   1.599   6.040   2.773 -0.0219 -0.5037 -0.5040
20310SOL    HW162604   1.625   5.971   2.712 -0.7073 -0.5019 -0.8166
20310SOL    HW262605   1.550   6.102   2.719 -0.3522 -0.3326 -0.0161
20311SOL     OW62606   0.576   0.971   3.858  0.8029  0.0924 -0.2305
20311SOL    HW162607   0.641   0.969   3.788  0.1368 -1.0644 -0.8412
20311SOL    HW262608   0.512   1.036   3.830  0.4798 -0.4452 -0.7764
20312SOL     OW62609   6.736   3.385   5.901 -0.1854  0.1032  0.5225
20312SOL    HW162610   6.647   3.396   5.869  0.4337  1.0641 -0.9609
20312SOL    HW262611   6.765   3.302   5.863 -0.6953 -0.6230  1.6697
20313SOL     OW62612   2.567   6.229   9.127 -0.3373 -0.0025 -0.8133
20313SOL    HW162613   2.660   6.211   9.115  0.3277  1.0258  1.9605
20313SOL    HW262614   2.554   6.318   9.095 -0.3877 -0.1633 -1.2440
20314SOL     OW62615   1.104   0.993   4.203 -0.0211 -0.0848  0.4595
20314SOL    HW162616   1.133   0.903   4.216 -0.0753 -0.1514  0.1107
20314SOL    HW262617   1.018   0.997   4.246 -1.0081 -0.7810 -1.3481
20315SOL     OW62618   5.022   2.668   4.954  0.0226  0.2480 -0.2810
20315SOL    HW162619   4.964   2.678   4.879 -1.4517 -0.8235  0.6660
20315SOL    HW262620   4.965   2.673   5.030  1.1587 -0.8751  0.6989
20316SOL     OW62621   6.084   0.818   1.701  0.2615  0.2267 -0.0050
20316SOL    HW162622   6.141   0.820   1.778 -0.6002  0.5853  0.6461
20316SOL    HW262623   6.132   0.866   1.634 -0.4415  3.0792  1.3978
20317SOL     OW62624   5.616   6.858   1.440 -0.3203 -0.7577  0.5255
20317SOL    HW162625   5.697   6.808   1.450 -0.9635 -1.7180  1.0672
20317SOL    HW262626   5.643   6.949   1.453  1.1417 -0.7356 -1.9787
20318SOL     OW62627   7.783   6.741   8.563 -0.0649  0.0207 -0.3680
20318SOL    HW162628   7.739   6.658   8.542 -2.0103  0.5485  1.2694
20318SOL    HW262629   7.712   6.805   8.567  1.3520  1.7247 -1.2038
20319SOL     OW62630   4.728   7.547   2.801  0.0111 -0.1266  0.8090
20319SOL    HW162631   4.721   7.642   2.802  0.2719 -0.0823 -0.2707
20319SOL    HW262632   4.785   7.526   2.874 -2.1656  0.3197  2.7617
20320SOL     OW62633   0.704   5.543   8.480  0.0227 -0.2533  0.3262
20320SOL    HW162634   0.758   5.549   8.400 -0.2824  0.4837  0.1680
20320SOL    HW262635   0.621   5.507   8.449 -0.5881  1.3358  0.0521
20321SOL     OW62636   2.220   0.052   8.404  0.1910 -0.3013  0.0315
20321SOL    HW162637   2.171   0.099   8.472 -1.4766 -1.1416 -0.5246
20321SOL    HW262638   2.261  -0.021   8.451  1.0972  0.4939  0.5307
20322SOL     OW62639   3.651   1.694   8.989  0.2039  0.3918  0.1961
20322SOL    HW162640   3.722   1.731   8.937  0.0895  0.1065 -0.1643
20322SOL    HW262641   3.694   1.662   9.068  0.8599 -1.8546 -0.9957
20323SOL     OW62642   8.177   0.088   1.838  0.0368  0.3178 -0.2172
20323SOL    HW162643   8.123   0.022   1.881  0.0902 -1.4157 -2.6816
20323SOL    HW262644   8.116   0.160   1.819 -0.3923  0.2881  0.9512
20324SOL     OW62645   1.207   9.147   5.142  0.2515  0.3396  0.5673
20324SOL    HW162646   1.131   9.116   5.193  0.4185  0.5117  0.9301
20324SOL    HW262647   1.179   9.139   5.051 -0.3014  0.6441  0.7033
20325SOL     OW62648   6.062   8.479   9.533 -0.8356 -0.4057  0.3757
20325SOL    HW162649   6.118   8.404   9.556  0.0820 -0.0149 -0.5116
20325SOL    HW262650   6.048   8.524   9.616 -0.6560 -1.0667  0.7742
20326SOL     OW62651   7.164   3.015   1.592 -0.3286  0.0944  0.0304
20326SOL    HW162652   7.221   3.061   1.530  0.1570 -2.2423 -1.3945
20326SOL    HW262653   7.082   3.065   1.590 -0.0354  0.6149 -1.8493
20327SOL     OW62654   5.263   0.882   1.047 -0.3170  0.0746 -0.7834
20327SOL    HW162655   5.224   0.913   0.965  0.7015 -0.0833 -1.3533
20327SOL    HW262656   5.352   0.920   1.046 -0.7438  1.2442  0.9296
20328SOL     OW62657   6.739   1.227   8.945  0.1278  0.6016 -0.4008
20328SOL    HW162658   6.806   1.261   8.885  0.4975  1.0574  0.2522
20328SOL    HW262659   6.742   1.287   9.019  0.3063 -0.4583  0.4739
20329SOL     OW62660   1.340   1.085   2.238  0.1010  0.3635 -0.7980
20329SOL    HW162661   1.407   1.125   2.293 -0.6131 -1.3616  1.5041
20329SOL    HW262662   1.277   1.048   2.301 -2.4739  1.0117 -2.8299
20330SOL     OW62663   1.525   8.497   4.014 -0.1327  0.1563  0.2313
20330SOL    HW162664   1.597   8.507   4.076  0.0138 -0.5053  0.1804
20330SOL    HW262665   1.457   8.452   4.064  0.5998 -1.8972 -0.5054
20331SOL     OW62666   5.299   4.200   3.118  0.9182  0.1715  0.6683
20331SOL    HW162667   5.251   4.283   3.113  0.3296 -0.0785  1.8213
20331SOL    HW262668   5.348   4.195   3.035 -0.3404  0.8717 -0.1478
20332SOL     OW62669   1.846   5.113   2.756  0.0289  0.1609  0.2027
20332SOL    HW162670   1.903   5.053   2.804  0.2801  0.3002  0.0822
20332SOL    HW262671   1.873   5.200   2.786 -1.2603  0.1815  1.4305
20333SOL     OW62672   8.875   0.958   0.199 -0.1633  0.5500 -0.3056
20333SOL    HW162673   8.806   1.019   0.223  1.8225  1.6240  3.4577
20333SOL    HW262674   8.836   0.871   0.210 -1.4498  1.1184 -0.2773
20334SOL     OW62675   4.447   4.289   2.413  0.1534  1.0349 -0.6943
20334SOL    HW162676   4.523   4.327   2.459  0.7227 -1.2299  0.3733
20334SOL    HW262677   4.395   4.249   2.483 -0.2836 -0.3422 -1.7799
20335SOL     OW62678   1.467   4.471   7.262  0.8261 -0.9290 -0.2722
20335SOL    HW162679   1.536   4.494   7.200  1.0343 -1.5339 -0.2680
20335SOL    HW262680   1.387   4.468   7.209  0.8266 -0.3800 -0.3061
20336SOL     OW62681   6.935   2.761   2.207 -0.3143 -0.2441  0.3359
20336SOL    HW162682   6.955   2.756   2.300  0.8789  0.4618  0.1352
20336SOL    HW262683   6.957   2.850   2.182  1.0769 -0.8955 -0.9676
20337SOL     OW62684   5.248   7.177   3.857  0.1974  0.1865 -0.3712
20337SOL    HW162685   5.303   7.187   3.780  1.5001  0.5462  0.5782
20337SOL    HW262686   5.161   7.157   3.822  1.0650 -1.1527 -1.8885
20338SOL     OW62687   2.623   1.960   7.728  0.0320  0.2275  0.4943
20338SOL    HW162688   2.636   1.865   7.728 -2.8292 -0.3009 -1.9782
20338SOL    HW262689   2.554   1.975   7.793  0.9419  0.7698  1.3713
20339SOL     OW62690   4.490   7.697   7.665  0.3623  0.1423  0.1484
20339SOL    HW162691   4.570   7.657   7.631  0.6552  0.4674  0.4404
20339SOL    HW262692   4.516   7.787   7.688  0.8944 -0.7694  3.7016
20340SOL     OW62693   1.030   3.050   0.607  0.5776  0.6992  0.4067
20340SOL    HW162694   1.097   3.113   0.634 -0.2426  1.6031  0.4032
20340SOL    HW262695   1.019   2.992   0.682  3.1835 -1.1080 -0.4940
20341SOL     OW62696   3.202   3.494   9.077  0.0762 -0.6861 -0.2953
20341SOL    HW162697   3.184   3.405   9.045  0.5175 -0.5934 -0.8112
20341SOL    HW262698   3.205   3.485   9.173  2.4136 -1.7006 -0.3842
20342SOL     OW62699   5.558   2.788   3.661 -0.0651  0.1150  0.2242
20342SOL    HW162700   5.534   2.712   3.714 -0.6228 -0.2225 -0.5002
20342SOL    HW262701   5.644   2.767   3.626 -1.0609 -1.1425 -1.6594
20343SOL     OW62702   1.352   2.091   0.700 -0.0579  0.2247 -0.0946
20343SOL    HW162703   1.338   2.174   0.654  1.3350  0.5275 -0.0235
20343SOL    HW262704   1.364   2.116   0.792 -0.0876 -0.0918 -0.0040
20344SOL     OW62705   5.199   9.373   6.855  0.0960  0.4446 -0.1510
20344SOL    HW162706   5.116   9.377   6.902  0.2193 -1.7209  0.3770
20344SOL    HW262707   5.265   9.368   6.923  0.3192 -2.0401 -0.4412
20345SOL     OW62708   2.640   9.224   3.129  0.3649 -0.0277 -0.1232
20345SOL    HW162709   2.665   9.286   3.060  0.3207 -0.2782 -0.3655
20345SOL    HW262710   2.680   9.141   3.103 -1.8503 -0.8094 -1.2850
20346SOL     OW62711   5.774   4.605   2.350  0.3728 -0.5062 -0.1261
20346SOL    HW162712   5.869   4.616   2.348  0.7066 -2.8413  0.1076
20346SOL    HW262713   5.743   4.673   2.409  2.0927 -0.7398  1.1182
20347SOL     OW62714   5.682   4.791   6.724 -0.2258 -0.1698 -0.1828
20347SOL    HW162715   5.735   4.751   6.655 -2.3318  0.4549 -2.2980
20347SOL    HW262716   5.723   4.876   6.739  0.9457 -0.7848  0.2273
20348SOL     OW62717   2.184   2.717   5.677 -1.0134 -0.4115  0.2083
20348SOL    HW162718   2.233   2.741   5.755  0.1528 -1.9112 -0.0242
20348SOL    HW262719   2.114   2.660   5.708 -0.9874 -0.4293  0.2334
20349SOL     OW62720   7.023   0.808   6.912  0.1645  0.0448 -0.2368
20349SOL    HW162721   6.965   0.738   6.882 -0.1659  0.8242 -1.4738
20349SOL    HW262722   6.991   0.828   7.000  0.5733 -1.6680  0.3502
20350SOL     OW62723   6.620   6.768   3.056 -0.6545  0.0138 -0.1063
20350SOL    HW162724   6.681   6.755   3.128 -0.0424 -1.1455 -0.8125
20350SOL    HW262725   6.599   6.862   3.059  1.2432  0.4708  0.0858
20351SOL     OW62726   1.550   2.928   3.904  0.3982  0.1485 -0.4555
20351SOL    HW162727   1.622   2.868   3.920  0.6601  0.3784 -0.7489
20351SOL    HW262728   1.556   2.948   3.811  1.0832  1.5941 -0.1292
20352SOL     OW62729   4.504   4.100   0.017 -0.4537 -0.2756 -0.3144
20352SOL    HW162730   4.548   4.059   0.092 -1.3341 -0.3228  0.1906
20352SOL    HW262731   4.566   4.167  -0.013  0.5944 -1.3262 -0.5676
20353SOL     OW62732   2.054   3.028   7.659 -0.7130 -0.0386 -0.2865
20353SOL    HW162733   2.092   3.089   7.722 -0.9493 -0.8502  0.6679
20353SOL    HW262734   2.057   2.943   7.703 -2.9888 -0.2673 -0.4336
20354SOL     OW62735   8.398   3.263   2.436  0.4229 -0.1873  0.3878
20354SOL    HW162736   8.446   3.339   2.403  1.4744 -0.9181  0.1927
20354SOL    HW262737   8.404   3.270   2.531  0.2027  0.1735  0.3747
20355SOL     OW62738   9.042   6.729   2.414  0.0468  0.2409  0.0531
20355SOL    HW162739   9.104   6.742   2.486 -3.0493 -1.3579  3.3394
20355SOL    HW262740   9.067   6.645   2.375  1.2151  0.6735 -0.1496
20356SOL     OW62741   3.804   7.464   8.615 -0.3476 -0.0804 -0.0998
20356SOL    HW162742   3.853   7.446   8.535  0.4322  1.2759  0.0474
20356SOL    HW262743   3.870   7.492   8.678 -0.8641 -1.7333  1.2538
20357SOL     OW62744   7.278   2.958   6.738 -0.2702 -0.5502  0.2213
20357SOL    HW162745   7.283   2.992   6.828  0.4850 -3.3129  1.3468
20357SOL    HW262746   7.300   3.033   6.683  0.8348  0.8748  2.4371
20358SOL     OW62747   0.609   7.705   0.905  0.8418  0.5227  0.1072
20358SOL    HW162748   0.638   7.615   0.893 -0.1229  0.1036  0.7754
20358SOL    HW262749   0.603   7.716   1.000 -1.5299  0.4364  0.0277
20359SOL     OW62750   6.060   6.768   4.267  0.7656  0.1783  0.0357
20359SOL    HW162751   6.017   6.794   4.185  1.6460  0.0839 -0.4639
20359SOL    HW262752   6.087   6.678   4.253  0.5971  0.0372  0.5778
20360SOL     OW62753   7.410   7.529   1.399  0.3467 -0.4708 -0.3783
20360SOL    HW162754   7.450   7.444   1.417  0.6137 -0.5907 -1.4804
20360SOL    HW262755   7.330   7.529   1.452  1.7382 -0.2220  1.8464
20361SOL     OW62756   3.900   5.507   1.765 -0.2251 -0.3269 -0.1673
20361SOL    HW162757   3.868   5.597   1.768 -2.6749 -1.0319 -1.8905
20361SOL    HW262758   3.962   5.501   1.838 -1.0993  2.3159  0.9105
20362SOL     OW62759   6.809   7.730   7.683  0.3935  0.0260 -0.2247
20362SOL    HW162760   6.875   7.664   7.701 -0.6461 -0.8118  0.6682
20362SOL    HW262761   6.807   7.737   7.588  3.3789  1.7993 -0.2945
20363SOL     OW62762   5.483   6.627   0.205  0.6944  0.1205 -0.4332
20363SOL    HW162763   5.518   6.546   0.167 -0.8639 -0.5765 -0.4400
20363SOL    HW262764   5.537   6.641   0.283 -0.6933 -2.4660  1.1209
20364SOL     OW62765   3.394   0.304   2.922  0.0940 -0.5626 -0.7097
20364SOL    HW162766   3.425   0.347   3.002  0.0124 -1.3694 -0.2344
20364SOL    HW262767   3.328   0.363   2.887  2.7080  1.6701 -2.2393
20365SOL     OW62768   5.002   3.105   1.286 -0.1456 -0.1453 -0.1308
20365SOL    HW162769   5.036   3.183   1.331  1.0787  0.2323 -1.6294
20365SOL    HW262770   5.046   3.032   1.329 -0.0996  0.1065  0.2540
20366SOL     OW62771   5.328   7.342   0.954  0.1889  0.3187  0.1050
20366SOL    HW162772   5.247   7.318   1.000  0.6965  1.4169  1.6605
20366SOL    HW262773   5.356   7.261   0.912 -1.6697 -0.1010 -0.4102
20367SOL     OW62774   6.273   8.115   6.931 -0.5074  0.3361  0.1009
20367SOL    HW162775   6.365   8.108   6.957 -0.8664 -0.1824  1.2785
20367SOL    HW262776   6.229   8.043   6.977 -1.6064  0.9400  0.0244
20368SOL     OW62777   4.102   3.305   1.736  0.2641 -0.3026 -0.3789
20368SOL    HW162778   4.043   3.312   1.811  1.0822 -1.3075  0.3837
20368SOL    HW262779   4.058   3.245   1.676 -1.4898  2.2225 -1.8452
20369SOL     OW62780   4.523   5.564   7.469  0.8368 -0.0286  0.3003
20369SOL    HW162781   4.466   5.487   7.470  0.2853  0.3778  0.4389
20369SOL    HW262782   4.487   5.620   7.401  1.8117 -0.3130 -0.4668
20370SOL     OW62783   2.672   6.097   8.557  0.1743 -0.2295 -0.0854
20370SOL    HW162784   2.628   6.021   8.518  0.9916  0.1958 -1.9371
20370SOL    HW262785   2.617   6.171   8.533  1.3384  0.1886 -1.5806
20371SOL     OW62786   5.774   0.240   6.936  0.1138  0.1556  0.8407
20371SOL    HW162787   5.711   0.168   6.930  0.4938 -0.1958  1.0175
20371SOL    HW262788   5.760   0.291   6.857  1.0879 -1.1395 -0.2126
20372SOL     OW62789   3.851   7.161   2.962  0.6860 -0.2369 -0.1442
20372SOL    HW162790   3.934   7.125   2.994  0.8721 -0.2279 -0.6117
20372SOL    HW262791   3.863   7.170   2.868  0.7447  1.3067 -0.0087
20373SOL     OW62792   6.202   6.386   5.287 -0.1278 -0.8501 -0.2661
20373SOL    HW162793   6.163   6.339   5.361 -1.6951 -0.3536 -0.7556
20373SOL    HW262794   6.188   6.329   5.212  0.3477 -0.7823 -0.4145
20374SOL     OW62795   0.019   5.327   4.089  0.3377 -0.3594  0.4538
20374SOL    HW162796  -0.028   5.394   4.138  0.7400  0.3387 -0.0894
20374SOL    HW262797   0.017   5.249   4.145  0.3915  0.2837  1.3566
20375SOL     OW62798   5.099   5.773   0.719  0.5094  0.0893  0.1375
20375SOL    HW162799   5.132   5.842   0.661 -1.2021  2.1061  1.4158
20375SOL    HW262800   5.004   5.780   0.713  0.2999 -1.6973  0.8810
20376SOL     OW62801   0.722   6.507   7.640 -0.1466  0.2327  0.0401
20376SOL    HW162802   0.637   6.525   7.601 -0.2778  0.1884  0.3010
20376SOL    HW262803   0.719   6.413   7.660  0.9741 -0.3971 -2.3950
20377SOL     OW62804   1.827   5.534   7.752 -0.3808 -0.4729  0.9081
20377SOL    HW162805   1.785   5.454   7.781 -3.1568  0.2409 -0.7119
20377SOL    HW262806   1.873   5.510   7.671 -0.5600 -0.5792  0.8392
20378SOL     OW62807   4.155   1.787   4.372 -0.0520  0.0615 -0.7413
20378SOL    HW162808   4.065   1.754   4.378  0.7519 -2.2917 -0.3890
20378SOL    HW262809   4.174   1.821   4.459 -0.8389  1.3250 -1.0448
20379SOL     OW62810   6.663   8.869   3.922 -0.1580  0.2846 -0.8273
20379SOL    HW162811   6.631   8.864   4.012  1.1799 -0.3650 -0.3660
20379SOL    HW262812   6.597   8.822   3.871 -1.2266  1.1503 -0.2968
20380SOL     OW62813   4.304   3.656   2.253 -0.2167  0.0920 -0.0818
20380SOL    HW162814   4.265   3.705   2.180 -0.9835 -1.7247 -0.9662
20380SOL    HW262815   4.230   3.622   2.301  0.2605 -1.0785 -0.1331
20381SOL     OW62816   7.168   8.176   7.880  0.4822 -0.0706  0.3155
20381SOL    HW162817   7.245   8.232   7.887 -0.4000  1.3266 -0.5400
20381SOL    HW262818   7.203   8.088   7.868  1.9590  0.6021 -0.6025
20382SOL     OW62819   2.939   6.515   7.537  0.6409 -0.1090 -0.1130
20382SOL    HW162820   3.025   6.492   7.572  0.2735  2.0996  2.5419
20382SOL    HW262821   2.958   6.551   7.450  2.1264 -1.6407 -0.4770
20383SOL     OW62822   1.404   3.098   6.137  0.1107  0.5505  0.4395
20383SOL    HW162823   1.436   3.123   6.224  1.0256  2.9777 -0.4932
20383SOL    HW262824   1.483   3.084   6.085 -0.3309  1.8247 -0.6541
20384SOL     OW62825   2.595   8.842   1.146 -0.4078  0.0388 -0.5921
20384SOL    HW162826   2.547   8.904   1.092  0.1457  0.3321 -0.7460
20384SOL    HW262827   2.541   8.833   1.225 -1.1387 -0.2739 -1.1128
20385SOL     OW62828   3.439   2.959   9.126  0.1156 -0.0137  0.0424
20385SOL    HW162829   3.469   2.870   9.146 -0.1396 -0.7136 -2.3631
20385SOL    HW262830   3.352   2.965   9.165  0.2860 -0.6963  0.5375
20386SOL     OW62831   5.192   5.538   6.862  0.0579 -0.2291 -0.2165
20386SOL    HW162832   5.245   5.603   6.908  1.1134 -0.6161 -0.8553
20386SOL    HW262833   5.116   5.524   6.920  0.0053  1.2561  0.1067
20387SOL     OW62834   8.327   8.825   3.049 -0.1528 -0.2346 -0.5089
20387SOL    HW162835   8.268   8.769   3.099 -0.1856  1.4985  1.5606
20387SOL    HW262836   8.294   8.914   3.064  1.5904  0.5943 -1.2558
20388SOL     OW62837   0.950   2.668   7.093 -0.0746  0.0815 -0.2887
20388SOL    HW162838   0.867   2.672   7.142 -0.0930  1.8134 -0.3914
20388SOL    HW262839   0.936   2.598   7.029 -1.9176  1.0659 -1.0536
20389SOL     OW62840   7.713   3.313   7.521  0.2428  0.1701  0.2795
20389SOL    HW162841   7.663   3.249   7.472 -0.9032  2.3776 -1.6506
20389SOL    HW262842   7.801   3.310   7.483  0.0407  0.1084 -0.1822
20390SOL     OW62843   7.810   1.099   1.080 -0.1090 -0.0934 -0.4180
20390SOL    HW162844   7.885   1.061   1.035 -1.1301 -2.0112 -0.5973
20390SOL    HW262845   7.831   1.092   1.173  0.2832  0.1721 -0.4827
20391SOL     OW62846   3.334   2.625   2.288  0.2712  0.0105 -0.4947
20391SOL    HW162847   3.251   2.595   2.252 -0.5925  2.1787 -0.4503
20391SOL    HW262848   3.337   2.588   2.377 -0.9080  0.3301 -0.3104
20392SOL     OW62849   1.422   5.791   7.489 -0.2614  0.0177 -0.0798
20392SOL    HW162850   1.419   5.853   7.563 -0.7440 -0.7860  0.5946
20392SOL    HW262851   1.511   5.798   7.455  0.2691 -0.2936  1.1921
20393SOL     OW62852   3.096   5.001   1.724 -0.0238 -0.3608 -0.1478
20393SOL    HW162853   3.115   5.044   1.807  0.5117  0.7015 -0.8019
20393SOL    HW262854   3.181   4.993   1.681 -0.4491  0.2902 -1.1489
20394SOL     OW62855   7.808   2.120   1.805  0.4217  0.2486 -0.3099
20394SOL    HW162856   7.797   2.172   1.885 -2.3769  0.3065 -0.6348
20394SOL    HW262857   7.822   2.185   1.736 -0.1726  0.3963 -0.2944
20395SOL     OW62858   2.920   7.907   5.209  0.3678 -0.5278 -0.1376
20395SOL    HW162859   2.991   7.904   5.274 -1.4846 -0.0519  2.0553
20395SOL    HW262860   2.888   7.997   5.213 -1.7589 -1.2463  0.6306
20396SOL     OW62861   0.154   9.438   5.513  0.2847 -0.1069 -0.4143
20396SOL    HW162862   0.215   9.485   5.569 -0.0360  1.5686 -1.4126
20396SOL    HW262863   0.070   9.483   5.524  0.0684 -0.1310 -1.7370
20397SOL     OW62864   1.806   8.660   1.235 -0.3361  0.1169  0.6268
20397SOL    HW162865   1.731   8.639   1.179 -0.3886 -1.9299  1.3856
20397SOL    HW262866   1.778   8.739   1.283 -1.9149 -0.4271  0.6771
20398SOL     OW62867   6.813   3.010   6.994 -0.5142  0.1456  0.2162
20398SOL    HW162868   6.746   3.015   7.062 -0.9248  1.3389 -0.2581
20398SOL    HW262869   6.868   3.087   7.008  0.2745 -0.3851  0.0919
20399SOL     OW62870   4.299   3.039   9.613  0.1255 -0.1132 -0.1865
20399SOL    HW162871   4.331   3.027   9.702 -0.1703 -0.3516 -0.1104
20399SOL    HW262872   4.214   2.995   9.612  0.7162 -1.2877 -0.9667
20400SOL     OW62873   8.911   3.970   5.836  0.1604  0.2654  0.0423
20400SOL    HW162874   8.859   4.006   5.765  1.9881  2.8543 -0.0912
20400SOL    HW262875   8.852   3.970   5.912 -1.3725 -1.2451 -1.0741
20401SOL     OW62876   1.614   5.992   1.541 -0.1988 -0.4249 -0.0184
20401SOL    HW162877   1.610   6.046   1.463 -0.6546  0.6754  0.7424
20401SOL    HW262878   1.693   6.020   1.587  0.0990 -1.1062 -0.0949
20402SOL     OW62879   1.986   3.274   9.625  0.0703 -0.1218 -0.3785
20402SOL    HW162880   1.954   3.359   9.594  1.6378 -0.4699 -3.2110
20402SOL    HW262881   1.917   3.212   9.602 -0.5525  0.1835  0.6123
20403SOL     OW62882   5.202   0.617   1.102  0.2369 -0.2587  0.2260
20403SOL    HW162883   5.232   0.707   1.111 -1.2046  0.2062  0.6515
20403SOL    HW262884   5.235   0.573   1.180 -0.6175  0.3894  0.9863
20404SOL     OW62885   9.239   5.053   8.926 -0.2454 -0.1924  0.4799
20404SOL    HW162886   9.207   5.032   8.839 -1.1746 -1.8853  1.1770
20404SOL    HW262887   9.332   5.070   8.914 -0.3748 -0.3127 -0.8452
20405SOL     OW62888   4.846   2.378   7.120 -0.3224  0.2429 -0.1314
20405SOL    HW162889   4.778   2.314   7.100  0.5169 -1.1448  1.2620
20405SOL    HW262890   4.797   2.459   7.138 -1.8400 -1.1304  2.5362
20406SOL     OW62891   8.687   7.339   8.127 -0.3293  0.1670  0.0080
20406SOL    HW162892   8.595   7.314   8.139 -0.2721  0.4587  1.1676
20406SOL    HW262893   8.689   7.433   8.146 -0.1450  0.6281 -2.0977
20407SOL     OW62894   9.184   8.445   9.135  0.5111  0.3981  0.0813
20407SOL    HW162895   9.256   8.456   9.073  1.3753  1.2170  1.1962
20407SOL    HW262896   9.105   8.439   9.080  1.2630  0.9997 -1.0858
20408SOL     OW62897   0.712   5.480   2.422  0.2415  0.0566 -0.4069
20408SOL    HW162898   0.673   5.398   2.453 -0.2835  0.9588  1.4571
20408SOL    HW262899   0.638   5.540   2.414  0.6423  0.4191 -1.6122
20409SOL     OW62900   5.565   0.020   5.758 -0.0818 -0.2768  0.1990
20409SOL    HW162901   5.476   0.052   5.743 -0.1098 -0.4450 -0.0033
20409SOL    HW262902   5.554  -0.060   5.809 -0.1592 -1.1901 -1.1721
20410SOL     OW62903   4.616   6.025   6.577 -0.3517 -0.5725 -0.0663
20410SOL    HW162904   4.626   6.083   6.501 -1.1518  0.5131  0.6424
20410SOL    HW262905   4.701   6.026   6.620 -0.7929  1.4028  0.8508
20411SOL     OW62906   5.059   7.442   4.274 -0.2509  0.2815 -0.4328
20411SOL    HW162907   5.074   7.525   4.229  1.4753 -1.2238 -2.8600
20411SOL    HW262908   5.116   7.445   4.350 -0.5618  1.4973 -0.2289
20412SOL     OW62909   3.613   5.199   7.059  0.0581 -0.4517  0.0721
20412SOL    HW162910   3.644   5.173   7.146  0.8827  3.2212  1.0394
20412SOL    HW262911   3.518   5.187   7.062  0.3270 -3.6389  0.1153
20413SOL     OW62912   4.698   5.775   6.811  0.2207  0.8272 -0.8110
20413SOL    HW162913   4.604   5.791   6.809 -0.7262 -3.5387 -0.7687
20413SOL    HW262914   4.721   5.760   6.719  0.2091 -0.8420 -0.5679
20414SOL     OW62915   5.759   1.092   4.491 -0.0304 -0.2402 -0.1053
20414SOL    HW162916   5.732   1.059   4.405  0.0532  0.6950 -0.5091
20414SOL    HW262917   5.683   1.140   4.524  0.4467  0.7412 -0.3762
20415SOL     OW62918   5.107   5.330   7.913  0.2493  0.0131  0.2666
20415SOL    HW162919   5.180   5.392   7.912  1.4355 -1.1943  2.5712
20415SOL    HW262920   5.081   5.322   7.821  1.0867  2.6500 -0.2902
20416SOL     OW62921   9.436   3.979   8.423  0.4354  0.5740 -0.2828
20416SOL    HW162922   9.408   3.970   8.514  1.9628  1.5398  0.3379
20416SOL    HW262923   9.383   4.050   8.388 -1.7414 -1.2535 -0.8865
20417SOL     OW62924   1.941   5.833   3.728 -0.0627  0.0762 -0.1327
20417SOL    HW162925   1.870   5.779   3.693  2.3220 -3.0012 -0.6313
20417SOL    HW262926   1.968   5.888   3.655 -0.3422 -0.5469 -0.7128
20418SOL     OW62927   3.884   6.098   6.823  1.0789  0.4307 -0.2845
20418SOL    HW162928   3.902   6.190   6.801 -0.1236  0.6400 -0.4468
20418SOL    HW262929   3.789   6.090   6.817  1.1873 -0.8848 -0.4573
20419SOL     OW62930   4.557   8.737   3.581  0.3010  0.1017  0.0190
20419SOL    HW162931   4.520   8.785   3.655  0.7674 -1.4943  1.3776
20419SOL    HW262932   4.634   8.694   3.618 -0.9163 -2.9027 -0.6408
20420SOL     OW62933   8.445   0.271   1.847 -0.0643 -0.0850  0.1160
20420SOL    HW162934   8.361   0.307   1.819 -0.5402 -0.2545  1.2997
20420SOL    HW262935   8.486   0.242   1.766 -0.7622  0.7949 -0.5808
20421SOL     OW62936   3.555   2.127   2.281 -0.4039 -0.2975  0.5200
20421SOL    HW162937   3.482   2.185   2.303  1.2050  2.0003  0.0906
20421SOL    HW262938   3.550   2.119   2.185 -1.0658 -1.5345  0.6431
20422SOL     OW62939   6.454   2.759   1.697  0.4384  0.4978 -0.4791
20422SOL    HW162940   6.491   2.767   1.785 -1.2279  2.2534  0.1263
20422SOL    HW262941   6.484   2.838   1.652 -0.2449  0.5302 -0.8809
20423SOL     OW62942   6.932   5.104   2.067  0.0871  0.0514 -0.2417
20423SOL    HW162943   6.938   5.199   2.063  1.8362 -0.0449 -0.6385
20423SOL    HW262944   6.941   5.075   1.976  2.1486 -0.5598  0.0912
20424SOL     OW62945   9.437   4.834   7.721  0.5762 -0.4680  0.0947
20424SOL    HW162946   9.425   4.922   7.686  0.3187 -0.1023  1.0719
20424SOL    HW262947   9.531   4.828   7.739  0.3338  0.3435  1.8514
20425SOL     OW62948   5.106   1.066   2.519  0.8487  0.0137  0.2004
20425SOL    HW162949   5.121   1.057   2.613  0.0438  0.3560  0.3719
20425SOL    HW262950   5.156   1.144   2.495  0.4354  0.3779  0.5012
20426SOL     OW62951   9.322   0.159   0.717 -0.7583  0.1176 -0.3036
20426SOL    HW162952   9.356   0.247   0.731  1.7695 -0.6951 -0.9438
20426SOL    HW262953   9.330   0.145   0.623 -0.3360 -1.1030 -0.0935
20427SOL     OW62954   2.023   7.632   5.203  0.0330 -0.7233  0.1040
20427SOL    HW162955   1.995   7.715   5.165 -1.0555 -0.1253  2.0790
20427SOL    HW262956   2.041   7.576   5.127  2.0974  1.6600 -1.3264
20428SOL     OW62957   6.200   7.843   2.305 -0.1953  0.6649 -0.2119
20428SOL    HW162958   6.288   7.819   2.334 -0.9330 -1.0727  0.7800
20428SOL    HW262959   6.209   7.858   2.211  1.1402  0.4736 -0.1356
20429SOL     OW62960   3.752   7.381   6.679  0.1455 -0.1975  0.3399
20429SOL    HW162961   3.705   7.464   6.674  0.2107 -0.2235 -1.5827
20429SOL    HW262962   3.758   7.352   6.588 -0.0228 -2.3995  0.9756
20430SOL     OW62963   1.102   2.952   8.040  0.0542  0.5727 -0.3688
20430SOL    HW162964   1.143   2.867   8.022  0.0900  0.2142  1.2167
20430SOL    HW262965   1.154   2.988   8.112  0.1507  2.0494 -1.1456
20431SOL     OW62966   6.632   1.992   6.184  0.2394  0.0851  0.6197
20431SOL    HW162967   6.546   2.033   6.175 -0.0729 -0.2924  1.7453
20431SOL    HW262968   6.666   1.987   6.095 -1.1456 -0.2614  0.0928
20432SOL     OW62969   8.116   5.762   5.736  0.1623 -0.6597  0.1608
20432SOL    HW162970   8.091   5.787   5.648 -0.0302 -0.3906  0.2888
20432SOL    HW262971   8.045   5.706   5.767 -0.5892  0.5497  0.7259
20433SOL     OW62972   2.201   7.691   5.700  0.5859  0.2705 -0.3193
20433SOL    HW162973   2.155   7.676   5.617  0.3154  0.0388 -0.1270
20433SOL    HW262974   2.145   7.752   5.748 -0.2570 -1.1148  0.5197
20434SOL     OW62975   6.207   7.181   1.934  0.4496 -0.2947 -0.2747
20434SOL    HW162976   6.252   7.182   1.849  1.1509  1.0982  0.0703
20434SOL    HW262977   6.247   7.253   1.982 -3.1790  2.1716 -0.5100
20435SOL     OW62978   7.359   7.082   5.704 -0.0874 -0.4404  0.1470
20435SOL    HW162979   7.451   7.064   5.723  0.4090  0.0068 -1.6522
20435SOL    HW262980   7.313   7.003   5.732  0.8037 -0.6056  1.2301
20436SOL     OW62981   9.025   8.332   0.852 -0.3827 -0.3019 -0.1270
20436SOL    HW162982   8.981   8.330   0.767 -1.4094 -0.3398  0.3879
20436SOL    HW262983   8.969   8.388   0.906  1.0984  1.0390  0.0812
20437SOL     OW62984   6.978   6.442   6.540 -0.1037  0.1525 -0.0665
20437SOL    HW162985   6.988   6.490   6.459  1.7244  1.4392  0.8652
20437SOL    HW262986   6.986   6.350   6.515 -1.2705  0.4226 -1.5354
20438SOL     OW62987   9.051   3.820   5.517 -0.4514  0.5114  0.0066
20438SOL    HW162988   8.987   3.779   5.460  1.4890 -1.0088 -1.1938
20438SOL    HW262989   9.039   3.778   5.602  0.8917 -2.0112 -0.9709
20439SOL     OW62990   4.670   0.541   5.621  0.5401  0.2160  0.3836
20439SOL    HW162991   4.760   0.536   5.589  0.0910 -1.4452 -0.7492
20439SOL    HW262992   4.632   0.615   5.574  1.0502  0.3055  0.1044
20440SOL     OW62993   9.327   1.539   0.002  0.6099  0.0313  0.2287
20440SOL    HW162994   9.358   1.480  -0.067 -0.5465 -0.1539 -0.1501
20440SOL    HW262995   9.235   1.518   0.013  0.2918  1.4101  0.4607
20441SOL     OW62996   7.795   8.237   5.202  0.6382  0.4543 -0.3241
20441SOL    HW162997   7.803   8.145   5.177 -0.2139  0.6237 -1.2722
20441SOL    HW262998   7.846   8.244   5.283  0.4682 -0.9156 -0.0724
20442SOL     OW62999   9.572   0.513   5.336  0.6632 -0.2813 -0.4233
20442SOL    HW163000   9.568   0.588   5.277  0.8697  0.6657  0.7312
20442SOL    HW263001   9.637   0.455   5.296  2.6321  1.4510  0.0635
20443SOL     OW63002   3.832   8.953   1.741  0.9248 -0.1496 -0.4586
20443SOL    HW163003   3.853   8.863   1.714  2.3333  0.2037 -0.6595
20443SOL    HW263004   3.848   8.954   1.835 -0.6111 -0.4869 -0.1697
20444SOL     OW63005   0.648   7.149   1.664 -0.0544 -0.1691 -0.6466
20444SOL    HW163006   0.648   7.224   1.723  1.6209  1.3266 -2.4018
20444SOL    HW263007   0.570   7.161   1.610 -0.3098 -0.2354 -0.2961
20445SOL     OW63008   8.511   8.162   1.150  0.3917  0.2941  0.4060
20445SOL    HW163009   8.586   8.189   1.096 -0.1971  1.0927 -0.0269
20445SOL    HW263010   8.446   8.130   1.087  0.2505 -0.1256  0.7595
20446SOL     OW63011   6.997   0.016   2.841  0.3195  0.0450 -0.1050
20446SOL    HW163012   7.045   0.050   2.917  0.1398 -1.4751  0.7082
20446SOL    HW263013   6.967   0.095   2.795  1.4217  0.9981  0.7551
20447SOL     OW63014   6.856   2.312   6.694 -0.1390 -0.4297  0.2693
20447SOL    HW163015   6.836   2.299   6.786 -1.3422 -0.9445 -0.0511
20447SOL    HW263016   6.950   2.331   6.692 -0.6573  2.9349  1.9074
20448SOL     OW63017   8.419   6.539   0.900 -0.3384 -0.0519 -0.7188
20448SOL    HW163018   8.439   6.457   0.944  2.3881  0.1326 -1.4301
20448SOL    HW263019   8.370   6.513   0.822  0.9458 -1.1149 -1.2195
20449SOL     OW63020   2.814   5.239   6.155  0.4137  0.1370 -0.6318
20449SOL    HW163021   2.868   5.160   6.155  2.2900  1.3146  1.7480
20449SOL    HW263022   2.861   5.300   6.098 -0.0897  0.1681 -1.0270
20450SOL     OW63023   0.741   3.039   1.521 -0.0928 -0.1188  0.2610
20450SOL    HW163024   0.802   3.106   1.549  0.0817 -0.0553 -0.2669
20450SOL    HW263025   0.793   2.958   1.518 -0.1785 -0.1803  0.3865
20451SOL     OW63026   0.016   4.455   4.965 -0.9451  0.2215  0.2154
20451SOL    HW163027  -0.068   4.418   4.937  0.6215 -1.0188 -3.4885
20451SOL    HW263028   0.023   4.537   4.917  0.2909 -0.0907 -0.1622
20452SOL     OW63029   4.360   2.978   8.101  0.2119 -0.0364 -0.4804
20452SOL    HW163030   4.294   3.007   8.038 -0.0230 -1.9885 -1.2002
20452SOL    HW263031   4.443   3.005   8.063 -0.0064 -0.1715 -1.0622
20453SOL     OW63032   8.843   5.523   4.687  0.1969  0.0528 -0.2163
20453SOL    HW163033   8.874   5.599   4.638 -2.6010  1.1063 -0.5422
20453SOL    HW263034   8.826   5.457   4.620  0.9477 -0.2507 -0.1168
20454SOL     OW63035   3.812   5.242   5.234  0.1351  0.1293  0.3433
20454SOL    HW163036   3.864   5.315   5.200 -0.9277 -0.0833 -1.9259
20454SOL    HW263037   3.746   5.284   5.289 -1.0602  1.0908 -1.6790
20455SOL     OW63038   6.315   9.595   8.353  0.0952 -0.3151 -0.2647
20455SOL    HW163039   6.379   9.567   8.418  0.1701 -0.4458 -0.3952
20455SOL    HW263040   6.367   9.637   8.285  0.1138 -1.0611 -0.7204
20456SOL     OW63041   8.290   9.440   4.782  0.0566 -0.8406 -0.1559
20456SOL    HW163042   8.296   9.401   4.695 -1.9282  0.2405 -0.8526
20456SOL    HW263043   8.257   9.369   4.837  2.2483 -1.8128 -0.0166
20457SOL     OW63044   8.893   2.827   8.151 -0.1709  0.6895  0.2656
20457SOL    HW163045   8.920   2.912   8.115  0.0444  1.2048  1.6139
20457SOL    HW263046   8.798   2.835   8.160  0.1399  2.0818  3.4739
20458SOL     OW63047   4.193   9.653   6.406 -0.2543 -0.2228  0.4952
20458SOL    HW163048   4.207   9.688   6.318  0.6816  1.2222  1.1656
20458SOL    HW263049   4.133   9.580   6.394  1.0772 -1.0809 -1.5222
20459SOL     OW63050   8.541   4.809   7.190 -0.0191  0.3997  0.0132
20459SOL    HW163051   8.633   4.781   7.197  0.0796  0.7118 -0.0007
20459SOL    HW263052   8.511   4.773   7.106 -0.2773 -0.7378  0.5743
20460SOL     OW63053   9.425   0.284   2.153 -0.1006 -0.1663 -0.4341
20460SOL    HW163054   9.516   0.313   2.156  0.7357 -2.5951  0.2744
20460SOL    HW263055   9.409   0.266   2.060  0.1382  0.2449 -0.5573
20461SOL     OW63056   3.968   9.535   2.925 -0.0555 -0.1259  0.1883
20461SOL    HW163057   3.957   9.617   2.878  0.5750  1.0258  1.9720
20461SOL    HW263058   4.053   9.542   2.968 -0.5762 -1.1217  1.4701
20462SOL     OW63059   3.958   9.448   0.552 -0.3331 -0.4213 -0.1810
20462SOL    HW163060   4.009   9.372   0.525  0.5036  0.1975 -0.3750
20462SOL    HW263061   3.867   9.422   0.536 -0.0576 -1.3389 -0.3439
20463SOL     OW63062   8.129   5.284   6.509  0.1984 -1.0066  0.0096
20463SOL    HW163063   8.164   5.216   6.453 -0.3102 -0.9659 -0.3683
20463SOL    HW263064   8.081   5.237   6.577  0.2461 -1.0396  0.0200
20464SOL     OW63065   3.683   9.080   1.384 -0.0595 -0.2110 -0.0424
20464SOL    HW163066   3.707   9.172   1.396  1.5183 -0.5461 -0.3841
20464SOL    HW263067   3.590   9.081   1.363  0.1909  1.4088 -1.2164
20465SOL     OW63068   7.677   1.378   3.002 -0.0813  0.4885  0.3519
20465SOL    HW163069   7.702   1.390   2.911  2.0330  1.7670  1.0208
20465SOL    HW263070   7.628   1.296   3.003 -1.7510  1.3204 -2.1714
20466SOL     OW63071   4.084   2.855   5.306 -0.1425 -0.2283  0.0244
20466SOL    HW163072   4.079   2.818   5.218 -1.7726 -0.2140  0.0854
20466SOL    HW263073   4.083   2.949   5.293 -0.0447 -0.2265  0.0339
20467SOL     OW63074   8.563   7.185   4.966 -0.3983  0.5208  0.2026
20467SOL    HW163075   8.497   7.118   4.946  0.7202 -0.2194 -1.1788
20467SOL    HW263076   8.598   7.210   4.881  2.4957 -0.5749  0.9681
20468SOL     OW63077   7.325   1.067   0.523 -0.1941 -0.2430  0.1821
20468SOL    HW163078   7.371   1.001   0.471  1.2140  1.1620 -0.4445
20468SOL    HW263079   7.368   1.063   0.609 -0.1974 -0.2368  0.1839
20469SOL     OW63080   4.122   3.559   7.442 -0.3385  0.6106 -0.0121
20469SOL    HW163081   4.187   3.528   7.379  1.0147  1.0900  1.0910
20469SOL    HW263082   4.164   3.549   7.527 -2.0564  0.1317  0.8349
20470SOL     OW63083   5.309   1.296   4.259  1.0421 -0.2812  0.6376
20470SOL    HW163084   5.290   1.306   4.352 -1.4975 -1.7617  0.3825
20470SOL    HW263085   5.282   1.379   4.220  1.8742  0.2475  1.1710
20471SOL     OW63086   0.070   7.259   6.465 -0.2395 -0.4041 -0.0218
20471SOL    HW163087   0.105   7.183   6.510 -0.0793 -0.6963 -0.6326
20471SOL    HW263088   0.136   7.328   6.479 -0.0983 -0.5465  0.0134
20472SOL     OW63089   4.475   2.571   5.846 -0.6046 -0.0351 -0.2001
20472SOL    HW163090   4.461   2.632   5.773 -1.6958  0.4595  0.3959
20472SOL    HW263091   4.541   2.510   5.814 -1.6596 -0.3468 -1.9250
20473SOL     OW63092   9.615   9.458   5.247 -0.4037  0.4569  0.2945
20473SOL    HW163093   9.578   9.448   5.334 -0.1832 -1.4834  0.2131
20473SOL    HW263094   9.663   9.377   5.232 -0.8245  0.5421 -1.8261
20474SOL     OW63095   1.366   8.425   0.290 -0.3364  0.0672  0.5378
20474SOL    HW163096   1.274   8.409   0.307 -0.6579  0.9065 -0.3536
20474SOL    HW263097   1.369   8.456   0.199  0.9229 -0.8470  0.2292
20475SOL     OW63098   5.854   1.000   7.263 -0.1247  0.0761 -0.1478
20475SOL    HW163099   5.941   0.979   7.297  0.0182  1.9662  0.7806
20475SOL    HW263100   5.796   0.988   7.338 -0.5098 -0.1683 -0.4839
20476SOL     OW63101   7.029   7.025   6.387  0.3142 -0.1988  0.3752
20476SOL    HW163102   7.096   6.994   6.327  0.9519  3.0804 -0.7797
20476SOL    HW263103   7.075   7.087   6.444 -1.2597  0.3548  1.0848
20477SOL     OW63104   5.983   5.405   7.487  0.0230 -0.6149  0.6817
20477SOL    HW163105   5.973   5.453   7.569  0.6156 -1.2495  1.1409
20477SOL    HW263106   5.937   5.458   7.422  1.0570  0.8275  1.0596
20478SOL     OW63107   4.834   8.855   4.266  0.0717  0.2740 -0.0136
20478SOL    HW163108   4.863   8.869   4.176 -1.2761  1.2877 -0.3192
20478SOL    HW263109   4.844   8.940   4.308 -2.7744  0.8490 -0.2757
20479SOL     OW63110   7.717   1.095   0.757  0.4849 -0.5063 -0.0885
20479SOL    HW163111   7.782   1.073   0.690 -0.0715 -2.0570 -0.1751
20479SOL    HW263112   7.758   1.069   0.840  0.2624 -0.8353 -0.0768
20480SOL     OW63113   0.810   6.206   5.686 -0.0105 -0.2485 -0.2426
20480SOL    HW163114   0.867   6.276   5.656  0.5615 -1.0350 -1.0453
20480SOL    HW263115   0.858   6.165   5.758 -0.1693 -0.0639 -0.0312
20481SOL     OW63116   7.905   7.679   6.732 -0.3205  0.4737 -0.1743
20481SOL    HW163117   7.819   7.720   6.745  0.4521  1.8451  0.8608
20481SOL    HW263118   7.908   7.660   6.638 -1.3051  1.4656 -0.4340
20482SOL     OW63119   4.084   1.006   8.639 -0.1057  0.2430  0.5141
20482SOL    HW163120   4.070   0.983   8.731  0.1521  2.2254  1.0938
20482SOL    HW263121   4.016   1.070   8.619  0.7718  0.9838 -0.2110
20483SOL     OW63122   4.009   0.365   3.372 -0.0779  0.1169 -0.0322
20483SOL    HW163123   4.023   0.438   3.433 -1.2202  2.3868 -2.2794
20483SOL    HW263124   3.914   0.354   3.370  0.0741 -1.4210  0.1741
20484SOL     OW63125   1.226   4.178   7.263 -0.2622  0.3371  0.0166
20484SOL    HW163126   1.229   4.129   7.180 -1.7104 -1.8102  1.1542
20484SOL    HW263127   1.175   4.257   7.242  1.5900  1.1623 -1.7089
20485SOL     OW63128   4.033   2.083   6.254  0.6501 -0.2496 -0.1109
20485SOL    HW163129   4.066   2.064   6.166 -0.0988 -0.3761 -0.3772
20485SOL    HW263130   4.010   1.997   6.290  1.7061 -0.2753  0.5242
20486SOL     OW63131   5.682   3.997   8.332  0.4999 -0.0948 -0.4026
20486SOL    HW163132   5.750   4.060   8.357  1.4265 -0.4607 -1.9060
20486SOL    HW263133   5.693   3.925   8.394  0.7814  0.3062  0.0210
20487SOL     OW63134   4.259   7.501   6.588  0.3145 -0.1252  0.1098
20487SOL    HW163135   4.325   7.505   6.657  0.9045  0.6079 -0.4805
20487SOL    HW263136   4.181   7.543   6.626  0.7140  0.5038  0.2458
20488SOL     OW63137   4.485   1.528   3.365 -0.0370  0.7378  0.6084
20488SOL    HW163138   4.548   1.575   3.310 -0.2900 -0.5799 -0.8851
20488SOL    HW263139   4.408   1.518   3.308 -0.0223 -1.3524  0.9005
20489SOL     OW63140   0.214   3.649   0.405  0.2650  0.3540 -0.0493
20489SOL    HW163141   0.248   3.653   0.316 -0.3579 -4.5584 -0.8063
20489SOL    HW263142   0.123   3.679   0.398  0.3304  0.3654 -0.9664
20490SOL     OW63143   4.379   7.010   6.632 -0.5583  0.0859  0.2049
20490SOL    HW163144   4.306   7.058   6.670  0.9695  0.9522  2.2985
20490SOL    HW263145   4.419   7.072   6.570 -0.5593  0.2869  0.4034
20491SOL     OW63146   2.015   9.491   2.172 -0.2711  0.1257 -0.0842
20491SOL    HW163147   2.049   9.464   2.258  0.0966 -0.4590 -0.4005
20491SOL    HW263148   1.967   9.414   2.140  2.0730 -0.8075 -1.6655
20492SOL     OW63149   4.783   6.175   6.347  0.0066 -0.2535  0.0195
20492SOL    HW163150   4.835   6.110   6.394 -0.8690  0.2470  1.7802
20492SOL    HW263151   4.782   6.251   6.405 -1.5830  0.2061 -0.5495
20493SOL     OW63152   8.273   7.728   3.231  0.1743 -0.2789 -0.2814
20493SOL    HW163153   8.234   7.727   3.143  2.8251 -2.8475 -1.6278
20493SOL    HW263154   8.315   7.813   3.238  1.9847 -0.8634 -2.6535
20494SOL     OW63155   2.906   0.545   1.287  0.1805 -0.3128 -0.0950
20494SOL    HW163156   2.903   0.457   1.323  0.0021 -0.3675 -0.2421
20494SOL    HW263157   2.925   0.533   1.194 -2.0128 -0.3360 -0.6064
20495SOL     OW63158   8.706   4.504   3.525  0.4141 -0.8883  0.1680
20495SOL    HW163159   8.736   4.541   3.608 -0.7355  0.8222 -0.1332
20495SOL    HW263160   8.720   4.410   3.534  1.4850 -0.6101  1.7969
20496SOL     OW63161   3.749   2.316   2.332 -0.0383 -0.4142 -0.4054
20496SOL    HW163162   3.686   2.384   2.308 -1.0266 -1.6798 -1.6225
20496SOL    HW263163   3.695   2.239   2.350  1.1172 -1.3657 -0.8717
20497SOL     OW63164   4.167   7.810   9.127 -0.7632 -0.0626  0.2651
20497SOL    HW163165   4.226   7.768   9.190 -1.2551 -0.6016  0.3738
20497SOL    HW263166   4.084   7.819   9.174 -0.4170  1.9220  0.5813
20498SOL     OW63167   4.096   5.497   2.615 -0.4812  0.2131 -0.0969
20498SOL    HW163168   4.124   5.410   2.588 -0.2882  0.3428 -0.3248
20498SOL    HW263169   4.022   5.517   2.557  1.2169  1.3330 -2.0147
20499SOL     OW63170   7.681   9.340   7.818 -0.0372 -0.2704 -0.5471
20499SOL    HW163171   7.658   9.431   7.840  1.3209  0.0678 -0.4631
20499SOL    HW263172   7.774   9.334   7.836  0.7861 -0.5611 -4.1657
20500SOL     OW63173   6.371   2.560   4.230  0.3876  0.0060  0.0151
20500SOL    HW163174   6.355   2.573   4.136 -1.2228  0.4728  0.3278
20500SOL    HW263175   6.300   2.503   4.258 -0.3189  1.4827  1.3452
20501SOL     OW63176   5.815   5.323   5.677  0.1992 -0.0047  0.2104
20501SOL    HW163177   5.865   5.331   5.595 -1.1346 -1.3334 -0.7945
20501SOL    HW263178   5.808   5.413   5.709  0.1433  0.6592 -1.5241
20502SOL     OW63179   8.480   0.092   0.797 -0.1718  0.6356  0.1974
20502SOL    HW163180   8.493   0.032   0.724 -0.4851  0.5635  0.2003
20502SOL    HW263181   8.449   0.173   0.756  0.0961  0.7425  0.2079
20503SOL     OW63182   6.886   4.847   0.654 -0.0553 -0.8948  0.1314
20503SOL    HW163183   6.960   4.789   0.672  0.2642 -0.9020 -1.0837
20503SOL    HW263184   6.865   4.831   0.561  1.0003  1.9728 -0.7052
20504SOL     OW63185   7.337   9.449   6.389 -0.4217 -0.0460 -0.6547
20504SOL    HW163186   7.388   9.496   6.455 -0.0521  2.0702 -2.3207
20504SOL    HW263187   7.248   9.484   6.397 -0.2635  0.6011 -1.5627
20505SOL     OW63188   3.146   8.475   1.483 -0.3162 -0.1991 -0.0211
20505SOL    HW163189   3.201   8.425   1.542  2.8660  1.8684 -0.9324
20505SOL    HW263190   3.126   8.556   1.531  0.6726  0.6571 -0.9753
20506SOL     OW63191   0.377   5.871   8.746 -0.1717  0.0559 -0.0625
20506SOL    HW163192   0.289   5.905   8.763 -0.8486 -0.6191 -1.9845
20506SOL    HW263193   0.399   5.821   8.825 -2.2020 -1.1129 -0.1645
20507SOL     OW63194   7.959   3.088   8.812  0.3334  0.1137 -0.4679
20507SOL    HW163195   7.933   3.130   8.729  1.3932  0.2261 -0.7551
20507SOL    HW263196   8.053   3.107   8.820  0.8198 -2.0868 -0.5391
20508SOL     OW63197   6.310   9.002   8.137 -0.0527 -0.0688 -0.5186
20508SOL    HW163198   6.274   8.913   8.141  0.5791 -0.3300 -0.4846
20508SOL    HW263199   6.361   9.012   8.217 -1.5353  0.9718  0.3286
20509SOL     OW63200   9.028   7.889   7.214  0.1975  0.2335  0.5535
20509SOL    HW163201   9.085   7.827   7.169  0.9458  0.0588  1.6963
20509SOL    HW263202   8.945   7.842   7.224 -0.1421  0.4607 -1.0536
20510SOL     OW63203   7.283   4.511   9.207 -0.4300  0.3695  0.0389
20510SOL    HW163204   7.332   4.445   9.158 -0.1210  0.2556  0.4953
20510SOL    HW263205   7.214   4.539   9.147 -0.4439 -0.2299 -0.2294
20511SOL     OW63206   4.257   0.586   7.308 -0.2543  0.5826 -0.4123
20511SOL    HW163207   4.231   0.662   7.257 -0.0127  2.2474  1.7973
20511SOL    HW263208   4.271   0.620   7.397 -1.5531 -2.2825  1.0246
20512SOL     OW63209   7.296   7.435   5.366 -0.1855  0.1831 -0.6110
20512SOL    HW163210   7.386   7.455   5.340 -0.0672  0.7438  0.2021
20512SOL    HW263211   7.293   7.339   5.367  0.8499  0.1241  0.7836
20513SOL     OW63212   0.298   1.200   5.141  0.0398 -0.2952  0.1368
20513SOL    HW163213   0.359   1.128   5.160  2.6225  1.3226 -1.3307
20513SOL    HW263214   0.336   1.276   5.186 -0.7895  0.8273 -0.9885
20514SOL     OW63215   5.183   8.178   5.528  0.2317  0.2645  0.2038
20514SOL    HW163216   5.133   8.103   5.563 -0.8268  1.5409  1.5569
20514SOL    HW263217   5.273   8.146   5.524 -0.4818 -1.7797 -1.3024
20515SOL     OW63218   1.745   0.195   8.663 -0.3586 -0.3154 -0.0192
20515SOL    HW163219   1.769   0.220   8.753  0.3301  1.1848 -0.5853
20515SOL    HW263220   1.825   0.206   8.613 -0.1400 -3.2716 -0.4728
20516SOL     OW63221   1.099   6.761   3.837 -0.1667 -0.1058 -0.2999
20516SOL    HW163222   1.172   6.741   3.778 -0.0583  1.6394 -0.8159
20516SOL    HW263223   1.126   6.725   3.921  0.8548 -0.3495 -0.7109
20517SOL     OW63224   1.623   0.442   7.660  0.5704  0.3375  0.1287
20517SOL    HW163225   1.622   0.411   7.750  0.4075  0.3425  0.1296
20517SOL    HW263226   1.538   0.415   7.624  0.0998  1.4195  0.3548
20518SOL     OW63227   2.908   7.474   0.810  0.0845  0.2263  0.0495
20518SOL    HW163228   2.974   7.539   0.837 -1.8581  2.7501 -0.8134
20518SOL    HW263229   2.884   7.501   0.721 -2.7332  0.0106  0.6647
20519SOL     OW63230   0.406   4.204   8.660 -0.4681 -0.3609  0.4070
20519SOL    HW163231   0.460   4.125   8.653  2.7504  1.7071 -0.1284
20519SOL    HW263232   0.327   4.174   8.705  0.1126 -4.0538 -0.6548
20520SOL     OW63233   0.655   7.168   0.779  0.3417  0.7054  0.2747
20520SOL    HW163234   0.726   7.143   0.721  1.0890  1.4562  0.8413
20520SOL    HW263235   0.628   7.255   0.750 -2.4691 -0.7043 -1.8968
20521SOL     OW63236   1.030   5.178   4.517 -0.0974 -0.0145 -0.3116
20521SOL    HW163237   0.950   5.175   4.463 -1.3859  0.9445  1.4302
20521SOL    HW263238   1.005   5.230   4.593  1.9264 -0.5543  0.7897
20522SOL     OW63239   7.475   2.584   7.677  0.4059 -0.4973  0.1970
20522SOL    HW163240   7.423   2.551   7.751  0.5034  1.9399  1.4521
20522SOL    HW263241   7.471   2.679   7.686  1.6947 -0.1714 -2.1009
20523SOL     OW63242   0.487   5.230   1.497 -0.1701 -0.0484  0.4757
20523SOL    HW163243   0.530   5.225   1.412 -0.2625 -1.8378  0.5037
20523SOL    HW263244   0.401   5.190   1.482 -0.6590  0.7270  1.1331
20524SOL     OW63245   4.974   0.787   4.324 -0.0112 -0.3841  0.0905
20524SOL    HW163246   4.987   0.843   4.248 -0.9714  1.8701  1.4781
20524SOL    HW263247   4.894   0.739   4.304  0.4662 -0.8241 -0.8487
20525SOL     OW63248   0.719   0.604   5.425 -0.4168 -0.2324 -0.2935
20525SOL    HW163249   0.788   0.548   5.462 -0.6563  0.3602  1.1170
20525SOL    HW263250   0.649   0.543   5.402 -1.4813 -0.4600  3.0253
20526SOL     OW63251   1.400   6.031   0.002  0.2052 -0.5585  0.1590
20526SOL    HW163252   1.328   6.094  -0.005 -0.2986 -1.1277  0.1342
20526SOL    HW263253   1.458   6.069   0.068  1.0220  0.9906 -1.3395
20527SOL     OW63254   8.549   7.324   2.030 -0.1751 -0.0229 -0.4582
20527SOL    HW163255   8.636   7.288   2.013  1.1810  2.6264  0.3328
20527SOL    HW263256   8.541   7.326   2.126 -0.8355  0.3197 -0.5092
20528SOL     OW63257   5.854   0.960   3.213  0.0677 -0.2601 -0.1448
20528SOL    HW163258   5.919   0.911   3.162  0.1819 -1.9077  1.4746
20528SOL    HW263259   5.905   1.026   3.260  0.5511 -1.3034  0.8353
20529SOL     OW63260   4.152   8.422   5.477 -0.3379 -0.0621 -0.2159
20529SOL    HW163261   4.237   8.424   5.520 -0.2997 -2.8513  0.0532
20529SOL    HW263262   4.088   8.427   5.549 -0.3376 -0.5732 -0.1747
20530SOL     OW63263   3.930   0.961   1.757  0.0804  0.0859  0.3716
20530SOL    HW163264   4.004   1.007   1.798 -0.4077  0.0692  1.2945
20530SOL    HW263265   3.877   1.031   1.719 -0.4912  0.2902  1.4938
20531SOL     OW63266   8.334   9.066   0.771  0.3583 -0.3281  0.1121
20531SOL    HW163267   8.303   9.114   0.694  0.1769 -2.7722 -1.4605
20531SOL    HW263268   8.422   9.100   0.786 -0.1850  1.3197 -0.1362
20532SOL     OW63269   9.286   9.649   0.902 -0.1530 -0.0835 -0.1195
20532SOL    HW163270   9.366   9.603   0.927 -0.4271 -0.9350 -0.7788
20532SOL    HW263271   9.314   9.710   0.833 -0.1311 -0.6575 -0.6269
20533SOL     OW63272   7.756   8.220   2.054 -0.7294  0.4313  0.5284
20533SOL    HW163273   7.780   8.257   1.969  0.3658 -1.5308 -0.0774
20533SOL    HW263274   7.696   8.148   2.033  1.9879 -2.1693  1.0184
20534SOL     OW63275   6.396   4.914   4.451 -0.4031  0.8172 -0.4966
20534SOL    HW163276   6.316   4.868   4.425 -0.9022  1.4658 -0.1398
20534SOL    HW263277   6.403   4.988   4.391 -0.5629  1.2678  0.0291
20535SOL     OW63278   3.937   5.957   7.632  0.0899  0.6712 -0.1473
20535SOL    HW163279   3.887   5.893   7.683  0.4521  1.0234  0.6811
20535SOL    HW263280   3.910   5.943   7.541 -0.5365 -0.0111  0.1359
20536SOL     OW63281   0.058   0.616   1.466  0.7851  0.3317 -0.0828
20536SOL    HW163282  -0.023   0.634   1.514  1.3346  0.1834  0.9168
20536SOL    HW263283   0.127   0.656   1.519  1.2705  1.5729 -1.5463
20537SOL     OW63284   8.098   7.858   5.632  0.0408 -0.5928 -0.0825
20537SOL    HW163285   8.072   7.881   5.721 -1.6347 -0.2300 -0.6353
20537SOL    HW263286   8.180   7.810   5.643  0.6030  0.6459  1.5310
20538SOL     OW63287   4.130   4.718   6.694  0.0142 -0.1460  0.0118
20538SOL    HW163288   4.110   4.764   6.775  0.1517  1.3295 -0.7536
20538SOL    HW263289   4.159   4.787   6.634  2.5765 -1.5370 -0.4663
20539SOL     OW63290   8.378   0.189   1.081  0.1954  0.2977 -0.2193
20539SOL    HW163291   8.334   0.257   1.030  1.7256  0.4865 -1.3623
20539SOL    HW263292   8.457   0.168   1.031  1.0675 -0.5088  1.3886
20540SOL     OW63293   9.437   9.143   4.729 -0.1674 -0.4295 -0.0378
20540SOL    HW163294   9.455   9.051   4.709  0.4618 -0.0774 -1.1670
20540SOL    HW263295   9.522   9.185   4.729 -0.0755 -0.3371  3.4835
20541SOL     OW63296   2.934   2.742   4.940 -0.5727  0.4491  0.1251
20541SOL    HW163297   2.917   2.817   4.882 -1.8660  0.3085  0.2923
20541SOL    HW263298   2.851   2.728   4.986 -0.6195 -1.5862 -0.4881
20542SOL     OW63299   8.315   7.720   1.910  0.1308 -0.5100  0.5147
20542SOL    HW163300   8.387   7.710   1.972  1.8402  1.4728 -1.0207
20542SOL    HW263301   8.260   7.789   1.948 -1.7218 -2.7731  2.2419
20543SOL     OW63302   8.459   9.585   7.988 -0.6767  0.0324 -0.4581
20543SOL    HW163303   8.374   9.628   7.997 -0.3352  0.7851 -0.7248
20543SOL    HW263304   8.488   9.572   8.078 -1.5298 -1.1828 -0.3414
20544SOL     OW63305   3.151   4.167   4.451  0.4675  0.2237  0.3388
20544SOL    HW163306   3.139   4.234   4.519 -0.5351  0.7337 -0.3171
20544SOL    HW263307   3.067   4.123   4.445  0.3019  0.6663 -1.0558
20545SOL     OW63308   5.402   4.609   7.523 -0.0121  0.5625  0.0828
20545SOL    HW163309   5.435   4.585   7.610  0.8022  0.6927 -0.1781
20545SOL    HW263310   5.481   4.616   7.469 -0.4485  1.2326 -0.4833
20546SOL     OW63311   4.322   1.263   0.344 -0.1517  0.7225 -0.4414
20546SOL    HW163312   4.399   1.301   0.301  0.7940  0.6338  1.0721
20546SOL    HW263313   4.358   1.218   0.421 -1.3308 -2.4850 -1.6181
20547SOL     OW63314   7.977   6.278   4.888  0.0281 -0.0475 -0.2906
20547SOL    HW163315   8.034   6.255   4.815  0.7905  0.0489  0.2711
20547SOL    HW263316   7.896   6.229   4.872  0.4553 -0.5819 -0.8111
20548SOL     OW63317   0.183   2.104   5.869 -0.0022  0.0866  0.1365
20548SOL    HW163318   0.176   2.159   5.791  1.5615  0.5099  0.2652
20548SOL    HW263319   0.277   2.101   5.888  0.1394 -3.5680 -0.5231
20549SOL     OW63320   8.161   3.443   3.102 -0.1835 -0.2674  0.0995
20549SOL    HW163321   8.124   3.400   3.180 -0.5993 -0.4837 -0.2083
20549SOL    HW263322   8.190   3.370   3.047 -1.1773 -0.1891 -0.5666
20550SOL     OW63323   4.584   0.319   7.732 -0.0065 -0.0875  0.2441
20550SOL    HW163324   4.621   0.251   7.790  0.1326 -0.9210 -0.7933
20550SOL    HW263325   4.493   0.292   7.719 -0.0586  0.1393  0.1407
20551SOL     OW63326   3.271   3.304   2.788 -0.1853  0.1931 -0.5152
20551SOL    HW163327   3.199   3.348   2.743  0.9706  1.3347 -1.2747
20551SOL    HW263328   3.293   3.363   2.860 -0.2230 -0.3282 -0.0702
20552SOL     OW63329   8.912   1.756   3.947  0.0345  0.1330 -0.5224
20552SOL    HW163330   8.990   1.718   3.987 -0.7531 -0.2323  0.7359
20552SOL    HW263331   8.840   1.700   3.976 -0.6988  0.3824 -1.7582
20553SOL     OW63332   8.812   3.691   4.819  0.3281  0.4569  0.1376
20553SOL    HW163333   8.767   3.751   4.878 -1.5342  0.3455 -1.0936
20553SOL    HW263334   8.872   3.746   4.769 -0.4710  1.1149 -0.1246
20554SOL     OW63335   0.598   5.811   8.933  0.4885 -0.2282  0.2614
20554SOL    HW163336   0.614   5.845   9.021  0.6440  1.5830 -0.4337
20554SOL    HW263337   0.685   5.803   8.894  0.3787 -0.4736  0.0620
20555SOL     OW63338   1.650   0.328   8.294 -0.1624  0.0560  0.4286
20555SOL    HW163339   1.705   0.257   8.327  2.2199  1.1709 -0.8661
20555SOL    HW263340   1.577   0.284   8.251  0.5002 -1.5546  0.8655
20556SOL     OW63341   0.020   0.855   4.789 -0.2682  0.3627  0.2803
20556SOL    HW163342  -0.058   0.902   4.757 -0.2950  0.3978  0.3965
20556SOL    HW263343  -0.011   0.765   4.801 -0.1197  0.2314 -0.3040
20557SOL     OW63344   4.971   3.030   0.799 -0.0643  0.0369 -0.1723
20557SOL    HW163345   5.039   3.020   0.866  1.6635  0.0645 -1.8613
20557SOL    HW263346   4.911   2.956   0.815  2.0702 -1.8724 -0.5588
20558SOL     OW63347   4.997   9.125   0.011  0.0711 -0.1137 -0.6978
20558SOL    HW163348   4.988   9.132  -0.084 -0.9689  1.0342 -0.5467
20558SOL    HW263349   4.946   9.198   0.045  0.8786 -0.1791  0.7392
20559SOL     OW63350   6.732   0.227   1.569  0.0557  0.2532 -0.1558
20559SOL    HW163351   6.744   0.132   1.560  0.6085  0.4862 -2.2257
20559SOL    HW263352   6.644   0.243   1.537 -0.2647  0.4021  0.7585
20560SOL     OW63353   2.215   5.420   4.870  0.1531 -0.5931 -0.3530
20560SOL    HW163354   2.274   5.458   4.805  0.6792  0.7369  0.8610
20560SOL    HW263355   2.127   5.431   4.832  0.4975 -0.4562 -1.1290
20561SOL     OW63356   4.186   3.602   2.888 -0.3794  0.1244 -0.5684
20561SOL    HW163357   4.199   3.694   2.866  0.1416 -0.0104 -0.8332
20561SOL    HW263358   4.266   3.559   2.860 -0.6176 -0.4116 -0.4386
20562SOL     OW63359   4.690   4.037   8.598 -0.1567  0.0882  0.8324
20562SOL    HW163360   4.735   3.967   8.552 -2.8135 -1.6886  0.7020
20562SOL    HW263361   4.659   3.996   8.679 -1.0821  1.3135  1.1266
20563SOL     OW63362   6.629   0.348   3.533 -0.4208 -0.5098  0.6224
20563SOL    HW163363   6.584   0.301   3.603 -1.5325  1.2048  1.1419
20563SOL    HW263364   6.568   0.347   3.460 -0.4240  0.0194  0.6112
20564SOL     OW63365   6.541   0.108   7.657 -0.2904  0.4348 -0.2562
20564SOL    HW163366   6.472   0.093   7.592 -1.7293 -1.6514  1.5948
20564SOL    HW263367   6.497   0.156   7.727  0.8694  1.4160 -0.1737
20565SOL     OW63368   2.532   4.354   6.566 -0.2671 -0.2709 -0.0185
20565SOL    HW163369   2.459   4.393   6.518  0.2357 -0.6979 -1.1632
20565SOL    HW263370   2.574   4.296   6.503  0.7352 -0.4584  0.7934
20566SOL     OW63371   6.773   7.712   9.649  0.2607  0.1504 -0.0041
20566SOL    HW163372   6.825   7.649   9.697  2.6095  0.4011 -2.0164
20566SOL    HW263373   6.794   7.797   9.688  0.1980  0.0967  0.1454
20567SOL     OW63374   4.497   2.883   0.097  0.0776 -0.1269 -0.4952
20567SOL    HW163375   4.512   2.913   0.007  0.5591  1.9046  0.2153
20567SOL    HW263376   4.521   2.790   0.095 -2.6123 -0.9069 -3.0827
20568SOL     OW63377   0.100   8.714   5.649 -0.8722  0.8062 -0.1163
20568SOL    HW163378   0.194   8.728   5.665 -0.3648  0.2683 -2.3078
20568SOL    HW263379   0.057   8.781   5.703  0.7181  0.8286  1.2296
20569SOL     OW63380   1.548   6.617   7.847  0.2986 -0.3398 -0.6457
20569SOL    HW163381   1.589   6.636   7.931  0.4812 -1.0625 -0.5597
20569SOL    HW263382   1.462   6.582   7.869 -0.0870  0.4903 -0.8024
20570SOL     OW63383   0.129   5.160   5.445  0.0550 -0.1487  0.0479
20570SOL    HW163384   0.077   5.123   5.517  0.7633  0.2068  0.7584
20570SOL    HW263385   0.212   5.110   5.448  0.6851  0.8951  0.4710
20571SOL     OW63386   3.536   9.581   2.959  0.5628  0.3175 -0.0123
20571SOL    HW163387   3.475   9.609   2.891 -0.9175 -0.9115  0.7382
20571SOL    HW263388   3.512   9.635   3.035 -0.8155 -1.3470  0.7916
20572SOL     OW63389   3.936   0.399   6.401  0.7215  0.1424 -0.4610
20572SOL    HW163390   3.896   0.410   6.487  1.7043 -1.5757  0.2767
20572SOL    HW263391   4.023   0.362   6.420  1.6436  1.3144 -2.1234
20573SOL     OW63392   8.835   5.757   3.328 -0.7762 -0.1593 -0.1200
20573SOL    HW163393   8.745   5.728   3.313 -1.1516  0.0182  1.5966
20573SOL    HW263394   8.865   5.786   3.242 -1.7298 -1.8787 -1.1036
20574SOL     OW63395   9.219   3.458   8.270 -0.2748  0.0375 -0.0777
20574SOL    HW163396   9.220   3.477   8.176 -0.6997  0.4088 -0.0114
20574SOL    HW263397   9.129   3.431   8.288  0.0093 -0.8396  0.0742
20575SOL     OW63398   5.820   1.018   5.460 -0.2604  0.6918  0.8863
20575SOL    HW163399   5.802   1.075   5.386  0.3537 -0.3027 -0.0452
20575SOL    HW263400   5.912   1.035   5.482 -0.4669  1.0552  1.4954
20576SOL     OW63401   0.413   1.810   1.114 -0.5435 -0.0977 -0.2126
20576SOL    HW163402   0.320   1.832   1.119 -0.0773  2.2220 -0.4854
20576SOL    HW263403   0.432   1.770   1.199 -1.2254  2.0756  1.0587
20577SOL     OW63404   6.180   4.537   4.505 -0.3151  0.1633 -0.0608
20577SOL    HW163405   6.145   4.476   4.440 -0.6048 -0.7862  0.9689
20577SOL    HW263406   6.268   4.504   4.523 -1.2384 -1.3259  2.1209
20578SOL     OW63407   7.075   5.831   8.483  0.0005 -0.0282  0.3331
20578SOL    HW163408   7.078   5.740   8.513  0.4370  0.0835  0.6356
20578SOL    HW263409   7.003   5.833   8.421  0.3807 -0.7266 -0.1443
20579SOL     OW63410   5.547   2.167   2.314  0.1823  0.5026  0.0180
20579SOL    HW163411   5.606   2.242   2.312 -0.2697  0.8409 -1.4003
20579SOL    HW263412   5.539   2.139   2.223  0.2233 -1.1891  0.4936
20580SOL     OW63413   2.034   8.588   2.252 -0.1089 -0.0041  0.2534
20580SOL    HW163414   2.013   8.595   2.159  0.7256  0.1020  0.0622
20580SOL    HW263415   1.963   8.536   2.290 -1.6119  1.7450 -0.0253
20581SOL     OW63416   2.603   4.435   6.818  0.2682 -0.1980 -0.0125
20581SOL    HW163417   2.535   4.502   6.827  0.5383 -0.0169  0.7793
20581SOL    HW263418   2.600   4.409   6.726  0.0017  0.7325 -0.2712
20582SOL     OW63419   2.386   3.352   1.713 -0.1194 -0.2309  0.5470
20582SOL    HW163420   2.410   3.288   1.645 -0.0358 -0.5098  0.8377
20582SOL    HW263421   2.318   3.405   1.672  1.3862  0.9772 -0.5256
20583SOL     OW63422   4.456   1.803   1.132  0.3947 -0.9160 -0.4501
20583SOL    HW163423   4.496   1.741   1.193 -0.8869 -0.8597  0.4986
20583SOL    HW263424   4.464   1.888   1.176 -1.3424 -1.0030  0.1113
20584SOL     OW63425   7.925   7.701   0.084 -0.0003  0.2298  0.2925
20584SOL    HW163426   7.961   7.717   0.171  0.4897 -0.4552  0.2255
20584SOL    HW263427   7.834   7.676   0.100 -0.0066  0.4357  0.5844
20585SOL     OW63428   0.480   6.014   6.402 -0.4911  0.2630  0.0146
20585SOL    HW163429   0.553   6.057   6.446 -0.5691  0.3360  0.0718
20585SOL    HW263430   0.415   6.000   6.470 -0.3266 -0.2575  0.0676
20586SOL     OW63431   9.459   5.780   0.273 -0.0266 -0.4166  0.3858
20586SOL    HW163432   9.385   5.819   0.320 -0.2052  1.3270 -1.2055
20586SOL    HW263433   9.427   5.696   0.242 -0.3944 -0.9115  2.0527
20587SOL     OW63434   8.403   1.574   3.132  0.3080  0.8058  0.3946
20587SOL    HW163435   8.444   1.625   3.201  1.8989 -0.0735  0.1386
20587SOL    HW263436   8.430   1.484   3.150 -2.1850  0.0321  0.6796
20588SOL     OW63437   8.810   6.957   2.465 -0.3873 -0.1016  0.0892
20588SOL    HW163438   8.891   6.998   2.435 -1.1380  0.7046 -0.9634
20588SOL    HW263439   8.797   6.882   2.407 -0.7571  0.2003 -0.2248
20589SOL     OW63440   2.378   0.200   8.019  0.2843 -0.4072  0.5780
20589SOL    HW163441   2.401   0.109   8.033 -0.8129 -1.4662 -3.1653
20589SOL    HW263442   2.460   0.248   8.025  0.9614 -1.7064  2.0439
20590SOL     OW63443   6.126   3.602   0.488 -0.2439  0.1542  0.0609
20590SOL    HW163444   6.090   3.585   0.401 -0.8762  0.4703  0.2520
20590SOL    HW263445   6.203   3.656   0.472  0.1188 -0.4827 -0.3547
20591SOL     OW63446   9.456   0.525   1.209  0.6678 -0.4771  0.2808
20591SOL    HW163447   9.522   0.583   1.171 -0.0738  1.2082  1.4211
20591SOL    HW263448   9.380   0.582   1.223 -0.5577 -2.0385  0.2831
20592SOL     OW63449   5.095   3.457   8.342 -0.5868 -0.9708  0.2086
20592SOL    HW163450   5.133   3.544   8.326  0.5169 -1.3749  0.5329
20592SOL    HW263451   5.066   3.461   8.433 -1.9278 -0.4527 -0.2259
20593SOL     OW63452   5.374   2.515   9.605  0.0367  0.5198 -0.5714
20593SOL    HW163453   5.356   2.596   9.557 -2.2661 -0.0249 -0.7388
20593SOL    HW263454   5.318   2.521   9.682  2.6396  0.7436  1.4328
20594SOL     OW63455   8.277   5.851   7.187 -0.3588 -0.4946 -0.2753
20594SOL    HW163456   8.191   5.874   7.150 -0.5879 -0.4563  0.2748
20594SOL    HW263457   8.286   5.907   7.264  0.7520  0.4571 -1.0649
20595SOL     OW63458   8.737   4.446   3.850 -0.4049  0.0710 -0.3085
20595SOL    HW163459   8.729   4.400   3.934  0.3606  1.6970  0.7208
20595SOL    HW263460   8.700   4.386   3.786 -0.0284 -1.6919  1.0332
20596SOL     OW63461   2.131   8.800   1.362  0.4140 -0.3597  0.1535
20596SOL    HW163462   2.039   8.793   1.389  0.1582  1.9386  0.0946
20596SOL    HW263463   2.130   8.782   1.268 -0.0338 -0.0299  0.0914
20597SOL     OW63464   9.336   8.156   9.028 -0.6023  0.0899 -0.1713
20597SOL    HW163465   9.423   8.191   9.046 -1.4224  1.9595  0.3864
20597SOL    HW263466   9.297   8.219   8.968 -1.7288 -0.4986 -0.0713
20598SOL     OW63467   2.269   8.903   3.643 -0.2082  0.5631 -0.0614
20598SOL    HW163468   2.319   8.967   3.693  0.1477  1.1166 -1.1032
20598SOL    HW263469   2.210   8.956   3.589 -1.4624 -0.0604  0.6457
20599SOL     OW63470   0.495   1.466   0.384  0.0970  0.1881 -0.0986
20599SOL    HW163471   0.473   1.507   0.468 -1.7068  0.1962 -0.5344
20599SOL    HW263472   0.571   1.514   0.353  0.2232  0.7931  1.1036
20600SOL     OW63473   2.785   4.827   7.886 -0.0737 -0.0912 -0.4031
20600SOL    HW163474   2.855   4.825   7.821 -0.6256 -0.8240 -0.9865
20600SOL    HW263475   2.775   4.920   7.908  1.0110  0.0291 -0.3715
20601SOL     OW63476   8.146   9.174   4.059  0.5537 -0.0303 -0.3322
20601SOL    HW163477   8.085   9.241   4.090  1.3602  1.3743 -1.6267
20601SOL    HW263478   8.222   9.183   4.116  0.4540 -0.2061 -0.1719
20602SOL     OW63479   5.614   8.974   4.852 -0.0481  0.2424  0.3999
20602SOL    HW163480   5.611   8.961   4.758  0.8299  0.9867  0.2615
20602SOL    HW263481   5.676   8.909   4.884 -0.9342 -0.5378  0.5758
20603SOL     OW63482   2.079   8.521   5.916  0.5158 -0.1466 -0.4465
20603SOL    HW163483   2.095   8.596   5.973 -2.9721  1.6400 -1.4955
20603SOL    HW263484   2.132   8.539   5.838 -0.0234  1.0934 -0.5481
20604SOL     OW63485   8.396   5.251   8.487  0.0008 -0.2358  0.0835
20604SOL    HW163486   8.400   5.314   8.559  0.5540  1.8346 -1.6872
20604SOL    HW263487   8.481   5.260   8.442 -0.0283 -2.0401 -0.4136
20605SOL     OW63488   2.590   0.766   4.741  0.0598 -0.6259  0.0759
20605SOL    HW163489   2.545   0.827   4.682  1.8847  1.2991  0.5835
20605SOL    HW263490   2.545   0.683   4.727 -2.2472  0.7024 -0.9757
20606SOL     OW63491   8.490   0.825   9.273  0.2472 -0.3675  0.2578
20606SOL    HW163492   8.403   0.795   9.246 -0.0036 -0.7540  1.4511
20606SOL    HW263493   8.476   0.910   9.313  0.5072 -0.1793 -0.0364
20607SOL     OW63494   2.825   3.159   6.359 -0.4513 -0.4452  0.1865
20607SOL    HW163495   2.737   3.131   6.384 -0.5746 -0.5879 -0.3966
20607SOL    HW263496   2.877   3.078   6.362 -0.6181 -0.5934 -0.6656
20608SOL     OW63497   7.044   9.285   3.525  0.2721 -0.2910 -0.1826
20608SOL    HW163498   7.091   9.213   3.485 -0.5453 -1.5081  0.9645
20608SOL    HW263499   6.963   9.246   3.558 -1.6131  1.7210 -2.0965
20609SOL     OW63500   0.070   6.840   7.219 -0.1811 -0.0645  0.2765
20609SOL    HW163501   0.079   6.752   7.257  0.4433  0.5789  1.7133
20609SOL    HW263502  -0.024   6.855   7.217 -0.3054 -0.8285 -0.1448
20610SOL     OW63503   9.393   4.208   0.829  0.0333  0.0414  0.3243
20610SOL    HW163504   9.439   4.216   0.746  1.0428 -2.0467  0.6112
20610SOL    HW263505   9.307   4.174   0.806  0.1835 -0.1880  0.1019
20611SOL     OW63506   8.646   7.677   2.358 -0.0678 -0.1328  0.2764
20611SOL    HW163507   8.596   7.669   2.276  0.6985  0.1236 -0.2307
20611SOL    HW263508   8.717   7.613   2.349  0.1266  0.0274  0.6663
20612SOL     OW63509   4.729   8.132   1.811 -0.0135  0.4471 -0.3893
20612SOL    HW163510   4.688   8.047   1.797  0.6215  0.0677  0.0425
20612SOL    HW263511   4.753   8.162   1.724  1.8065 -0.8380 -0.3724
20613SOL     OW63512   4.380   8.412   3.941  0.2693 -0.2328  0.2167
20613SOL    HW163513   4.397   8.472   3.868  2.9117  0.3029  1.1675
20613SOL    HW263514   4.442   8.340   3.929 -1.7691 -2.0513 -0.0191
20614SOL     OW63515   3.054   4.861   4.549  0.3552 -0.5791  0.4119
20614SOL    HW163516   3.056   4.913   4.469 -0.6085 -1.9846 -0.5772
20614SOL    HW263517   2.964   4.867   4.579  0.2197 -1.6647  0.2651
20615SOL     OW63518   3.450   8.739   2.192 -0.4403 -0.2227 -0.0309
20615SOL    HW163519   3.391   8.814   2.203 -0.1184  0.7916 -3.9847
20615SOL    HW263520   3.393   8.668   2.162 -0.0394  0.1746 -1.8582
20616SOL     OW63521   1.915   6.875   1.920  0.4083 -0.3628 -0.2225
20616SOL    HW163522   1.957   6.924   1.849  0.9880  0.2892  0.5610
20616SOL    HW263523   1.865   6.941   1.968 -0.0838 -0.8252 -0.0790
20617SOL     OW63524   7.906   0.684   2.924 -0.3816  0.2912  0.4100
20617SOL    HW163525   7.854   0.761   2.901 -1.3439 -0.3677  0.3409
20617SOL    HW263526   7.842   0.621   2.956  0.7291  0.9904  4.6860
20618SOL     OW63527   2.645   7.139   3.538  0.4848  0.1572  0.0643
20618SOL    HW163528   2.740   7.130   3.527  0.9609 -0.3452  3.5254
20618SOL    HW263529   2.611   7.052   3.517  1.0256 -0.1913  0.6093
20619SOL     OW63530   6.314   4.436   5.213 -0.2735 -0.3741  0.5796
20619SOL    HW163531   6.310   4.340   5.214  1.1201 -0.4725 -0.0069
20619SOL    HW263532   6.372   4.458   5.286  0.9160 -0.1214 -0.4002
20620SOL     OW63533   0.431   3.930   3.995  0.0971  0.3233 -0.0472
20620SOL    HW163534   0.496   3.939   3.925 -0.6597  0.5855 -0.7321
20620SOL    HW263535   0.357   3.984   3.966 -1.2061 -1.4719 -0.2188
20621SOL     OW63536   8.138   2.233   2.680 -0.3424  0.4849 -0.1750
20621SOL    HW163537   8.057   2.222   2.631 -0.4593 -0.5774  0.2416
20621SOL    HW263538   8.110   2.263   2.767 -0.3922 -1.0048  0.3462
20622SOL     OW63539   8.268   6.969   0.749 -0.1634 -0.0448  0.3792
20622SOL    HW163540   8.272   6.888   0.698  1.1638  0.1339  0.1709
20622SOL    HW263541   8.318   7.032   0.697 -0.0171  0.5360  1.2034
20623SOL     OW63542   3.701   9.564   1.139  0.7077 -0.1540 -0.1067
20623SOL    HW163543   3.755   9.578   1.216 -0.5206 -1.7420  1.1047
20623SOL    HW263544   3.732   9.629   1.075  1.9201  1.0246  1.6118
20624SOL     OW63545   8.812   7.575   6.810  0.1203 -0.3516  0.2618
20624SOL    HW163546   8.721   7.602   6.796  0.1294 -0.8849 -0.9569
20624SOL    HW263547   8.814   7.484   6.780  1.0142 -0.3919  0.4425
20625SOL     OW63548   2.565   8.324   8.112 -0.3113 -0.5753 -0.1155
20625SOL    HW163549   2.485   8.272   8.102 -0.7030 -0.2841  1.3597
20625SOL    HW263550   2.546   8.405   8.063 -0.5257 -0.9148 -0.6063
20626SOL     OW63551   6.073   6.388   2.485  0.3463 -0.2852  0.9748
20626SOL    HW163552   6.045   6.356   2.399 -2.3213  0.5660  1.4566
20626SOL    HW263553   5.997   6.377   2.542  0.6472  2.8901  2.2233
20627SOL     OW63554   2.353   9.431   9.584  0.1516 -0.2845 -0.1638
20627SOL    HW163555   2.259   9.444   9.595  0.1129  1.0025 -1.6605
20627SOL    HW263556   2.381   9.386   9.664 -1.6812 -0.4769  0.4037
20628SOL     OW63557   6.171   2.269   8.568 -0.0517  0.4467 -0.4240
20628SOL    HW163558   6.267   2.269   8.577 -0.1725 -1.0301  1.7761
20628SOL    HW263559   6.146   2.360   8.579  0.9659  0.5041  2.0384
20629SOL     OW63560   1.099   7.228   2.592 -0.2657 -0.2098  0.2185
20629SOL    HW163561   1.033   7.293   2.571 -0.6552 -0.8011 -0.4219
20629SOL    HW263562   1.174   7.250   2.536 -0.9861 -1.2573 -1.2297
20630SOL     OW63563   5.602   5.085   1.301 -0.3801  0.5422 -0.1717
20630SOL    HW163564   5.673   5.118   1.356 -1.3034 -0.2842  1.5681
20630SOL    HW263565   5.550   5.162   1.280 -0.7423  0.7087  1.2271
20631SOL     OW63566   1.517   0.179   7.309  0.1940 -0.3596 -0.4095
20631SOL    HW163567   1.561   0.095   7.319 -1.3914 -1.2050 -0.1591
20631SOL    HW263568   1.585   0.244   7.327  0.5979 -1.6020  3.3659
20632SOL     OW63569   3.222   9.640   1.191  0.2653 -0.1285 -0.4525
20632SOL    HW163570   3.200   9.633   1.098 -2.0061  0.0310  0.0130
20632SOL    HW263571   3.301   9.587   1.201 -0.4939 -1.6779 -2.1429
20633SOL     OW63572   6.353   4.725   7.612 -0.9062  0.1026  0.2441
20633SOL    HW163573   6.433   4.777   7.617 -1.1677  0.7381 -1.4441
20633SOL    HW263574   6.298   4.759   7.682 -0.3046  0.7666  0.4004
20634SOL     OW63575   5.170   8.140   8.261  0.0315 -0.3174  0.0169
20634SOL    HW163576   5.118   8.219   8.275  0.1051  0.2572 -2.5206
20634SOL    HW263577   5.108   8.068   8.276 -0.5488  0.2507  0.4260
20635SOL     OW63578   8.800   7.528   8.809 -0.6108  0.2063 -0.1075
20635SOL    HW163579   8.844   7.444   8.825 -0.6512  0.4590  1.3968
20635SOL    HW263580   8.707   7.507   8.812 -0.6609  0.5875  2.0832
20636SOL     OW63581   2.809   5.322   1.096  0.1206  0.2387  0.1061
20636SOL    HW163582   2.765   5.312   1.181  2.2469 -0.8265  1.1483
20636SOL    HW263583   2.830   5.415   1.091  1.1720  0.0954  1.4100
20637SOL     OW63584   2.325   8.955   5.479 -0.1867  0.3313  0.3861
20637SOL    HW163585   2.333   9.001   5.563  0.1008  0.6566  0.1828
20637SOL    HW263586   2.372   8.873   5.492  0.1104  0.5088  0.4561
20638SOL     OW63587   5.867   6.812   3.046  0.1882  0.0317 -0.2022
20638SOL    HW163588   5.959   6.823   3.068  0.1600 -0.9983  0.4985
20638SOL    HW263589   5.860   6.841   2.955  1.2293 -0.0190 -0.3101
20639SOL     OW63590   4.572   5.744   7.699 -0.3674  0.2136  0.2457
20639SOL    HW163591   4.527   5.827   7.683  0.6938  0.8979  0.7093
20639SOL    HW263592   4.550   5.690   7.624  0.6453  1.6606 -1.1537
20640SOL     OW63593   3.108   7.652   0.857 -0.4614  0.3075  0.1367
20640SOL    HW163594   3.120   7.715   0.929  0.6210 -0.5882  0.7769
20640SOL    HW263595   3.085   7.706   0.782 -0.0671  1.4266  0.7871
20641SOL     OW63596   2.462   1.864   8.079  0.2287 -0.2603  0.1279
20641SOL    HW163597   2.534   1.803   8.096 -0.3181 -1.0938 -0.4381
20641SOL    HW263598   2.409   1.861   8.158  0.8025  0.3501  0.5438
20642SOL     OW63599   3.890   0.410   8.236  0.0997  0.0785  0.5384
20642SOL    HW163600   3.966   0.460   8.265  0.3786 -0.8554  1.4608
20642SOL    HW263601   3.835   0.403   8.314  0.2232 -1.3262  0.5156
20643SOL     OW63602   2.381   3.830   3.399  0.4944  0.1889  0.1925
20643SOL    HW163603   2.301   3.880   3.411  0.1588 -0.3237  0.1062
20643SOL    HW263604   2.386   3.816   3.304  1.6567  1.7974 -0.0317
20644SOL     OW63605   4.526   3.889   1.777 -0.3838 -0.3753  0.6627
20644SOL    HW163606   4.565   3.804   1.756  0.8627  0.3644 -0.1372
20644SOL    HW263607   4.572   3.919   1.855  0.6884  0.4957 -0.2747
20645SOL     OW63608   9.621   9.057   4.193 -0.2196 -0.3714 -0.1219
20645SOL    HW163609   9.621   8.999   4.117  0.8715 -0.9270  0.2741
20645SOL    HW263610   9.702   9.035   4.240  0.0068  1.1789  0.2691
20646SOL     OW63611   9.354   8.811   9.225  0.0180  0.1897 -0.4570
20646SOL    HW163612   9.409   8.863   9.283  0.0100 -0.4076  0.0951
20646SOL    HW263613   9.310   8.875   9.169 -0.0019  0.7736  0.2251
20647SOL     OW63614   1.230   5.235   7.835  0.2881 -0.2448 -0.6871
20647SOL    HW163615   1.255   5.255   7.925  1.4908  2.4021 -1.5083
20647SOL    HW263616   1.263   5.147   7.820 -1.9026 -1.7072  2.0599
20648SOL     OW63617   0.241   8.287   0.494  0.5763  0.2457  0.5969
20648SOL    HW163618   0.223   8.193   0.485  1.4472  0.2075 -1.0940
20648SOL    HW263619   0.240   8.320   0.404  0.7192  1.7880  1.1335
20649SOL     OW63620   7.404   3.310   9.656  0.8835 -0.1479 -0.2736
20649SOL    HW163621   7.457   3.232   9.671  0.7730 -0.2122 -0.2131
20649SOL    HW263622   7.315   3.277   9.646  0.6856  0.0434  0.7015
20650SOL     OW63623   8.922   7.241   2.742  0.1810  0.5395 -0.5957
20650SOL    HW163624   8.897   7.149   2.735  0.1653  0.3685  1.2233
20650SOL    HW263625   8.996   7.251   2.682  1.9076 -1.3504  1.0449
20651SOL     OW63626   4.119   8.820   2.948  0.4113  0.3904  0.2184
20651SOL    HW163627   4.106   8.912   2.969 -2.0738  0.0285  0.5254
20651SOL    HW263628   4.084   8.810   2.860 -0.9176 -0.5513  0.8160
20652SOL     OW63629   0.710   9.562   5.254 -0.1362 -0.1861 -0.4800
20652SOL    HW163630   0.788   9.536   5.302 -0.8848  0.1147  0.9592
20652SOL    HW263631   0.743   9.613   5.180  1.0401 -0.3417 -0.0802
20653SOL     OW63632   3.935   1.905   7.049 -0.1429 -0.0246 -0.2672
20653SOL    HW163633   3.931   2.000   7.034 -1.2256  0.3259  1.8823
20653SOL    HW263634   3.852   1.872   7.016 -0.0161 -0.1430 -0.4686
20654SOL     OW63635   5.189   2.600   7.922  0.2885  0.1755  0.9800
20654SOL    HW163636   5.279   2.586   7.893  0.3432  0.4247  1.0290
20654SOL    HW263637   5.139   2.530   7.879  0.1499  1.2883 -0.7457
20655SOL     OW63638   5.770   6.858   4.630  0.1232 -0.1343 -0.1426
20655SOL    HW163639   5.846   6.820   4.587 -0.7929 -1.1921 -0.8993
20655SOL    HW263640   5.733   6.786   4.681 -1.4639 -0.2343 -1.3515
20656SOL     OW63641   9.600   8.064   4.144  0.2740  0.8285  0.1480
20656SOL    HW163642   9.509   8.061   4.172  0.4075  0.9653  0.6154
20656SOL    HW263643   9.604   8.137   4.082  0.3457  1.7817  1.2183
20657SOL     OW63644   5.144   0.396   5.218  0.1161 -0.2774  0.5270
20657SOL    HW163645   5.113   0.442   5.140  0.0493  0.1558  0.8101
20657SOL    HW263646   5.230   0.433   5.236  1.6869 -2.7060 -1.3136
20658SOL     OW63647   7.542   2.636   1.738  0.3002 -0.0090  0.0779
20658SOL    HW163648   7.520   2.721   1.777 -1.0108 -0.7461  1.0352
20658SOL    HW263649   7.487   2.631   1.660  0.6475  0.1791 -0.1775
20659SOL     OW63650   9.420   8.736   2.282  0.3978 -0.0554 -0.3374
20659SOL    HW163651   9.381   8.754   2.197  1.3550  1.9979 -0.4027
20659SOL    HW263652   9.361   8.778   2.345  0.5118 -0.2259 -0.1150
20660SOL     OW63653   5.571   0.537   2.830  0.2176 -0.0785  0.8292
20660SOL    HW163654   5.649   0.483   2.838 -0.9365 -1.8667  0.5095
20660SOL    HW263655   5.576   0.573   2.741  0.3274 -0.7394  0.5658
20661SOL     OW63656   7.120   4.703   7.306 -0.1902 -0.1130 -0.1388
20661SOL    HW163657   7.046   4.763   7.320  0.8020  0.4264  4.1779
20661SOL    HW263658   7.189   4.758   7.269 -0.1405  0.8490  1.3113
20662SOL     OW63659   3.891   5.401   6.640  0.1646  0.0075 -0.3736
20662SOL    HW163660   3.846   5.432   6.719 -1.7728 -1.5751 -0.7715
20662SOL    HW263661   3.983   5.402   6.664 -0.1917  1.4702  1.2041
20663SOL     OW63662   2.854   2.686   5.535 -0.7952  0.6937 -0.9176
20663SOL    HW163663   2.939   2.682   5.580 -0.2941 -1.0444 -1.9261
20663SOL    HW263664   2.800   2.739   5.592  0.4817  0.4354  0.6143
20664SOL     OW63665   5.044   6.445   2.962  0.3829 -0.1162  0.2438
20664SOL    HW163666   5.122   6.438   3.017 -1.1685 -1.9130  2.4147
20664SOL    HW263667   4.995   6.518   2.999  0.4335  0.2271 -0.3475
20665SOL     OW63668   8.200   0.014   7.998  0.0232 -0.4144 -0.3152
20665SOL    HW163669   8.154  -0.015   7.920  0.5282 -1.7351 -0.1457
20665SOL    HW263670   8.132   0.015   8.066 -0.1211 -0.6773 -0.4517
20666SOL     OW63671   4.013   6.173   0.088 -0.2817  0.4561 -0.3453
20666SOL    HW163672   4.055   6.119   0.021 -0.8118 -0.4197  0.0128
20666SOL    HW263673   4.022   6.262   0.055  2.5149  0.4293  0.0415
20667SOL     OW63674   6.881   8.121   4.408 -0.1583  0.9740 -0.0361
20667SOL    HW163675   6.831   8.108   4.328  0.5672  1.1424 -0.5244
20667SOL    HW263676   6.877   8.215   4.424 -0.1607  0.9612  0.0412
20668SOL     OW63677   6.966   6.736   8.629 -0.4824  0.0097 -0.0793
20668SOL    HW163678   6.880   6.778   8.641 -1.5483 -1.9425 -0.5640
20668SOL    HW263679   6.963   6.699   8.541  0.5962 -0.7124  0.1665
20669SOL     OW63680   2.181   7.516   9.495  0.3299  0.2132 -0.4252
20669SOL    HW163681   2.269   7.539   9.466  0.1949  1.1949 -0.0798
20669SOL    HW263682   2.179   7.420   9.491  0.7802  0.2545 -2.2276
20670SOL     OW63683   6.758   4.607   1.415 -0.1947  0.4179 -0.6843
20670SOL    HW163684   6.676   4.651   1.437 -1.3060 -0.9843 -1.7826
20670SOL    HW263685   6.750   4.588   1.321  0.8241 -0.8465 -0.5481
20671SOL     OW63686   9.474   8.235   0.801  0.2516  0.6078 -0.5983
20671SOL    HW163687   9.436   8.215   0.886  1.0408 -0.6757 -0.5343
20671SOL    HW263688   9.496   8.328   0.806 -0.6747  0.8073  0.1998
20672SOL     OW63689   2.653   7.303   9.276  0.0771 -0.4707  0.8875
20672SOL    HW163690   2.736   7.348   9.290 -0.2438  0.2648  0.4557
20672SOL    HW263691   2.656   7.276   9.184 -0.6031  0.4970  0.5682
20673SOL     OW63692   0.077   5.725   2.581  0.9913 -0.8635 -0.6116
20673SOL    HW163693  -0.004   5.776   2.590  1.7477  0.4307 -0.9870
20673SOL    HW263694   0.108   5.714   2.671 -0.4087 -2.7841 -0.2891
20674SOL     OW63695   1.188   6.976   6.669  0.1650 -0.7038  0.1925
20674SOL    HW163696   1.202   7.058   6.717 -1.5518  0.0312 -0.4746
20674SOL    HW263697   1.217   6.908   6.729  0.3719  0.3193  1.2989
20675SOL     OW63698   9.223   8.246   8.619 -0.0017 -0.5388  0.2914
20675SOL    HW163699   9.302   8.297   8.605 -0.4531  0.0037 -0.3231
20675SOL    HW263700   9.253   8.155   8.622  0.8026 -0.2454  1.4105
20676SOL     OW63701   6.559   3.181   0.404 -0.3191 -0.3432 -0.5496
20676SOL    HW163702   6.529   3.248   0.467  0.7276 -1.1425  0.8401
20676SOL    HW263703   6.590   3.232   0.329  0.4427  0.7602  0.4692
20677SOL     OW63704   8.266   0.074   5.180 -0.0866  0.4800 -0.9057
20677SOL    HW163705   8.316  -0.002   5.209 -0.3779  0.5383 -0.2115
20677SOL    HW263706   8.283   0.141   5.247  0.5906  1.2163 -1.7842
20678SOL     OW63707   7.881   7.033   5.272 -0.0727 -0.1278  0.2864
20678SOL    HW163708   7.970   7.024   5.307  0.7328  2.5658 -0.8428
20678SOL    HW263709   7.850   7.118   5.304 -1.1310  0.2657 -1.6001
20679SOL     OW63710   9.455   7.778   6.889 -0.2980  0.7884  0.3286
20679SOL    HW163711   9.385   7.811   6.832  0.6921  2.0249 -0.2162
20679SOL    HW263712   9.481   7.694   6.850 -0.4965  1.0175 -0.3013
20680SOL     OW63713   3.535   1.791   3.110  0.3344  0.0596 -0.1499
20680SOL    HW163714   3.616   1.741   3.121 -0.3622 -0.7455  1.7830
20680SOL    HW263715   3.517   1.787   3.016  1.1454 -2.0447 -0.2734
20681SOL     OW63716   1.530   7.518   4.158  0.1111  0.3307  0.1618
20681SOL    HW163717   1.488   7.529   4.073 -0.0644 -2.4246 -0.1725
20681SOL    HW263718   1.457   7.510   4.220  0.2133  0.1272  0.2556
20682SOL     OW63719   4.174   4.367   5.818  0.0726  0.5168 -0.4629
20682SOL    HW163720   4.095   4.387   5.768 -0.3162 -2.2987 -1.1576
20682SOL    HW263721   4.146   4.369   5.909 -0.6524  0.1067 -0.6749
20683SOL     OW63722   1.506   3.931   7.848  0.7207  0.2050  0.6686
20683SOL    HW163723   1.594   3.903   7.875  0.6238 -1.8489 -0.9234
20683SOL    HW263724   1.470   3.856   7.802 -1.7516  1.1572  0.9188
20684SOL     OW63725   0.759   6.403   6.252  0.1760 -0.2514  0.2341
20684SOL    HW163726   0.706   6.414   6.331 -0.4254 -3.2607  0.3805
20684SOL    HW263727   0.696   6.384   6.183  0.7758  1.2385 -0.7745
20685SOL     OW63728   6.767   0.485   4.447  0.1840 -0.3894  0.1719
20685SOL    HW163729   6.675   0.498   4.468 -0.1354 -1.3237 -0.6002
20685SOL    HW263730   6.785   0.394   4.470  0.5772 -0.5875 -0.8665
20686SOL     OW63731   2.528   0.918   2.278 -0.0683  0.4846  0.3608
20686SOL    HW163732   2.534   0.996   2.333 -1.3426  0.3946  0.6478
20686SOL    HW263733   2.514   0.952   2.190 -1.6215  0.5852  0.6281
20687SOL     OW63734   1.734   7.166   9.664  0.0229  0.0350  0.6320
20687SOL    HW163735   1.807   7.226   9.652  0.5995 -0.8797 -0.6760
20687SOL    HW263736   1.656   7.222   9.661  0.5572  0.7667 -0.3480
20688SOL     OW63737   1.408   0.027   3.082  0.3831 -0.3111  0.3819
20688SOL    HW163738   1.338   0.049   3.020 -0.9833 -1.0767  1.5910
20688SOL    HW263739   1.469  -0.026   3.031  0.2653  0.5986 -0.7684
20689SOL     OW63740   0.978   2.522   9.036  0.0273  0.0897  0.3017
20689SOL    HW163741   1.036   2.448   9.053  0.0427  0.2926  1.1298
20689SOL    HW263742   0.907   2.484   8.983  1.7538  0.1923 -2.2445
20690SOL     OW63743   9.389   8.276   0.551  0.1196 -0.2737  0.2176
20690SOL    HW163744   9.335   8.197   0.538  0.8635 -0.6627 -0.6057
20690SOL    HW263745   9.429   8.263   0.637  0.5503 -0.9891 -0.0826
20691SOL     OW63746   3.021   1.313   6.588  0.2954  0.0853 -0.4135
20691SOL    HW163747   3.103   1.341   6.546  0.9476 -1.4570 -0.2070
20691SOL    HW263748   2.968   1.279   6.516 -0.5900  1.9495 -0.6990
20692SOL     OW63749   2.885   0.652   5.765 -0.1361  0.7604  0.1608
20692SOL    HW163750   2.890   0.702   5.846  1.0825  1.5505 -0.3791
20692SOL    HW263751   2.846   0.711   5.701 -0.8220  0.2397  0.0819
20693SOL     OW63752   9.531   4.199   2.871  0.0226 -0.0119  0.1109
20693SOL    HW163753   9.506   4.107   2.859 -2.2722  0.3995  1.1613
20693SOL    HW263754   9.474   4.247   2.811 -1.4120  0.9444  2.1316
20694SOL     OW63755   2.708   5.461   6.423 -0.5518 -0.0303  0.0658
20694SOL    HW163756   2.742   5.450   6.334 -0.0644 -0.2137  0.2710
20694SOL    HW263757   2.634   5.401   6.428  0.0702 -0.8188  0.1136
20695SOL     OW63758   3.362   0.468   6.098  0.1696 -0.4039  0.1058
20695SOL    HW163759   3.363   0.443   6.006 -0.1919  0.1474 -0.0519
20695SOL    HW263760   3.438   0.525   6.108 -0.8048  1.0379 -0.2976
20696SOL     OW63761   0.678   0.072   2.150 -0.3432 -0.0792  0.3788
20696SOL    HW163762   0.651   0.115   2.069 -2.3673 -0.1676  0.9658
20696SOL    HW263763   0.668  -0.021   2.132 -1.3001 -0.0859  0.8628
20697SOL     OW63764   1.326   3.679   3.461  0.1501  0.0883 -0.1939
20697SOL    HW163765   1.415   3.647   3.475  0.6243  1.2930 -0.3868
20697SOL    HW263766   1.285   3.673   3.547  0.1694 -1.1310 -0.2393
20698SOL     OW63767   9.531   8.055   8.204 -0.5544 -0.7519  0.1281
20698SOL    HW163768   9.439   8.073   8.224 -0.3330 -1.3642  1.9222
20698SOL    HW263769   9.577   8.073   8.287  0.7243 -1.8709 -0.3114
20699SOL     OW63770   0.889   3.066   7.257 -0.1841 -0.0102 -0.2883
20699SOL    HW163771   0.942   3.043   7.180  1.3705 -0.1853  0.8038
20699SOL    HW263772   0.950   3.107   7.317 -1.1731 -0.7022  1.2589
20700SOL     OW63773   4.456   8.595   1.152  0.3604 -0.5255 -0.3291
20700SOL    HW163774   4.509   8.638   1.085 -1.6049 -1.4528 -2.6520
20700SOL    HW263775   4.410   8.666   1.196  2.0672  0.1366  0.4762
20701SOL     OW63776   8.455   9.506   3.431 -0.0324  1.0409 -0.5475
20701SOL    HW163777   8.407   9.521   3.349 -0.1871 -1.0545 -0.8938
20701SOL    HW263778   8.541   9.474   3.403 -0.4626 -0.7639  0.0601
20702SOL     OW63779   8.053   4.118   4.736 -0.0227  0.0206 -0.1883
20702SOL    HW163780   8.142   4.116   4.773  0.0736 -1.0016 -0.4468
20702SOL    HW263781   8.023   4.027   4.742 -1.1419  0.3919  0.0946
20703SOL     OW63782   8.436   1.424   9.413  0.0491  0.2402  0.1268
20703SOL    HW163783   8.469   1.409   9.325  0.9292  2.0402  0.0931
20703SOL    HW263784   8.498   1.378   9.470 -0.5828 -1.0170 -0.1648
20704SOL     OW63785   1.908   1.709   4.350 -0.7883  0.2441  0.1182
20704SOL    HW163786   1.843   1.778   4.355 -1.9806 -0.9100  1.4023
20704SOL    HW263787   1.867   1.634   4.391  2.1783  0.1363  3.3925
20705SOL     OW63788   4.833   0.630   7.373  0.3799 -0.1615  0.6330
20705SOL    HW163789   4.752   0.639   7.424  0.0486 -0.2326  0.1248
20705SOL    HW263790   4.884   0.563   7.421  0.7808  0.9125  1.7579
20706SOL     OW63791   5.861   6.891   0.303 -0.1325 -0.3446 -0.4876
20706SOL    HW163792   5.899   6.854   0.382 -0.0587  0.4952 -0.1188
20706SOL    HW263793   5.922   6.866   0.233  0.9601  0.7166  0.0475
20707SOL     OW63794   7.243   1.208   5.458  0.5817  0.1995 -0.2252
20707SOL    HW163795   7.149   1.216   5.443  0.6450  0.9519 -0.2313
20707SOL    HW263796   7.254   1.119   5.492 -0.2721  0.4952  0.8774
20708SOL     OW63797   6.730   5.963   3.851 -0.0973 -0.5812 -0.4998
20708SOL    HW163798   6.692   6.012   3.779  0.0042 -1.6003 -1.2669
20708SOL    HW263799   6.656   5.919   3.892  0.0053 -1.0295 -0.7911
20709SOL     OW63800   5.069   7.936   5.604  0.1407 -0.2695  0.2219
20709SOL    HW163801   5.037   7.911   5.690 -0.2637 -1.4050 -0.2360
20709SOL    HW263802   5.016   7.885   5.543  1.1613 -0.3298 -0.6514
20710SOL     OW63803   1.324   8.425   5.717  0.1816 -0.0888 -0.0189
20710SOL    HW163804   1.345   8.508   5.674  0.0836  0.0072  0.1172
20710SOL    HW263805   1.398   8.368   5.698  0.5342  0.2224  0.3884
20711SOL     OW63806   7.939   7.785   7.475 -0.0414  0.1801 -0.5804
20711SOL    HW163807   7.921   7.723   7.405 -0.1451 -0.2298 -0.1953
20711SOL    HW263808   7.898   7.867   7.446 -0.3873 -0.0808 -0.8328
20712SOL     OW63809   2.424   8.877   3.112  0.2916 -0.4234 -0.0278
20712SOL    HW163810   2.378   8.958   3.133  0.0646 -0.5962  0.1482
20712SOL    HW263811   2.364   8.830   3.054  0.0027 -0.8943  0.6361
20713SOL     OW63812   2.110   1.767   9.130  0.3588 -0.3041  0.3196
20713SOL    HW163813   2.172   1.748   9.200 -1.5020 -0.2054  2.0800
20713SOL    HW263814   2.114   1.862   9.120  0.2021 -0.2524  0.7285
20714SOL     OW63815   5.415   9.634   2.094 -0.1177 -0.0992  0.3519
20714SOL    HW163816   5.441   9.543   2.105 -2.0000 -0.6372  0.6205
20714SOL    HW263817   5.362   9.654   2.171 -1.7711  0.4334 -0.8658
20715SOL     OW63818   8.943   4.350   0.545  0.4184 -0.1952  0.2847
20715SOL    HW163819   8.892   4.429   0.563  1.1347  0.1965  0.6625
20715SOL    HW263820   8.905   4.283   0.601  1.3452  0.5084  1.8229
20716SOL     OW63821   2.948   2.020   7.788 -0.3678  0.2121  0.5811
20716SOL    HW163822   2.939   1.962   7.713 -0.2642  0.5422  0.3120
20716SOL    HW263823   2.987   2.100   7.753  0.1091  0.2021  1.0655
20717SOL     OW63824   6.988   6.431   8.725  0.4069 -0.1862  0.6919
20717SOL    HW163825   7.057   6.482   8.682  0.5502  0.0365  1.1818
20717SOL    HW263826   6.989   6.460   8.816 -0.2762 -0.2428  0.7251
20718SOL     OW63827   9.609   1.137   0.890  0.6590 -0.5383 -0.0797
20718SOL    HW163828   9.563   1.150   0.973  1.9346 -1.0752  0.7405
20718SOL    HW263829   9.561   1.066   0.847  0.5608 -0.9090  0.6317
20719SOL     OW63830   8.839   9.012   5.602 -0.4769  0.1608 -0.3164
20719SOL    HW163831   8.757   8.963   5.599 -0.7941  0.5757  1.1621
20719SOL    HW263832   8.872   8.999   5.691  1.4568 -0.5972 -1.0806
20720SOL     OW63833   7.517   2.486   4.796  0.2946  0.2665  0.0276
20720SOL    HW163834   7.486   2.539   4.722 -0.1475 -2.5422 -1.9720
20720SOL    HW263835   7.577   2.422   4.756  1.0457 -0.5513  2.3225
20721SOL     OW63836   7.735   4.704   7.119  0.5413 -0.3698 -0.1188
20721SOL    HW163837   7.710   4.705   7.027 -0.5220  0.9199  0.1446
20721SOL    HW263838   7.682   4.634   7.158  0.8844 -0.8196 -0.4595
20722SOL     OW63839   7.971   5.532   4.190 -0.6822  0.6417 -0.6532
20722SOL    HW163840   7.924   5.515   4.109  2.4119 -0.2746 -2.4268
20722SOL    HW263841   7.974   5.627   4.197 -0.6865  0.7446 -1.8561
20723SOL     OW63842   3.094   9.129   1.533  0.4808  0.5277  0.4101
20723SOL    HW163843   3.110   9.222   1.514 -0.2283  1.0295  2.1121
20723SOL    HW263844   3.153   9.109   1.606  3.3216 -1.4043 -2.1530
20724SOL     OW63845   3.402   3.780   1.182 -0.2255 -0.0312 -0.0177
20724SOL    HW163846   3.340   3.820   1.122  0.6856 -0.3693 -1.2234
20724SOL    HW263847   3.375   3.811   1.268 -0.3657  2.0565 -0.7646
20725SOL     OW63848   8.808   5.670   0.505  0.2592 -0.2698 -0.3805
20725SOL    HW163849   8.848   5.634   0.426  0.1698  0.3895 -0.7299
20725SOL    HW263850   8.714   5.665   0.490  0.2031 -1.2851  0.2043
20726SOL     OW63851   0.567   4.086   7.860 -0.4413 -0.2081  0.6227
20726SOL    HW163852   0.511   4.091   7.782 -1.2346 -1.6185  1.0711
20726SOL    HW263853   0.573   4.176   7.891 -0.4050  0.3287 -0.8498
20727SOL     OW63854   5.599   5.231   2.996  0.2299 -0.1975  0.2616
20727SOL    HW163855   5.626   5.261   3.082  0.0751 -0.6988  0.4882
20727SOL    HW263856   5.512   5.269   2.983 -0.2959 -1.1542  0.8736
20728SOL     OW63857   0.585   7.526   5.908 -0.4443 -0.4641  0.3014
20728SOL    HW163858   0.537   7.454   5.949 -1.0711 -1.2777 -1.6921
20728SOL    HW263859   0.615   7.489   5.824 -0.1375  1.3707 -0.4434
20729SOL     OW63860   2.106   7.497   8.805  0.6976  0.3327  0.1625
20729SOL    HW163861   2.031   7.524   8.859  0.6316  0.4202  0.0272
20729SOL    HW263862   2.073   7.424   8.753  1.0238 -0.3650  0.9028
20730SOL     OW63863   1.442   9.670   3.967  0.1515  0.1082  0.1981
20730SOL    HW163864   1.508   9.736   3.945 -0.3364  0.4579 -0.2445
20730SOL    HW263865   1.473   9.590   3.924  0.7451  0.0410  0.7363
20731SOL     OW63866   5.124   9.670   1.913  0.2771 -0.5912  0.1294
20731SOL    HW163867   5.201   9.726   1.921 -0.5253  0.5722 -0.0023
20731SOL    HW263868   5.116   9.654   1.819 -0.7862  1.0189 -0.1042
20732SOL     OW63869   3.087   4.544   7.679  0.1725 -0.5497  0.0774
20732SOL    HW163870   3.039   4.626   7.685  1.1153  0.1718 -1.3893
20732SOL    HW263871   3.065   4.510   7.592  2.1523 -0.2520 -0.5942
20733SOL     OW63872   6.168   5.223   1.764 -0.5807  0.5381 -0.1428
20733SOL    HW163873   6.196   5.140   1.802 -1.5180  0.2187 -0.1182
20733SOL    HW263874   6.183   5.287   1.833 -3.1160 -0.1743  1.1840
20734SOL     OW63875   0.586   6.170   6.816  0.4720 -0.3259 -0.0731
20734SOL    HW163876   0.508   6.113   6.815 -0.5376  0.9906  0.6042
20734SOL    HW263877   0.653   6.118   6.861 -0.9945 -0.3184  2.2937
20735SOL     OW63878   7.146   3.233   0.328  0.6317  0.2317 -0.1934
20735SOL    HW163879   7.159   3.140   0.342  1.3972  0.5131  1.1575
20735SOL    HW263880   7.225   3.274   0.363 -0.3033  1.4719  0.5514
20736SOL     OW63881   5.405   1.320   0.597  0.5565  0.4662 -0.0916
20736SOL    HW163882   5.387   1.308   0.504 -1.2271  1.9133  0.0160
20736SOL    HW263883   5.469   1.391   0.600  0.5777  0.4521 -0.2181
20737SOL     OW63884   3.650   4.445   6.462  0.3425 -0.1594  0.0441
20737SOL    HW163885   3.699   4.406   6.535  0.5349 -0.2239 -0.1191
20737SOL    HW263886   3.631   4.534   6.491  0.3877 -0.1956  0.1886
20738SOL     OW63887   7.594   7.020   5.472  0.1786 -0.5789  0.0716
20738SOL    HW163888   7.586   7.060   5.385  1.2319 -0.2005  0.1307
20738SOL    HW263889   7.539   7.075   5.528 -0.4489 -0.7804 -0.3391
20739SOL     OW63890   6.228   7.535   2.637  0.0005 -0.0498  0.3269
20739SOL    HW163891   6.292   7.553   2.706 -1.2325 -0.9529  1.7661
20739SOL    HW263892   6.281   7.525   2.558  1.4427  1.3004  1.0458
20740SOL     OW63893   2.462   0.585   2.899 -0.0549  0.5806 -0.2906
20740SOL    HW163894   2.469   0.663   2.845  0.1463  0.9026  0.1908
20740SOL    HW263895   2.482   0.512   2.840 -0.8460  0.8418 -0.8877
20741SOL     OW63896   5.139   9.454   1.469 -0.0907 -0.3796 -0.4691
20741SOL    HW163897   5.111   9.464   1.378 -2.1190  0.7020  0.2161
20741SOL    HW263898   5.221   9.404   1.464  0.5118  0.7278 -2.9364
20742SOL     OW63899   2.152   4.971   8.809 -1.2761 -0.0777  0.3899
20742SOL    HW163900   2.124   4.951   8.719  1.6401  0.5126 -0.7554
20742SOL    HW263901   2.169   5.065   8.808  0.8300 -0.4054  0.8752
20743SOL     OW63902   7.959   8.694   8.501  0.5212  0.1480  0.3777
20743SOL    HW163903   7.954   8.720   8.593  0.9966  0.8422  0.2168
20743SOL    HW263904   7.881   8.731   8.460  1.2583  1.4723  0.1229
20744SOL     OW63905   2.982   1.596   6.987  0.3940  0.0590 -0.0105
20744SOL    HW163906   2.968   1.610   6.894  1.8290 -0.0438 -0.2722
20744SOL    HW263907   2.898   1.615   7.028  0.1070  1.4442 -1.1725
20745SOL     OW63908   4.894   0.595   7.936  0.2178  0.4478  0.3802
20745SOL    HW163909   4.948   0.666   7.903  1.3324 -0.7920 -0.5878
20745SOL    HW263910   4.851   0.631   8.013  2.3742  1.5119  1.1683
20746SOL     OW63911   5.700   2.753   6.050  0.3528  0.2996  0.7701
20746SOL    HW163912   5.623   2.712   6.089  0.5328 -0.6577  0.1425
20746SOL    HW263913   5.672   2.843   6.031 -0.5775 -0.0094  0.6332
20747SOL     OW63914   2.431   9.618   8.096  0.6665 -0.4943  0.4288
20747SOL    HW163915   2.518   9.587   8.071  0.2569 -0.4842 -1.0624
20747SOL    HW263916   2.391   9.543   8.140  0.1253 -1.7881 -2.0978
20748SOL     OW63917   1.580   7.152   3.445  0.3492  0.0786 -0.0658
20748SOL    HW163918   1.649   7.163   3.511  0.8587  1.7519 -0.8385
20748SOL    HW263919   1.507   7.203   3.478 -0.1167 -0.7049  0.1495
20749SOL     OW63920   0.744   9.561   0.286 -0.1545  0.7539  0.1056
20749SOL    HW163921   0.659   9.574   0.243 -1.1830 -1.2507  1.3485
20749SOL    HW263922   0.723   9.562   0.380  1.2568  0.5381  0.4439
20750SOL     OW63923   7.298   8.882   7.417  0.0350 -0.3933  0.3864
20750SOL    HW163924   7.238   8.951   7.389  0.0411  0.1439  1.6197
20750SOL    HW263925   7.352   8.923   7.485 -0.2674 -1.7180  1.4839
20751SOL     OW63926   5.947   8.148   3.997  0.6719  0.4204  0.0226
20751SOL    HW163927   5.879   8.081   3.999 -0.2187  1.2401 -1.3942
20751SOL    HW263928   6.013   8.114   3.937 -0.1276  1.1017 -1.2727
20752SOL     OW63929   9.256   3.334   6.805  0.6696 -0.5366 -0.4189
20752SOL    HW163930   9.182   3.370   6.854  0.5260 -0.4661 -0.6849
20752SOL    HW263931   9.309   3.411   6.783  0.3780 -0.4802 -0.9605
20753SOL     OW63932   2.320   5.836   8.619  0.2844  0.1196 -0.3735
20753SOL    HW163933   2.313   5.826   8.714  1.2187  0.3904 -0.2665
20753SOL    HW263934   2.231   5.858   8.591 -0.1922 -0.8345  0.3188
20754SOL     OW63935   0.411   2.735   7.457 -0.1926  0.0570 -0.1532
20754SOL    HW163936   0.321   2.767   7.464 -0.4432  0.0810 -2.6979
20754SOL    HW263937   0.462   2.814   7.438 -0.4010 -0.4786 -3.5333
20755SOL     OW63938   0.032   5.756   3.674  0.2443 -0.5133  0.0390
20755SOL    HW163939   0.056   5.849   3.672 -2.4780  0.2917 -1.9241
20755SOL    HW263940   0.078   5.717   3.600  0.7649 -0.5637  0.3847
20756SOL     OW63941   8.156   1.857   1.525 -0.0993  0.3903  0.7643
20756SOL    HW163942   8.101   1.894   1.594 -0.0050  0.1150  0.9927
20756SOL    HW263943   8.155   1.922   1.456  1.6211  1.7389  1.9189
20757SOL     OW63944   6.346   3.031   8.976 -0.5506 -0.1406  0.5797
20757SOL    HW163945   6.331   3.027   8.882  0.9334  0.7571  0.2841
20757SOL    HW263946   6.297   3.108   9.005  0.9773  1.0555  0.0999
20758SOL     OW63947   5.772   0.968   5.788 -0.1440  0.3778  0.3684
20758SOL    HW163948   5.778   0.890   5.733  0.9423  2.1460 -2.2078
20758SOL    HW263949   5.682   0.999   5.776 -0.2257  0.1853  0.4703
20759SOL     OW63950   4.705   1.713   6.508  0.0752 -0.0794  0.4553
20759SOL    HW163951   4.714   1.643   6.572  1.2753 -0.6856 -0.3339
20759SOL    HW263952   4.657   1.672   6.435  0.9093 -0.1392 -0.0704
20760SOL     OW63953   7.364   8.832   6.214 -0.2756 -0.0512  0.3875
20760SOL    HW163954   7.444   8.879   6.191 -0.0873  0.1037  1.3265
20760SOL    HW263955   7.317   8.891   6.272 -1.5973  0.2978 -0.9593
20761SOL     OW63956   2.268   2.686   1.454 -0.1193  0.3401 -0.3332
20761SOL    HW163957   2.196   2.627   1.433  0.1965  0.0995 -0.7456
20761SOL    HW263958   2.302   2.714   1.369  0.2862  0.4384 -0.1396
20762SOL     OW63959   9.623   4.439   9.586  0.0060  0.8855 -0.5633
20762SOL    HW163960   9.560   4.406   9.523 -1.0915 -1.4498  1.5720
20762SOL    HW263961   9.701   4.385   9.573 -0.5679 -0.3023  0.6152
20763SOL     OW63962   5.877   3.551   2.218  0.1258  0.3318 -0.5430
20763SOL    HW163963   5.782   3.550   2.206  0.3263  0.0531 -2.5137
20763SOL    HW263964   5.890   3.573   2.310 -1.8242  1.4077 -0.4739
20764SOL     OW63965   6.137   8.187   1.617 -0.0927 -0.0971  0.1299
20764SOL    HW163966   6.211   8.138   1.579 -0.3791  0.1564 -0.7654
20764SOL    HW263967   6.176   8.269   1.647 -0.0096  0.0427 -0.3526
20765SOL     OW63968   6.608   2.300   8.885 -0.3345  0.0676 -0.1017
20765SOL    HW163969   6.651   2.380   8.854 -1.5749  0.8607  0.1431
20765SOL    HW263970   6.527   2.331   8.926 -1.4295 -1.3938 -1.0422
20766SOL     OW63971   7.248   3.707   5.595  0.4419 -0.2027  0.2510
20766SOL    HW163972   7.154   3.710   5.579  0.4840 -0.3409 -0.0214
20766SOL    HW263973   7.278   3.797   5.581  0.1103  0.1935  1.8426
20767SOL     OW63974   2.283   2.320   7.789  0.1518 -0.0298 -0.5787
20767SOL    HW163975   2.320   2.358   7.709  0.1774 -1.3525 -1.2255
20767SOL    HW263976   2.357   2.276   7.831  0.1238  0.6008  0.1606
20768SOL     OW63977   3.677   2.304   5.907  0.5699  0.7946 -0.2370
20768SOL    HW163978   3.654   2.215   5.932  0.2896  1.2541  1.2493
20768SOL    HW263979   3.628   2.320   5.826 -1.2790  0.4002  0.7455
20769SOL     OW63980   1.128   2.455   1.903  0.2552 -0.2157 -0.1853
20769SOL    HW163981   1.093   2.510   1.833 -1.6307 -1.5542 -0.3754
20769SOL    HW263982   1.073   2.474   1.978  1.8414  0.7110  0.7960
20770SOL     OW63983   3.813   2.529   8.692  0.4341  0.0200 -0.1238
20770SOL    HW163984   3.768   2.570   8.618  1.5539 -0.3905 -1.0737
20770SOL    HW263985   3.781   2.439   8.693  1.7639 -0.5122 -1.3221
20771SOL     OW63986   7.598   7.127   9.284 -0.3473  0.1102  0.2454
20771SOL    HW163987   7.508   7.161   9.281  0.0828  1.3038  0.5881
20771SOL    HW263988   7.589   7.038   9.317 -1.4340  0.1056 -0.0243
20772SOL     OW63989   2.181   2.549   4.774 -0.0069  0.1488  0.8607
20772SOL    HW163990   2.198   2.536   4.681  0.6580  0.1889  0.9708
20772SOL    HW263991   2.144   2.466   4.804  0.3586 -0.0780  0.6885
20773SOL     OW63992   3.474   0.568   4.624  0.1216 -0.3637 -0.3881
20773SOL    HW163993   3.447   0.524   4.704 -2.0455  0.5212 -0.5670
20773SOL    HW263994   3.397   0.618   4.596  2.0560  2.7177 -0.7573
20774SOL     OW63995   4.540   7.326   2.498 -0.1497 -0.3501 -0.1618
20774SOL    HW163996   4.561   7.302   2.407 -2.4126 -0.1305 -0.8287
20774SOL    HW263997   4.613   7.292   2.549  1.0126 -0.8422 -2.0190
20775SOL     OW63998   3.417   7.051   0.484 -0.1419  0.0080 -0.1819
20775SOL    HW163999   3.457   7.102   0.414  0.4844 -0.0342  0.1321
20775SOL    HW264000   3.490   7.029   0.542 -0.8972  1.7507  1.5783
20776SOL     OW64001   3.703   8.256   8.109  0.0538 -0.0160  0.6562
20776SOL    HW164002   3.658   8.276   8.192 -3.2228 -1.5107 -0.5801
20776SOL    HW264003   3.737   8.168   8.121 -2.4245 -1.1649 -0.2414
20777SOL     OW64004   8.253   2.912   1.697 -0.3088 -0.1558  0.2203
20777SOL    HW164005   8.191   2.878   1.762  1.4888  0.5712  2.4430
20777SOL    HW264006   8.261   3.005   1.719 -1.0690  0.5844 -2.3187
20778SOL     OW64007   7.885   7.254   7.057 -0.3122 -0.2484 -0.1231
20778SOL    HW164008   7.870   7.261   6.963 -0.5347  1.3956  0.0015
20778SOL    HW264009   7.809   7.296   7.097 -0.9628 -2.2601  0.8623
20779SOL     OW64010   9.326   4.764   9.658  0.3582 -0.2830 -0.1600
20779SOL    HW164011   9.279   4.680   9.662  0.4915 -0.3277  0.5035
20779SOL    HW264012   9.332   4.793   9.749  2.2364 -0.6126 -0.1412
20780SOL     OW64013   5.626   7.762   6.021  0.3776 -0.2963 -0.1291
20780SOL    HW164014   5.639   7.851   6.054 -0.6059 -0.3354  0.4036
20780SOL    HW264015   5.556   7.771   5.955  1.7685 -0.3478 -1.6803
20781SOL     OW64016   1.432   6.204   6.306 -1.2135  0.4791  0.3412
20781SOL    HW164017   1.523   6.217   6.278 -0.7255  0.0719  1.6691
20781SOL    HW264018   1.380   6.229   6.230  0.0194  0.3083 -0.5886
20782SOL     OW64019   3.281   2.319   6.639 -0.1094  0.6592 -0.3231
20782SOL    HW164020   3.271   2.230   6.674 -0.4880  0.5842 -0.6202
20782SOL    HW264021   3.269   2.309   6.544 -0.0662  1.0143 -0.3674
20783SOL     OW64022   1.498   6.338   3.752 -0.0463  0.2701 -0.4465
20783SOL    HW164023   1.492   6.353   3.658 -1.1175 -0.1055 -0.4459
20783SOL    HW264024   1.414   6.369   3.787  0.8873  1.8031  0.5885
20784SOL     OW64025   8.228   4.941   8.676 -0.2341 -0.2105 -0.7356
20784SOL    HW164026   8.323   4.946   8.664 -0.0986  1.5405  0.5887
20784SOL    HW264027   8.193   5.000   8.609 -0.3095 -0.1891 -0.6780
20785SOL     OW64028   0.665   1.090   1.959  0.0228 -0.2622  0.2371
20785SOL    HW164029   0.607   1.068   1.886 -0.0524  0.3839  0.0884
20785SOL    HW264030   0.660   1.186   1.965  0.1814 -0.2909  0.9653
20786SOL     OW64031   6.237   5.652   9.377 -0.7503  0.1498  0.1998
20786SOL    HW164032   6.230   5.575   9.434 -0.3549  1.2701  1.8268
20786SOL    HW264033   6.147   5.684   9.369 -1.1678 -1.3027 -1.7668
20787SOL     OW64034   8.800   3.604   4.445 -0.1160 -0.2850 -0.0680
20787SOL    HW164035   8.738   3.648   4.387 -1.1626  0.3062  1.4577
20787SOL    HW264036   8.797   3.512   4.419 -0.6079 -0.0451 -0.8905
20788SOL     OW64037   2.327   1.105   1.044 -0.0793 -0.1056 -0.1393
20788SOL    HW164038   2.312   1.053   0.965 -2.0273  0.8161 -0.4247
20788SOL    HW264039   2.405   1.157   1.024  1.0403 -1.8006 -0.3961
20789SOL     OW64040   9.376   2.772   6.776 -0.0117  0.2521 -0.2961
20789SOL    HW164041   9.430   2.848   6.756  0.5203  0.3212  1.2848
20789SOL    HW264042   9.346   2.786   6.866 -1.5778 -0.4410 -0.6789
20790SOL     OW64043   7.357   8.979   5.024 -0.1287 -0.1871  0.4575
20790SOL    HW164044   7.295   9.038   4.982  0.3132  0.6307  0.9137
20790SOL    HW264045   7.433   9.034   5.044  0.5099 -1.0302  0.4370
20791SOL     OW64046   5.264   3.260   7.723 -0.0677  1.0696  0.2295
20791SOL    HW164047   5.271   3.319   7.797 -1.5619  0.6708  0.7128
20791SOL    HW264048   5.354   3.228   7.710  0.4952  2.3031  0.8681
20792SOL     OW64049   6.937   3.230   8.870 -0.8980 -0.4538  0.4495
20792SOL    HW164050   6.968   3.222   8.780 -0.8088 -3.1570  0.6368
20792SOL    HW264051   6.853   3.275   8.863 -0.2247  0.6940 -0.7829
20793SOL     OW64052   3.937   7.371   1.509  0.3048 -0.2772 -0.1554
20793SOL    HW164053   3.939   7.353   1.415 -0.7168 -0.7895 -0.0943
20793SOL    HW264054   3.962   7.288   1.550  4.8035  0.9154  0.0335
20794SOL     OW64055   1.917   5.028   1.577  0.6158  0.4652  0.0928
20794SOL    HW164056   1.904   5.116   1.542  0.3847  1.1094  1.7035
20794SOL    HW264057   1.837   4.981   1.553 -0.2522  1.3695  1.0970
20795SOL     OW64058   2.462   5.213   3.705 -0.9836  0.4399  0.8443
20795SOL    HW164059   2.492   5.240   3.792 -1.6255  0.6306  1.0147
20795SOL    HW264060   2.540   5.179   3.662 -0.8242 -0.5433  1.8350
20796SOL     OW64061   7.775   5.669   0.241 -0.5270 -0.3889  0.0582
20796SOL    HW164062   7.794   5.650   0.149  1.2560 -1.6249  0.6202
20796SOL    HW264063   7.687   5.634   0.255 -0.5791 -0.7238 -1.0227
20797SOL     OW64064   2.953   8.087   5.558 -0.3729  0.1878 -0.6962
20797SOL    HW164065   2.964   8.176   5.593 -0.3604 -0.0161 -0.1760
20797SOL    HW264066   2.858   8.076   5.550 -0.3999  0.0078 -0.1340
20798SOL     OW64067   4.128   2.659   5.101  0.9124  0.8251  0.0812
20798SOL    HW164068   4.162   2.638   5.188 -0.9610  0.0376  0.6877
20798SOL    HW264069   4.179   2.604   5.041  0.9353 -0.0743  0.9064
20799SOL     OW64070   8.566   7.662   3.090  0.0370 -0.2472 -0.1211
20799SOL    HW164071   8.537   7.655   2.999  0.8485  1.6747 -0.5790
20799SOL    HW264072   8.485   7.671   3.141 -0.3763 -0.3351 -0.7566
20800SOL     OW64073   0.582   2.206   2.804  0.2839 -0.2469  0.2322
20800SOL    HW164074   0.634   2.160   2.871  0.4736 -1.9868 -1.0518
20800SOL    HW264075   0.495   2.168   2.812  0.1896 -0.1137 -0.1894
20801SOL     OW64076   1.090   3.738   1.478 -0.4088  0.7161  0.5883
20801SOL    HW164077   1.007   3.769   1.514 -0.5043  0.7979  0.2976
20801SOL    HW264078   1.117   3.807   1.417  0.1896  0.9936  1.1503
20802SOL     OW64079   3.406   4.899   7.310  0.1608  0.2108  0.2143
20802SOL    HW164080   3.399   4.811   7.347 -2.6044  0.7316  1.2059
20802SOL    HW264081   3.355   4.896   7.230  1.9343  0.3937 -0.9738
20803SOL     OW64082   2.253   4.844   7.837  0.5186 -0.0164 -0.0852
20803SOL    HW164083   2.282   4.836   7.928  0.7329 -0.0025 -0.1513
20803SOL    HW264084   2.317   4.794   7.787  0.3244 -0.1374 -0.2153
20804SOL     OW64085   5.686   3.110   1.821 -0.1713 -0.0193  0.2925
20804SOL    HW164086   5.620   3.042   1.830 -0.2477  0.1084  0.7786
20804SOL    HW264087   5.766   3.064   1.797  0.2811 -0.5596  2.5758
20805SOL     OW64088   6.965   2.400   0.028 -0.1050 -0.0251 -0.3497
20805SOL    HW164089   6.917   2.318   0.041 -1.2557  0.4161 -1.5946
20805SOL    HW264090   7.053   2.372  -0.001 -0.1261 -0.8217  0.3258
20806SOL     OW64091   1.116   2.254   7.004  0.0276 -0.2983  0.0858
20806SOL    HW164092   1.121   2.173   6.954  1.1221 -0.1971  0.0144
20806SOL    HW264093   1.022   2.266   7.019 -0.3417 -0.4113 -1.7960
20807SOL     OW64094   3.762   0.339   8.509  0.0341  0.6249 -0.2402
20807SOL    HW164095   3.827   0.270   8.521  0.9172  1.6843  1.5923
20807SOL    HW264096   3.684   0.307   8.554  0.5707  0.9527  0.9582
20808SOL     OW64097   6.441   4.835   0.906 -0.0343 -0.4731 -0.2612
20808SOL    HW164098   6.359   4.806   0.947  0.4682 -1.7684 -0.1207
20808SOL    HW264099   6.505   4.768   0.930  0.9345  0.2025 -0.8689
20809SOL     OW64100   1.267   4.738   1.341  0.9426  0.2779  0.1428
20809SOL    HW164101   1.228   4.762   1.257 -0.7270 -2.5638 -0.0367
20809SOL    HW264102   1.231   4.802   1.402 -1.6934 -0.3614 -0.5783
20810SOL     OW64103   2.015   1.973   7.069 -0.8570  0.1806  0.1125
20810SOL    HW164104   2.042   1.897   7.120  0.6330  1.2639  1.0249
20810SOL    HW264105   1.956   2.021   7.127 -0.5170  0.5339  0.1710
20811SOL     OW64106   8.096   5.168   2.789 -0.2548 -0.1550 -0.2788
20811SOL    HW164107   8.036   5.093   2.782 -1.2969  0.6781 -0.5778
20811SOL    HW264108   8.136   5.159   2.875 -0.3598 -1.0696 -0.3170
20812SOL     OW64109   5.528   9.146   8.660  0.6803 -0.3996 -0.2213
20812SOL    HW164110   5.497   9.079   8.599  1.0233 -0.4040 -0.3910
20812SOL    HW264111   5.588   9.099   8.718  1.6163 -0.0548 -0.8964
20813SOL     OW64112   2.401   1.650   5.285  0.0534  0.1680 -0.4363
20813SOL    HW164113   2.331   1.590   5.311  0.8922 -0.8008 -0.3599
20813SOL    HW264114   2.470   1.636   5.351  0.1933  1.3537 -0.3069
20814SOL     OW64115   1.260   7.449   0.853 -0.0711 -0.1329  0.3315
20814SOL    HW164116   1.355   7.456   0.846 -0.0425  0.6880  1.3180
20814SOL    HW264117   1.235   7.522   0.910 -1.2173 -0.7472  0.6314
20815SOL     OW64118   0.203   5.693   9.057 -0.5030 -0.0826 -0.0308
20815SOL    HW164119   0.126   5.725   9.105 -1.0739 -1.0825 -0.2525
20815SOL    HW264120   0.245   5.633   9.118 -0.5054 -0.3651 -0.3075
20816SOL     OW64121   1.736   3.532   8.767 -0.4074 -0.0261 -0.7651
20816SOL    HW164122   1.824   3.527   8.730  0.6158  1.9420  1.1696
20816SOL    HW264123   1.731   3.456   8.826  0.3775  0.3641 -0.1771
20817SOL     OW64124   0.801   7.801   0.248 -0.0578 -0.4895 -0.3061
20817SOL    HW164125   0.833   7.733   0.189  0.2349  0.1477 -0.9009
20817SOL    HW264126   0.753   7.754   0.316 -0.3399 -1.2432 -1.0136
20818SOL     OW64127   2.935   2.853   5.304 -0.4182 -0.9466  0.4768
20818SOL    HW164128   2.912   2.805   5.383 -0.8881  0.1070  1.0010
20818SOL    HW264129   3.031   2.853   5.302 -0.3698  0.1802  1.7965
20819SOL     OW64130   7.038   0.666   3.481 -0.2157 -0.6620  0.2423
20819SOL    HW164131   6.970   0.611   3.442 -1.1934 -0.2291  1.2901
20819SOL    HW264132   7.019   0.665   3.575  0.1053  0.9642  0.3548
20820SOL     OW64133   8.859   2.497   0.374  0.3863  1.0507 -0.4609
20820SOL    HW164134   8.881   2.427   0.313  1.4221  0.7936  0.1698
20820SOL    HW264135   8.864   2.456   0.461 -1.5297  1.2882 -0.2054
20821SOL     OW64136   7.183   7.246   5.586  0.2349 -0.5203 -0.1028
20821SOL    HW164137   7.218   7.231   5.498  0.4200  1.7585 -0.4924
20821SOL    HW264138   7.238   7.192   5.643  0.6643 -1.3846 -1.2870
20822SOL     OW64139   3.156   2.939   2.403  0.2552  0.0411  0.0919
20822SOL    HW164140   3.146   2.885   2.325  1.6151 -1.3254  0.8083
20822SOL    HW264141   3.142   2.880   2.476  3.2422  0.1930  0.9319
20823SOL     OW64142   1.718   6.368   3.974 -0.0160  0.7892 -0.1980
20823SOL    HW164143   1.723   6.277   4.003 -0.8379  0.9220  0.3940
20823SOL    HW264144   1.654   6.368   3.903  0.8184  0.7269 -0.9598
20824SOL     OW64145   7.250   7.785   4.442  0.5336 -0.6723 -0.0277
20824SOL    HW164146   7.249   7.821   4.530  0.0121 -2.9227  0.9742
20824SOL    HW264147   7.160   7.790   4.412  0.8337  0.7727 -0.7897
20825SOL     OW64148   5.065   9.040   8.201 -0.2058  0.9225 -0.6777
20825SOL    HW164149   5.151   9.074   8.226 -0.8978  1.4382  1.1825
20825SOL    HW264150   5.074   9.016   8.108  1.2171  3.3312 -1.2522
20826SOL     OW64151   2.939   3.271   3.912 -0.6822 -0.1520 -0.0216
20826SOL    HW164152   2.919   3.261   3.819 -2.0429 -0.2004  0.2531
20826SOL    HW264153   2.951   3.181   3.944 -1.3563 -0.2173  0.0695
20827SOL     OW64154   8.774   3.715   7.060 -0.7720  0.0259 -0.5408
20827SOL    HW164155   8.863   3.698   7.091  0.1214  1.2791 -2.2644
20827SOL    HW264156   8.769   3.810   7.053 -1.7933 -0.0988 -1.7493
20828SOL     OW64157   4.400   6.914   7.575  0.4463  0.2285  0.0146
20828SOL    HW164158   4.422   6.983   7.513  2.1414 -0.3347 -0.0694
20828SOL    HW264159   4.347   6.852   7.525 -1.4787  1.6441  0.2185
20829SOL     OW64160   2.934   6.832   6.440 -0.1168  0.7850  0.7314
20829SOL    HW164161   2.896   6.874   6.517 -0.0272  0.0331  1.1951
20829SOL    HW264162   2.910   6.739   6.448  0.7641  0.5093  0.4003
20830SOL     OW64163   6.269   3.035   5.176 -0.1618  0.2700 -0.1451
20830SOL    HW164164   6.246   2.942   5.167 -1.1745  0.3157  1.5689
20830SOL    HW264165   6.226   3.077   5.101 -1.3828 -0.4018  0.1400
20831SOL     OW64166   7.663   8.109   2.832 -0.7293 -0.6089 -0.2240
20831SOL    HW164167   7.670   8.017   2.858  0.8591  0.1833  2.7489
20831SOL    HW264168   7.754   8.135   2.813 -0.8950  0.7001  0.6301
20832SOL     OW64169   0.131   3.543   3.494  0.2183 -0.3422  0.2972
20832SOL    HW164170   0.213   3.509   3.528  0.9844  0.1927 -0.9354
20832SOL    HW264171   0.148   3.636   3.478 -1.0388  0.0806  1.2385
20833SOL     OW64172   6.654   4.731   8.970 -0.0363 -0.0112  0.1031
20833SOL    HW164173   6.593   4.803   8.957 -0.4223 -0.4270 -0.4032
20833SOL    HW264174   6.684   4.709   8.882  1.6641  0.8818  0.4114
20834SOL     OW64175   8.573   6.767   3.888 -0.3186 -0.7890 -0.7479
20834SOL    HW164176   8.625   6.696   3.926 -0.1787 -1.1172 -1.5313
20834SOL    HW264177   8.627   6.800   3.817 -0.9588 -0.7763 -1.2313
20835SOL     OW64178   4.599   5.220   0.909 -0.5814 -0.0384  0.1235
20835SOL    HW164179   4.526   5.197   0.967 -0.5050 -2.0629 -0.5091
20835SOL    HW264180   4.647   5.287   0.957 -3.4695  2.2941  0.0524
20836SOL     OW64181   3.100   4.409   8.380 -0.2622  0.2672  0.3343
20836SOL    HW164182   3.172   4.469   8.360 -0.3538  0.5922  0.9171
20836SOL    HW264183   3.087   4.358   8.301  0.0359  0.8068 -0.0664
20837SOL     OW64184   3.020   1.506   4.186  0.5923 -0.1078  0.4599
20837SOL    HW164185   3.106   1.468   4.205  1.1041  0.9052  0.2189
20837SOL    HW264186   3.008   1.491   4.092 -0.5731 -2.3534  0.8860
20838SOL     OW64187   7.596   3.003   7.584  0.5770 -0.1289  0.4621
20838SOL    HW164188   7.554   2.942   7.645  1.7407 -0.1091  1.3227
20838SOL    HW264189   7.525   3.061   7.556 -0.0678 -0.3668  1.5236
20839SOL     OW64190   8.193   7.801   8.234 -0.2006  0.1072 -0.1356
20839SOL    HW164191   8.251   7.726   8.246  3.1128  2.1524 -1.7362
20839SOL    HW264192   8.170   7.828   8.323  1.3029 -0.8473  0.5856
20840SOL     OW64193   5.994   5.238   8.926  0.4656 -0.1151  0.0454
20840SOL    HW164194   6.044   5.177   8.980 -0.3676 -0.3528  0.5743
20840SOL    HW264195   5.904   5.207   8.932  0.4368 -0.6407 -2.1506
20841SOL     OW64196   5.753   4.135   9.529  0.1744  0.4451  0.2986
20841SOL    HW164197   5.717   4.150   9.441  1.7993 -2.2120 -0.9703
20841SOL    HW264198   5.821   4.202   9.539 -0.3011  1.0260 -0.3138
20842SOL     OW64199   8.381   9.133   4.232  0.2369 -0.3897  0.9467
20842SOL    HW164200   8.389   9.078   4.310 -1.0120 -2.6805 -0.4231
20842SOL    HW264201   8.446   9.097   4.171  1.1733  1.3472  0.8575
20843SOL     OW64202   5.606   5.782   5.706  0.5984 -0.6902  0.0392
20843SOL    HW164203   5.545   5.710   5.720 -0.0231 -0.3045 -0.6246
20843SOL    HW264204   5.657   5.787   5.787 -0.7517 -0.5550  0.9026
20844SOL     OW64205   4.203   8.527   8.691 -0.2181 -0.2134  0.4007
20844SOL    HW164206   4.189   8.602   8.749  1.8100  0.6425 -0.1211
20844SOL    HW264207   4.222   8.455   8.751 -2.3608 -0.4160  0.9195
20845SOL     OW64208   1.092   9.367   3.479 -0.1261 -0.1788 -0.6312
20845SOL    HW164209   1.130   9.290   3.437 -0.9765 -0.6907 -0.4809
20845SOL    HW264210   1.142   9.378   3.560 -0.4454 -0.9814 -0.3236
20846SOL     OW64211   4.669   1.347   8.859  0.2496  0.5541  0.4707
20846SOL    HW164212   4.617   1.353   8.779 -0.8159 -1.0831  0.9821
20846SOL    HW264213   4.619   1.398   8.923 -0.0815  0.0381  0.6338
20847SOL     OW64214   5.659   5.167   3.528  0.1791 -0.1640 -0.5293
20847SOL    HW164215   5.623   5.078   3.522 -0.5178  0.0565  0.1763
20847SOL    HW264216   5.597   5.221   3.480  0.5430 -0.0372 -0.8614
20848SOL     OW64217   7.678   9.364   4.494 -0.2381  0.2897  0.3430
20848SOL    HW164218   7.638   9.284   4.460  0.5333  0.3849 -0.8673
20848SOL    HW264219   7.772   9.344   4.497 -0.1297  0.8638  0.8381
20849SOL     OW64220   3.212   2.872   5.933  0.2630  0.8241  0.1468
20849SOL    HW164221   3.303   2.850   5.953 -0.4045  0.2093  3.0163
20849SOL    HW264222   3.167   2.788   5.933 -0.3309  1.1139 -1.3389
20850SOL     OW64223   2.315   3.550   9.093  0.0003 -0.3988 -0.4973
20850SOL    HW164224   2.388   3.489   9.081 -0.1311 -0.3202 -1.7885
20850SOL    HW264225   2.355   3.628   9.131  0.1739 -1.2455  1.1777
20851SOL     OW64226   9.587   0.645   2.822 -0.0910  0.0322 -0.0492
20851SOL    HW164227   9.619   0.608   2.740  1.3458  2.1276 -0.5070
20851SOL    HW264228   9.593   0.740   2.811 -2.3499  0.4760  1.5396
20852SOL     OW64229   3.131   3.975   1.130 -0.0761 -0.2901 -0.2780
20852SOL    HW164230   3.141   3.979   1.035 -1.1976  0.4282 -0.3776
20852SOL    HW264231   3.154   4.063   1.161  0.0426 -0.4493  0.1002
20853SOL     OW64232   3.370   6.173   0.113  0.3083  0.7768  0.2089
20853SOL    HW164233   3.457   6.204   0.138  1.1077 -0.4948 -0.8595
20853SOL    HW264234   3.330   6.145   0.195  1.2342  0.5982  0.6162
20854SOL     OW64235   5.361   3.252   0.626  0.5822  0.2231  0.5615
20854SOL    HW164236   5.282   3.215   0.588  1.2065 -1.1081  0.4954
20854SOL    HW264237   5.336   3.280   0.714  0.4579 -1.9856  1.2881
20855SOL     OW64238   9.391   1.362   4.847 -0.0575  0.1221 -0.2823
20855SOL    HW164239   9.390   1.442   4.899  0.0998 -0.3152  0.3970
20855SOL    HW264240   9.483   1.348   4.826  0.0307 -0.4434  0.4740
20856SOL     OW64241   3.269   4.436   9.098  0.3142 -0.4025  0.1642
20856SOL    HW164242   3.194   4.489   9.126  0.0398 -1.2177  1.0163
20856SOL    HW264243   3.344   4.494   9.109 -0.0790  0.1109  0.2121
20857SOL     OW64244   4.729   2.903   8.118 -0.1661 -0.5086 -0.1216
20857SOL    HW164245   4.761   2.852   8.044 -1.3084 -1.0477 -0.2753
20857SOL    HW264246   4.715   2.838   8.188 -0.6983 -0.2781 -0.0028
20858SOL     OW64247   7.390   5.862   4.665  0.6216  0.0921  0.6147
20858SOL    HW164248   7.334   5.864   4.742 -0.5906  0.3593 -0.2433
20858SOL    HW264249   7.373   5.946   4.622  1.2138 -0.0937  0.0057
20859SOL     OW64250   2.412   7.318   2.074  0.4687  0.3016  0.3880
20859SOL    HW164251   2.461   7.252   2.026  0.6555  0.7247 -0.0028
20859SOL    HW264252   2.335   7.271   2.107 -0.1804  0.2298 -1.1627
20860SOL     OW64253   1.402   5.690   6.913 -0.1538  0.0809 -0.6858
20860SOL    HW164254   1.315   5.724   6.893  0.0759  2.3505  1.5611
20860SOL    HW264255   1.387   5.600   6.941 -1.5047 -0.1608 -2.0225
20861SOL     OW64256   8.958   8.571   1.253  0.0507 -0.4760  0.1652
20861SOL    HW164257   9.036   8.609   1.213 -1.4138  0.9666 -1.4561
20861SOL    HW264258   8.952   8.612   1.339  0.4170  0.3119 -0.1805
20862SOL     OW64259   1.831   4.496   7.334 -0.2292 -0.0071 -0.4000
20862SOL    HW164260   1.749   4.478   7.379  0.1793 -1.3125 -0.1370
20862SOL    HW264261   1.867   4.409   7.314  1.2707  0.5314 -0.1666
20863SOL     OW64262   1.825   2.626   2.169  0.0674 -0.3483  0.0963
20863SOL    HW164263   1.861   2.714   2.179  0.1703 -0.3069 -0.5524
20863SOL    HW264264   1.730   2.637   2.175 -0.1426  0.2668 -2.6883
20864SOL     OW64265   7.566   5.089   8.976  0.7769  0.0233 -0.4518
20864SOL    HW164266   7.576   5.006   9.023 -0.3752 -0.6149 -1.2621
20864SOL    HW264267   7.601   5.071   8.889 -0.9263 -0.1499 -1.1387
20865SOL     OW64268   1.380   4.882   8.620  0.5001  0.6063  0.1224
20865SOL    HW164269   1.349   4.850   8.705 -0.6435  0.0414 -0.4878
20865SOL    HW264270   1.445   4.948   8.642  1.1369 -0.3965  1.4361
20866SOL     OW64271   7.539   7.504   5.213  0.3797  0.5005 -0.1781
20866SOL    HW164272   7.529   7.431   5.152  2.5307  0.3992 -0.4520
20866SOL    HW264273   7.577   7.574   5.161 -1.0414  1.6365  0.2467
20867SOL     OW64274   1.822   4.086   8.027  0.0647  0.2977  0.4032
20867SOL    HW164275   1.800   3.998   7.996 -1.0271  0.1583  1.5076
20867SOL    HW264276   1.797   4.144   7.955  0.0259 -0.2279 -0.0110
20868SOL     OW64277   6.910   5.405   9.082  0.1961  0.0041 -0.8586
20868SOL    HW164278   6.978   5.378   9.021  0.2706  1.5838 -1.5313
20868SOL    HW264279   6.844   5.449   9.028  0.5192  1.9246  0.2119
20869SOL     OW64280   4.119   6.204   1.920 -0.3245  0.2026 -0.0458
20869SOL    HW164281   4.054   6.157   1.972  1.2621 -1.1196  0.8423
20869SOL    HW264282   4.117   6.162   1.834 -1.2023  0.7188 -0.2832
20870SOL     OW64283   8.542   1.138   8.755  0.1990  0.4178 -0.2858
20870SOL    HW164284   8.612   1.197   8.729  0.1605  1.3998  1.7186
20870SOL    HW264285   8.586   1.071   8.808 -0.0073 -0.4762 -1.2117
20871SOL     OW64286   6.807   0.596   6.726  0.1267  0.5872  0.4207
20871SOL    HW164287   6.764   0.604   6.641 -0.7607  0.7006  0.8700
20871SOL    HW264288   6.880   0.536   6.710 -1.3499 -1.2004  0.0377
20872SOL     OW64289   3.515   0.923   6.630 -0.4379  0.2010  0.0057
20872SOL    HW164290   3.608   0.937   6.613 -0.0848 -0.1315  1.5122
20872SOL    HW264291   3.499   0.833   6.604  0.1129 -0.3264  1.3851
20873SOL     OW64292   1.555   6.785   7.634 -0.5329 -0.1031  0.1277
20873SOL    HW164293   1.537   6.720   7.703 -1.2531  2.1883  2.2642
20873SOL    HW264294   1.649   6.798   7.639 -0.3864 -0.9244 -0.2906
20874SOL     OW64295   8.089   8.463   8.491  0.0350  0.1117  0.4746
20874SOL    HW164296   8.047   8.386   8.452  0.2858 -0.2345  0.8736
20874SOL    HW264297   8.024   8.533   8.484 -0.9116 -0.5967  1.7194
20875SOL     OW64298   0.794   2.814   3.188 -0.6335 -0.1400 -0.0880
20875SOL    HW164299   0.874   2.763   3.173 -1.7628 -1.6558 -1.1849
20875SOL    HW264300   0.826   2.902   3.207  1.2644 -0.4079 -1.7005
20876SOL     OW64301   2.589   0.879   9.383  0.9202  0.0496 -0.3222
20876SOL    HW164302   2.644   0.876   9.461  0.5260  0.3374 -0.0299
20876SOL    HW264303   2.646   0.914   9.314  1.0776  0.4236  0.0004
20877SOL     OW64304   2.564   7.447   2.663 -0.8475 -0.1824 -0.2130
20877SOL    HW164305   2.552   7.391   2.586 -0.1834 -1.7751  0.7988
20877SOL    HW264306   2.522   7.530   2.639  0.5434 -0.1381 -2.8012
20878SOL     OW64307   8.038   5.145   0.264 -0.9325 -0.2575 -0.6020
20878SOL    HW164308   7.979   5.199   0.212 -0.6479  1.6085  0.9007
20878SOL    HW264309   8.121   5.148   0.217 -1.4026 -0.9369 -1.4934
20879SOL     OW64310   6.099   0.229   2.550  0.0687 -0.7552 -0.7147
20879SOL    HW164311   6.173   0.288   2.560 -0.1553 -0.4740 -0.7140
20879SOL    HW264312   6.032   0.281   2.505 -0.3361 -0.8393 -0.2114
20880SOL     OW64313   5.658   4.482   9.351  0.3792 -0.0957  0.3134
20880SOL    HW164314   5.624   4.513   9.435  0.7005 -0.6948  0.6713
20880SOL    HW264315   5.638   4.388   9.350 -0.5167  0.0792 -0.7193
20881SOL     OW64316   9.526   7.364   5.968  0.5573  0.4024 -0.1346
20881SOL    HW164317   9.513   7.356   6.063  0.5087 -0.4108 -0.2036
20881SOL    HW264318   9.556   7.454   5.956  0.4683  0.5454  0.6437
20882SOL     OW64319   1.812   3.289   6.559 -0.0227  0.3051  0.4506
20882SOL    HW164320   1.907   3.281   6.552  0.0223  1.4481 -0.5980
20882SOL    HW264321   1.792   3.267   6.650  0.9964 -2.0287  0.1873
20883SOL     OW64322   1.442   6.113   0.363 -0.5359 -0.1528 -0.2094
20883SOL    HW164323   1.395   6.140   0.442  1.1887 -0.7023  1.0706
20883SOL    HW264324   1.427   6.184   0.301  0.0489  1.5094  1.4558
20884SOL     OW64325   8.961   6.735   7.825  0.4206  0.1763 -0.1592
20884SOL    HW164326   9.043   6.782   7.813  0.6036 -0.7768 -3.6535
20884SOL    HW264327   8.897   6.785   7.776  0.1759 -1.9303 -2.1511
20885SOL     OW64328   5.151   3.219   2.164 -0.0143  0.1546 -0.2537
20885SOL    HW164329   5.201   3.154   2.115  0.7489 -0.5020  1.3192
20885SOL    HW264330   5.075   3.171   2.198 -0.3221  0.5025 -0.4339
20886SOL     OW64331   7.226   7.216   3.943  0.6960  0.1673  0.2648
20886SOL    HW164332   7.173   7.281   3.989  0.0351  2.5012 -3.3822
20886SOL    HW264333   7.301   7.264   3.909  0.8730 -1.2231 -1.4831
20887SOL     OW64334   0.807   4.635   7.450  0.0815  0.1590  0.3003
20887SOL    HW164335   0.770   4.720   7.425 -1.2740  0.1689  2.1187
20887SOL    HW264336   0.760   4.572   7.396 -1.0341  0.3642  0.9984
20888SOL     OW64337   5.263   2.411   8.281  0.0206  0.1068 -0.2035
20888SOL    HW164338   5.184   2.446   8.240 -1.5145 -2.0832  0.7315
20888SOL    HW264339   5.331   2.422   8.214 -1.3205  0.9213 -1.4943
20889SOL     OW64340   3.610   2.198   9.664  0.0909  0.3467  0.3785
20889SOL    HW164341   3.635   2.120   9.713 -0.5407  0.8831  1.5971
20889SOL    HW264342   3.691   2.247   9.651  0.4574 -0.4125 -0.2317
20890SOL     OW64343   0.137   8.916   3.050  0.2957 -0.5900  0.3497
20890SOL    HW164344   0.131   8.893   3.143  1.4826  1.1342  0.9182
20890SOL    HW264345   0.230   8.907   3.030  0.1979  0.0060 -0.3995
20891SOL     OW64346   1.711   1.246   4.419  0.2863 -0.0109  0.7946
20891SOL    HW164347   1.648   1.228   4.489 -0.9821  0.3099 -0.2314
20891SOL    HW264348   1.658   1.255   4.340  1.6835 -0.4547 -0.2513
20892SOL     OW64349   4.447   3.433   9.066 -0.0483 -0.4704  0.8998
20892SOL    HW164350   4.498   3.396   9.139 -1.0724 -2.1419  0.8312
20892SOL    HW264351   4.501   3.418   8.989  1.2710  1.7614  1.3028
20893SOL     OW64352   8.442   9.280   8.411  0.5549  0.4725 -0.2364
20893SOL    HW164353   8.492   9.231   8.476 -1.1073 -1.1968 -0.1344
20893SOL    HW264354   8.364   9.311   8.458  0.1729  0.7195 -1.0099
20894SOL     OW64355   6.976   9.011   0.968  0.3157 -0.0170 -0.2725
20894SOL    HW164356   7.070   8.996   0.956  0.6894  1.4434  0.6046
20894SOL    HW264357   6.968   9.046   1.056 -1.1870 -1.0332  0.0260
20895SOL     OW64358   1.249   7.626   6.914  0.1432 -0.8162 -0.1480
20895SOL    HW164359   1.235   7.681   6.837 -0.3056  1.9947  1.8112
20895SOL    HW264360   1.189   7.553   6.902 -0.9727  0.3083 -1.7877
20896SOL     OW64361   0.764   8.071   8.169 -1.1498 -0.3710  0.3954
20896SOL    HW164362   0.791   8.162   8.161 -0.3100 -0.5996  0.5710
20896SOL    HW264363   0.842   8.025   8.199 -0.9706 -1.4919 -1.6131
20897SOL     OW64364   8.662   6.503   5.419  0.4351  0.2318  0.2105
20897SOL    HW164365   8.590   6.564   5.404 -0.7123 -0.7660  1.3676
20897SOL    HW264366   8.722   6.549   5.476 -0.1236  0.5006  0.5896
20898SOL     OW64367   4.817   2.450   2.691 -0.3892  0.0938 -0.1173
20898SOL    HW164368   4.884   2.454   2.759 -0.9191  0.4270  0.3942
20898SOL    HW264369   4.745   2.401   2.731 -0.2349 -0.7525 -0.8552
20899SOL     OW64370   7.093   9.527   5.357 -0.0279  0.3158  0.2591
20899SOL    HW164371   7.039   9.494   5.285  1.2808 -1.3463 -0.0399
20899SOL    HW264372   7.053   9.490   5.436 -0.8416  1.2635  0.3013
20900SOL     OW64373   4.574   1.552   9.211  0.4137 -0.9239 -0.5527
20900SOL    HW164374   4.510   1.620   9.189  0.7239 -0.6728 -0.6869
20900SOL    HW264375   4.637   1.595   9.269 -1.0663 -1.8823  1.9410
20901SOL     OW64376   7.644   0.122   5.415  0.0743  0.0843 -0.8044
20901SOL    HW164377   7.659   0.091   5.326  2.0539  2.7550 -1.5279
20901SOL    HW264378   7.688   0.058   5.471  0.9263 -0.3500 -1.9452
20902SOL     OW64379   5.461   5.333   5.673  0.0590  0.1448 -0.2033
20902SOL    HW164380   5.544   5.347   5.628 -0.2415 -1.7651 -1.4628
20902SOL    HW264381   5.419   5.261   5.625 -1.8935  0.4081  0.9880
20903SOL     OW64382   9.196   1.239   1.710  0.1161 -0.2850  0.0840
20903SOL    HW164383   9.124   1.298   1.689  0.1171  0.1848  1.3402
20903SOL    HW264384   9.256   1.292   1.763  0.5068 -1.1762  0.5496
20904SOL     OW64385   3.122   4.977   1.039  0.2684 -0.1160 -0.3088
20904SOL    HW164386   3.127   5.004   1.131 -0.9320  1.0867 -0.5616
20904SOL    HW264387   3.067   5.044   0.998 -0.4110 -1.4156 -1.6024
20905SOL     OW64388   6.444   8.137   5.082  0.0101 -0.0366  0.4626
20905SOL    HW164389   6.449   8.231   5.101 -0.0293 -0.0354  0.4660
20905SOL    HW264390   6.501   8.096   5.147  0.5081  0.0383  0.0826
20906SOL     OW64391   3.624   6.939   9.530  0.4626  0.5195 -0.6365
20906SOL    HW164392   3.709   6.927   9.489 -0.2128 -1.2744 -1.6628
20906SOL    HW264393   3.591   6.849   9.543  0.0704  1.0183  2.7041
20907SOL     OW64394   1.515   1.884   7.423  0.1210  0.0955 -0.0794
20907SOL    HW164395   1.550   1.924   7.502  0.1371 -0.0675 -0.0044
20907SOL    HW264396   1.420   1.897   7.430 -0.0814 -1.6149  0.9192
20908SOL     OW64397   4.211   0.228   2.367  0.0922  0.1212 -0.2963
20908SOL    HW164398   4.237   0.288   2.297 -0.8639  2.1105  0.9396
20908SOL    HW264399   4.233   0.141   2.334  2.9043  1.2049 -1.6223
20909SOL     OW64400   6.260   8.924   0.492 -0.3983  0.1816  0.1065
20909SOL    HW164401   6.334   8.982   0.512 -0.4860  0.7429 -1.0854
20909SOL    HW264402   6.296   8.836   0.504  0.3081  0.4538  0.0783
20910SOL     OW64403   0.184   1.977   1.029 -0.1397 -0.2949  0.1754
20910SOL    HW164404   0.220   1.954   0.943 -2.0043 -3.6082  0.1067
20910SOL    HW264405   0.196   2.072   1.035  4.2597 -0.4574 -1.6704
20911SOL     OW64406   9.490   0.593   6.229  0.3724  0.0537  0.2179
20911SOL    HW164407   9.556   0.615   6.163 -0.3960  0.5545 -0.4032
20911SOL    HW264408   9.427   0.665   6.225 -0.1885 -0.3885  0.8423
20912SOL     OW64409   2.756   6.115   6.129 -0.1262  0.0513 -0.3766
20912SOL    HW164410   2.800   6.067   6.059 -2.6380 -1.0799 -1.2976
20912SOL    HW264411   2.776   6.207   6.112  1.5126 -0.3749 -0.9392
20913SOL     OW64412   3.940   1.160   6.733  0.2313  0.1020  0.3884
20913SOL    HW164413   4.016   1.111   6.764  0.0259 -1.1438 -0.9519
20913SOL    HW264414   3.978   1.236   6.688  0.7077 -0.5307 -0.3071
20914SOL     OW64415   0.481   6.699   0.160 -0.2496 -0.1950  0.0410
20914SOL    HW164416   0.547   6.726   0.223  1.4091 -1.2232 -1.1799
20914SOL    HW264417   0.471   6.774   0.101  0.8289 -0.4811 -0.5325
20915SOL     OW64418   9.475   8.666   0.213  0.9836 -0.0952 -0.5453
20915SOL    HW164419   9.449   8.574   0.207 -0.1704  0.2204 -0.7210
20915SOL    HW264420   9.556   8.665   0.263  0.2832 -1.0943  0.6231
20916SOL     OW64421   4.052   8.482   2.367  0.1810  0.0710  0.1997
20916SOL    HW164422   4.122   8.502   2.304  2.3122 -1.2284  1.9835
20916SOL    HW264423   4.066   8.543   2.439 -1.6464  0.9183 -0.1031
20917SOL     OW64424   2.980   7.771   9.525 -0.0177 -0.0593 -0.2773
20917SOL    HW164425   3.001   7.818   9.606 -1.7996 -0.9831  0.7890
20917SOL    HW264426   2.892   7.801   9.501  0.5241  0.2782 -1.9654
20918SOL     OW64427   0.578   8.055   7.686  0.2673  0.2166 -0.8121
20918SOL    HW164428   0.618   8.079   7.770 -0.0642 -0.2461 -0.5178
20918SOL    HW264429   0.485   8.047   7.705  0.1076  0.7218 -1.3713
20919SOL     OW64430   3.781   7.448   7.204 -1.0757 -0.0360  0.0308
20919SOL    HW164431   3.689   7.448   7.230 -1.2157  1.1790 -0.3922
20919SOL    HW264432   3.786   7.382   7.135 -1.5957 -0.2117  0.1563
20920SOL     OW64433   5.020   4.392   5.895  0.0327  0.2299 -0.4073
20920SOL    HW164434   4.939   4.432   5.927 -0.7591 -1.4815 -0.2001
20920SOL    HW264435   4.993   4.337   5.822  0.9518 -0.6533 -0.1045
20921SOL     OW64436   7.897   5.865   2.789  0.5598  0.6130 -0.3124
20921SOL    HW164437   7.914   5.950   2.831  4.4071  0.3269 -0.9331
20921SOL    HW264438   7.956   5.863   2.715 -0.7921 -1.9301 -1.4302
20922SOL     OW64439   2.115   9.609   3.948 -0.1612  0.6667 -0.1069
20922SOL    HW164440   2.140   9.531   3.899  1.9219  1.3467 -0.2562
20922SOL    HW264441   2.128   9.586   4.040  1.2215  1.0387 -0.1878
20923SOL     OW64442   7.629   7.573   7.468  0.3166  0.7388 -0.2184
20923SOL    HW164443   7.560   7.635   7.444 -0.7655 -0.1050  0.6240
20923SOL    HW264444   7.638   7.582   7.563  0.3855 -0.1496 -0.1355
20924SOL     OW64445   8.243   4.564   7.221  0.1736  0.0706  0.3362
20924SOL    HW164446   8.169   4.552   7.281  0.0233  2.0685  0.6457
20924SOL    HW264447   8.204   4.604   7.143  0.7209 -0.2756 -0.1176
20925SOL     OW64448   3.367   6.200   4.293  0.4412  0.2210 -0.0230
20925SOL    HW164449   3.348   6.228   4.382  0.7796  0.2793  0.0315
20925SOL    HW264450   3.452   6.157   4.299  0.5976  0.4736 -0.3640
20926SOL     OW64451   7.723   8.416   6.566  0.3059  0.1195 -0.1518
20926SOL    HW164452   7.639   8.459   6.575  0.2989  0.0336  0.2063
20926SOL    HW264453   7.768   8.432   6.650  0.2324 -0.7154  0.0606
20927SOL     OW64454   7.173   8.334   5.565 -0.0642 -0.0909 -0.6920
20927SOL    HW164455   7.146   8.253   5.609  0.4532  0.6357  1.0766
20927SOL    HW264456   7.264   8.320   5.542 -0.3465 -0.4869 -1.6043
20928SOL     OW64457   1.541   2.401   9.383 -0.1732 -0.1195  0.2119
20928SOL    HW164458   1.487   2.430   9.457  1.2436 -2.1530  2.2166
20928SOL    HW264459   1.593   2.477   9.359 -1.7412  1.0073  0.2672
20929SOL     OW64460   7.647   6.939   6.981  0.1024 -0.2285  0.2943
20929SOL    HW164461   7.708   6.909   6.913  0.0289 -0.8314  0.4897
20929SOL    HW264462   7.604   6.859   7.012  1.5549 -0.2660  2.4454
20930SOL     OW64463   1.265   1.735   4.576  0.1572  0.3962 -0.1220
20930SOL    HW164464   1.281   1.649   4.538 -0.3335  0.2061  0.0844
20930SOL    HW264465   1.170   1.745   4.573  0.2654  1.3611 -1.0722
20931SOL     OW64466   9.620   8.544   9.189 -0.1870 -0.1154 -0.0177
20931SOL    HW164467   9.630   8.583   9.277 -1.2402  0.4200 -0.1236
20931SOL    HW264468   9.623   8.619   9.130 -0.2474 -0.4054 -0.3888
20932SOL     OW64469   5.987   2.114   4.825 -0.1801  0.0113  0.2551
20932SOL    HW164470   6.073   2.155   4.833  0.7214 -1.6885 -0.0986
20932SOL    HW264471   5.976   2.100   4.731 -1.8565  2.1434  0.0522
20933SOL     OW64472   9.412   5.488   8.890 -0.3837  0.2302  0.4050
20933SOL    HW164473   9.374   5.472   8.977 -0.6409 -1.3141  0.0396
20933SOL    HW264474   9.391   5.409   8.840  0.2361  0.8680 -0.9074
20934SOL     OW64475   7.194   5.404   2.129 -0.3709 -0.3295  0.0370
20934SOL    HW164476   7.110   5.401   2.084  0.1020 -0.4501 -0.8485
20934SOL    HW264477   7.259   5.391   2.060  0.3709 -0.3719  0.7314
20935SOL     OW64478   6.529   4.810   2.205  0.4024  0.2759  0.2798
20935SOL    HW164479   6.576   4.727   2.217 -0.1016  0.0868  1.0252
20935SOL    HW264480   6.570   4.850   2.129  1.4804 -0.0819  0.6567
20936SOL     OW64481   8.484   5.127   3.931  0.3183 -0.5994 -0.5929
20936SOL    HW164482   8.399   5.145   3.890  0.2552  0.5599  0.0118
20936SOL    HW264483   8.532   5.209   3.922  1.1902 -1.0858 -0.4558
20937SOL     OW64484   6.177   0.678   4.380  0.5246 -0.3108  0.0164
20937SOL    HW164485   6.092   0.671   4.338 -0.1871 -1.1840  1.5165
20937SOL    HW264486   6.162   0.737   4.454  0.6348 -2.2182  1.6239
20938SOL     OW64487   8.155   1.865   2.968  0.0013  0.4348 -0.1774
20938SOL    HW164488   8.173   1.823   3.052  0.3975  2.2361  0.6927
20938SOL    HW264489   8.173   1.958   2.983  0.2190  0.7943 -2.3050
20939SOL     OW64490   8.412   6.221   7.466 -0.3712 -0.6479  0.0696
20939SOL    HW164491   8.482   6.200   7.527 -0.0643 -0.4148 -0.1997
20939SOL    HW264492   8.358   6.285   7.513 -0.5436 -1.0158  0.3712
20940SOL     OW64493   3.296   3.102   8.628  0.4689  0.2640 -0.2264
20940SOL    HW164494   3.223   3.094   8.690  0.5005 -0.3922 -0.2631
20940SOL    HW264495   3.367   3.053   8.668  1.9567  3.4095  1.3046
20941SOL     OW64496   3.800   8.582   8.036  0.1251  0.3571  0.0420
20941SOL    HW164497   3.728   8.567   8.096 -0.0354  1.2472  0.0889
20941SOL    HW264498   3.816   8.497   7.995 -1.2733  0.2594 -0.3254
20942SOL     OW64499   4.473   1.976   6.185  0.9252 -0.1075 -0.0944
20942SOL    HW164500   4.551   2.033   6.190  0.2371  1.0982 -1.8461
20942SOL    HW264501   4.506   1.893   6.150  1.2803  0.8836 -2.2906
20943SOL     OW64502   4.059   4.080   2.241  0.1524  0.0095  0.1544
20943SOL    HW164503   4.002   4.087   2.318  0.4581  0.8104  0.3116
20943SOL    HW264504   4.027   4.002   2.195  0.4198 -0.9005  1.4507
20944SOL     OW64505   9.312   5.914   2.352 -0.0637 -0.1649 -0.0888
20944SOL    HW164506   9.282   5.942   2.266 -0.0222 -0.9807 -0.3770
20944SOL    HW264507   9.374   5.982   2.380  0.0934 -0.0132 -0.7977
20945SOL     OW64508   7.761   3.731   5.986 -0.6287  0.1739 -0.1626
20945SOL    HW164509   7.667   3.727   5.969 -1.1398  1.8335  1.7905
20945SOL    HW264510   7.797   3.658   5.937 -2.6010  0.8358 -2.8813
20946SOL     OW64511   3.468   8.836   4.112  1.1396  0.3696 -0.1041
20946SOL    HW164512   3.387   8.791   4.139  0.8169  0.4945 -0.8407
20946SOL    HW264513   3.486   8.802   4.025  1.2504  1.1919 -0.4043
20947SOL     OW64514   3.359   4.860   6.489 -0.2163  0.1126  0.0845
20947SOL    HW164515   3.451   4.834   6.487  0.2518  1.3942  2.1742
20947SOL    HW264516   3.333   4.865   6.397  2.3654  1.5794 -0.6592
20948SOL     OW64517   6.877   2.138   5.747 -0.1642 -0.2521 -0.3888
20948SOL    HW164518   6.953   2.081   5.731  0.4149  0.7419 -1.3194
20948SOL    HW264519   6.845   2.160   5.660 -1.4813 -0.5591 -0.0052
20949SOL     OW64520   3.710   2.748   1.679 -0.1747 -0.1684 -0.7163
20949SOL    HW164521   3.645   2.706   1.736  0.9298 -2.5761 -1.0865
20949SOL    HW264522   3.665   2.824   1.643 -1.9542 -0.3775  0.9106
20950SOL     OW64523   3.214   2.706   0.212  0.5390  0.4610 -0.1797
20950SOL    HW164524   3.202   2.767   0.139  0.4840 -1.5076 -1.9098
20950SOL    HW264525   3.126   2.673   0.231  0.5470  0.9882  0.8336
20951SOL     OW64526   4.449   0.185   7.012 -0.3902  0.4186  0.6357
20951SOL    HW164527   4.431   0.110   6.957  3.3390 -0.8008  0.7832
20951SOL    HW264528   4.435   0.261   6.956 -0.0567 -0.6209 -0.8981
20952SOL     OW64529   4.104   9.067   8.689  0.0146 -0.4057 -0.6664
20952SOL    HW164530   4.057   9.075   8.605 -2.1283  0.2981  0.5170
20952SOL    HW264531   4.053   9.121   8.749  2.5381  0.6011  0.7110
20953SOL     OW64532   4.866   5.234   9.471  0.2163  0.6427 -0.0211
20953SOL    HW164533   4.921   5.199   9.401 -2.4306 -1.7469 -1.1076
20953SOL    HW264534   4.844   5.323   9.443  0.2050  0.1622 -1.6386
20954SOL     OW64535   1.866   1.881   8.455 -0.1447  0.1985 -0.2023
20954SOL    HW164536   1.858   1.801   8.507  0.0836  0.0997 -0.3180
20954SOL    HW264537   1.900   1.946   8.516  1.7074 -0.3334 -0.6116
20955SOL     OW64538   3.800   4.919   1.523 -0.6895 -0.3230 -0.5273
20955SOL    HW164539   3.782   4.826   1.532 -0.8853 -0.0938  2.4985
20955SOL    HW264540   3.715   4.960   1.507 -0.6666 -0.5874 -1.3737
20956SOL     OW64541   6.401   0.251   4.635 -0.4575  0.2453  0.4275
20956SOL    HW164542   6.338   0.222   4.569 -0.4642  0.4145  0.3590
20956SOL    HW264543   6.407   0.346   4.623  0.5281  0.1219 -0.2132
20957SOL     OW64544   8.803   4.519   4.278  0.2383 -0.0180 -0.3855
20957SOL    HW164545   8.846   4.479   4.354  2.2531  0.2038 -1.3345
20957SOL    HW264546   8.774   4.605   4.308  1.0379  0.0759  0.1436
20958SOL     OW64547   5.737   1.904   0.826 -0.0742  0.6164  0.2054
20958SOL    HW164548   5.671   1.856   0.877  0.4640 -1.1743 -0.7254
20958SOL    HW264549   5.686   1.952   0.761 -0.6151  1.3220  1.1145
20959SOL     OW64550   1.240   1.428   9.071  0.6501  0.0655 -0.0412
20959SOL    HW164551   1.331   1.398   9.065  0.6337  0.3274 -2.6041
20959SOL    HW264552   1.198   1.395   8.992 -1.1699  1.0008  0.4774
20960SOL     OW64553   3.260   7.300   1.667  0.3104 -0.1566  0.0895
20960SOL    HW164554   3.311   7.346   1.734 -0.3715 -2.1601  2.1377
20960SOL    HW264555   3.293   7.334   1.584  1.7386  1.9224  1.3922
20961SOL     OW64556   5.762   0.429   0.825  0.5455 -0.1616 -0.0605
20961SOL    HW164557   5.764   0.338   0.854 -0.8002 -0.0135  0.5720
20961SOL    HW264558   5.734   0.425   0.733  2.9254 -0.5086 -0.8255
20962SOL     OW64559   9.225   5.795   5.000  0.2818 -0.0825 -0.4299
20962SOL    HW164560   9.140   5.822   4.968 -0.2573 -0.8559  0.2984
20962SOL    HW264561   9.285   5.809   4.926 -0.2608  1.4808 -0.5889
20963SOL     OW64562   6.356   2.564   0.938  0.4757 -0.1699  0.1674
20963SOL    HW164563   6.395   2.632   0.883 -0.5320  1.6611  1.6294
20963SOL    HW264564   6.262   2.580   0.934  0.2594 -1.1364  0.9691
20964SOL     OW64565   1.183   2.997   2.936 -0.3366 -0.5781  0.2968
20964SOL    HW164566   1.248   2.932   2.910 -1.5190 -1.5655 -0.2570
20964SOL    HW264567   1.104   2.973   2.888 -0.8310  1.2302  0.1172
20965SOL     OW64568   2.585   1.450   8.815  0.6800 -0.6654  0.7794
20965SOL    HW164569   2.565   1.528   8.868 -1.9628 -0.1116 -0.8138
20965SOL    HW264570   2.506   1.396   8.822  0.7240 -1.1198 -1.5799
20966SOL     OW64571   3.065   4.549   4.218  0.4317 -0.4037  0.6900
20966SOL    HW164572   3.126   4.577   4.149  0.1961 -0.5311  0.4256
20966SOL    HW264573   3.118   4.546   4.297  0.2092  2.0429  1.0222
20967SOL     OW64574   5.756   5.526   3.451  0.2580  0.2822 -0.2190
20967SOL    HW164575   5.713   5.547   3.534  1.4464  1.1616  0.2054
20967SOL    HW264576   5.844   5.496   3.476  0.8378  1.1139 -1.1811
20968SOL     OW64577   5.131   1.797   6.198  0.1642  0.8934  0.0717
20968SOL    HW164578   5.168   1.838   6.276  0.5799  1.0405 -0.2002
20968SOL    HW264579   5.197   1.810   6.130  0.1008  0.1723 -0.1354
20969SOL     OW64580   6.981   1.156   9.056  0.0434  0.2510 -0.2812
20969SOL    HW164581   7.009   1.096   8.988 -0.0730  0.1386 -0.2306
20969SOL    HW264582   6.885   1.154   9.052 -0.0189 -1.1443  1.0825
20970SOL     OW64583   4.579   9.390   4.116 -0.2888  0.6245  0.3927
20970SOL    HW164584   4.590   9.484   4.134  2.7270  0.8787 -1.8235
20970SOL    HW264585   4.669   9.356   4.115 -1.2435 -2.1205  0.1995
20971SOL     OW64586   9.348   6.177   5.709  0.2205 -0.4450  0.0165
20971SOL    HW164587   9.347   6.122   5.630 -0.0149 -3.1575  1.7638
20971SOL    HW264588   9.256   6.189   5.731  0.2032  1.8764 -1.0346
20972SOL     OW64589   9.352   7.921   0.472 -0.5148  0.2807 -0.1497
20972SOL    HW164590   9.339   7.830   0.444  1.0360  0.0610 -0.2212
20972SOL    HW264591   9.263   7.955   0.481 -1.2891 -1.9797  2.3285
20973SOL     OW64592   0.200   8.146   2.942  0.5119 -0.6649  0.2055
20973SOL    HW164593   0.268   8.198   2.899 -0.5454  1.4855  0.9733
20973SOL    HW264594   0.233   8.134   3.031 -1.4053  3.5269  1.7852
20974SOL     OW64595   5.732   4.392   3.425 -0.1042 -0.4739  0.6454
20974SOL    HW164596   5.677   4.334   3.372 -1.0489  0.2948  0.7585
20974SOL    HW264597   5.670   4.438   3.482  0.8267 -0.8943  2.0574
20975SOL     OW64598   0.691   4.969   0.958  0.5119  0.7176 -0.3805
20975SOL    HW164599   0.697   4.874   0.972  0.0469  0.7915  0.4145
20975SOL    HW264600   0.675   4.979   0.864  1.6120  0.0628 -0.6436
20976SOL     OW64601   4.354   7.160   7.765  0.1619 -0.1327  0.1043
20976SOL    HW164602   4.340   7.221   7.692  1.4334  1.1332  0.8599
20976SOL    HW264603   4.392   7.082   7.724 -0.1174  0.1456 -0.7094
20977SOL     OW64604   4.684   9.155   4.614 -0.1560  0.0065  0.0213
20977SOL    HW164605   4.612   9.198   4.568 -0.4821  1.2354  1.5833
20977SOL    HW264606   4.640   9.094   4.675  0.0172  1.4427  1.6570
20978SOL     OW64607   1.956   1.116   2.116  0.2388 -0.2229 -0.1982
20978SOL    HW164608   1.996   1.103   2.202 -0.3519 -2.0282 -0.1681
20978SOL    HW264609   1.877   1.063   2.118 -0.3963  0.6381 -1.4552
20979SOL     OW64610   7.742   4.524   3.851  0.5573 -0.2167 -0.7043
20979SOL    HW164611   7.764   4.520   3.758 -0.4819  1.8339 -1.0933
20979SOL    HW264612   7.820   4.562   3.893 -0.1059  1.9129 -1.2723
20980SOL     OW64613   0.523   8.453   1.127 -0.1222  0.6489  0.2087
20980SOL    HW164614   0.449   8.401   1.157 -1.1286  1.1806 -1.2202
20980SOL    HW264615   0.580   8.391   1.082 -0.5972  0.5261 -0.2303
20981SOL     OW64616   3.103   8.637   5.146  0.0553  0.2302  0.4142
20981SOL    HW164617   3.175   8.683   5.102 -1.0227  1.6747  0.0749
20981SOL    HW264618   3.063   8.585   5.077  1.2680 -1.2688  0.7942
20982SOL     OW64619   4.312   9.614   4.003  0.1488 -0.2727  0.2027
20982SOL    HW164620   4.340   9.594   4.093 -0.7968  2.0076  1.0786
20982SOL    HW264621   4.230   9.567   3.992 -0.4718  0.5656  1.0909
20983SOL     OW64622   3.392   7.454   7.842  0.6892  0.0269  0.3205
20983SOL    HW164623   3.478   7.420   7.867  0.8346 -1.7635 -2.1739
20983SOL    HW264624   3.411   7.514   7.769 -0.0770  0.6645  0.6352
20984SOL     OW64625   1.800   9.505   2.434  0.0278 -0.0991  0.3795
20984SOL    HW164626   1.802   9.544   2.347  0.3961  2.2985  1.4036
20984SOL    HW264627   1.884   9.460   2.442 -0.4128 -1.2034 -0.8203
20985SOL     OW64628   6.616   4.383   2.620  0.3057  0.5266 -0.6217
20985SOL    HW164629   6.628   4.478   2.619 -2.3028  0.9743  0.7025
20985SOL    HW264630   6.540   4.367   2.564  0.2198 -0.6856 -0.2080
20986SOL     OW64631   8.317   3.230   7.041  0.1290  0.3271  0.8489
20986SOL    HW164632   8.351   3.142   7.029  0.8361  0.5205  1.3862
20986SOL    HW264633   8.222   3.220   7.033  0.2183 -0.4292  0.6263
20987SOL     OW64634   1.471   0.656   2.290  0.2921 -0.4496 -0.5609
20987SOL    HW164635   1.503   0.617   2.208 -0.3970 -1.8142 -0.2159
20987SOL    HW264636   1.387   0.612   2.306  0.4739 -0.2895  0.9481
20988SOL     OW64637   7.066   6.855   2.243 -0.0061 -0.4606  0.0538
20988SOL    HW164638   7.062   6.923   2.310 -0.7463  1.2134 -1.5967
20988SOL    HW264639   7.152   6.865   2.203  0.1005 -0.8801  0.1735
20989SOL     OW64640   8.559   7.239   1.453  0.6241 -0.1650 -0.4442
20989SOL    HW164641   8.526   7.185   1.381 -1.6553 -1.1911  1.2540
20989SOL    HW264642   8.510   7.321   1.446 -1.2498 -1.0826  1.1310
20990SOL     OW64643   9.159   3.677   9.244  0.1777  0.3301 -0.1407
20990SOL    HW164644   9.215   3.734   9.192 -0.5687 -0.3247 -1.7247
20990SOL    HW264645   9.177   3.589   9.211 -0.9767 -0.0017  0.0803
20991SOL     OW64646   6.283   4.507   0.924  0.1158  0.0344  0.3656
20991SOL    HW164647   6.213   4.448   0.952  0.6394 -0.6270  0.3111
20991SOL    HW264648   6.282   4.502   0.829  0.0273  0.2752  0.3530
20992SOL     OW64649   0.033   5.013   0.933 -0.5571  0.4285 -0.1196
20992SOL    HW164650  -0.041   5.065   0.966  0.4505  2.9314 -1.4997
20992SOL    HW264651   0.016   5.003   0.840  1.1355  1.7870 -0.6503
20993SOL     OW64652   0.542   7.662   8.974 -0.0417  0.0856 -0.5579
20993SOL    HW164653   0.549   7.572   9.004 -0.2253 -0.2575 -1.5199
20993SOL    HW264654   0.448   7.682   8.977  0.1871  1.1617  2.2051
20994SOL     OW64655   5.229   4.911   0.232 -0.2991 -0.1402  0.2171
20994SOL    HW164656   5.137   4.910   0.259 -0.3692 -0.5004 -0.0284
20994SOL    HW264657   5.278   4.903   0.313 -0.4843  0.0214  0.3472
20995SOL     OW64658   5.426   3.010   3.742  0.0684  0.1777  0.7700
20995SOL    HW164659   5.458   2.929   3.704  0.8065  0.9898 -0.4195
20995SOL    HW264660   5.493   3.075   3.721 -1.2142  1.4157  0.3032
20996SOL     OW64661   3.157   4.823   0.414  0.2708 -0.4771 -0.2861
20996SOL    HW164662   3.160   4.764   0.338 -1.1372  0.2096 -0.8985
20996SOL    HW264663   3.086   4.789   0.467  1.4076 -1.1032  0.9022
20997SOL     OW64664   2.970   8.015   2.780  0.0062  0.0262  0.7836
20997SOL    HW164665   2.981   7.951   2.709 -0.4799 -0.0780  0.8015
20997SOL    HW264666   3.042   7.995   2.841  0.4856  0.1837  0.2735
20998SOL     OW64667   2.547   6.792   2.438 -0.2121  0.4694 -0.3561
20998SOL    HW164668   2.531   6.858   2.371 -0.0091  1.3800  0.4610
20998SOL    HW264669   2.481   6.725   2.422  1.3751 -0.6218 -3.0202
20999SOL     OW64670   0.400   1.791   5.541  0.1696 -0.0793  0.1536
20999SOL    HW164671   0.358   1.705   5.548  0.7876 -0.3365  0.7947
20999SOL    HW264672   0.445   1.789   5.457 -0.7670  0.0533 -0.3620
21000SOL     OW64673   1.594   1.437   8.719  0.0885  0.2484 -0.4256
21000SOL    HW164674   1.672   1.447   8.664 -0.8084 -0.2318 -1.8367
21000SOL    HW264675   1.593   1.516   8.773  0.7041  1.0370 -1.5106
21001SOL     OW64676   0.631   6.293   1.933  0.1609  0.2033  0.1359
21001SOL    HW164677   0.582   6.226   1.885 -1.0176  1.6052 -0.7149
21001SOL    HW264678   0.568   6.331   1.994  1.0845 -0.1068  1.3226
21002SOL     OW64679   9.376   5.530   6.964  0.0554 -0.2962 -0.1415
21002SOL    HW164680   9.310   5.587   6.926  1.1034 -0.3581 -2.2050
21002SOL    HW264681   9.450   5.587   6.984 -0.8269 -0.0674  2.9907
21003SOL     OW64682   7.109   9.402   7.498 -0.1572  0.1062  0.3745
21003SOL    HW164683   7.035   9.463   7.489 -1.6906 -1.4730  1.5348
21003SOL    HW264684   7.124   9.396   7.592  1.2935  0.1753  0.1641
21004SOL     OW64685   7.817   8.682   7.791  0.2617  0.1985 -0.1269
21004SOL    HW164686   7.882   8.739   7.832 -1.9655  1.3184  2.0754
21004SOL    HW264687   7.794   8.618   7.859 -0.5859 -0.4857 -1.0264
21005SOL     OW64688   7.520   1.074   4.204  0.1269  0.6744 -0.1292
21005SOL    HW164689   7.498   1.167   4.204  0.0054  0.6748  1.5477
21005SOL    HW264690   7.589   1.065   4.270  0.0696 -0.4290 -0.1961
21006SOL     OW64691   7.706   2.290   7.631  0.2316 -0.7857  0.0964
21006SOL    HW164692   7.771   2.360   7.631 -0.3555 -0.2311 -0.5111
21006SOL    HW264693   7.655   2.305   7.711 -1.4434  0.9731 -1.2313
21007SOL     OW64694   8.168   1.719   5.245 -0.1468  0.1195  0.0860
21007SOL    HW164695   8.187   1.762   5.162  0.2616  0.2082  0.2227
21007SOL    HW264696   8.081   1.750   5.270  0.3066  1.1960  0.3906
21008SOL     OW64697   9.162   7.653   7.415 -0.2587 -0.5133 -0.3332
21008SOL    HW164698   9.168   7.738   7.459 -0.5394 -1.1170  0.9269
21008SOL    HW264699   9.215   7.595   7.469  1.1526 -0.8510 -1.9983
21009SOL     OW64700   6.415   6.690   9.117  0.1648  0.3865 -0.3004
21009SOL    HW164701   6.355   6.764   9.110  2.0735  2.0446 -0.0508
21009SOL    HW264702   6.392   6.634   9.042 -2.5319  0.2092  0.5392
21010SOL     OW64703   3.571   7.581   5.620  0.0145 -0.1720 -0.1427
21010SOL    HW164704   3.555   7.658   5.565 -1.0628  1.4638  2.2876
21010SOL    HW264705   3.539   7.507   5.568  0.5106  1.0567 -2.3025
21011SOL     OW64706   2.614   0.234   6.483  0.2678  0.0709  0.7413
21011SOL    HW164707   2.650   0.309   6.435 -0.8675 -0.4021 -0.9385
21011SOL    HW264708   2.573   0.272   6.560  0.8734  1.0297  0.6063
21012SOL     OW64709   3.598   3.106   3.762  0.1826  0.0561  0.1585
21012SOL    HW164710   3.548   3.185   3.742  0.9254  0.3390 -0.6061
21012SOL    HW264711   3.604   3.106   3.858 -1.4185 -0.0876  0.2973
21013SOL     OW64712   4.254   7.700   7.921 -0.5178 -0.1410 -0.3682
21013SOL    HW164713   4.200   7.690   7.998 -0.7680  0.3101 -0.4819
21013SOL    HW264714   4.257   7.794   7.905  0.6254 -0.1158 -0.1298
21014SOL     OW64715   7.176   2.949   2.534 -0.0023 -0.4019 -0.0697
21014SOL    HW164716   7.233   2.967   2.459 -0.0278  0.6511  0.1575
21014SOL    HW264717   7.200   3.014   2.599 -1.2158 -0.1752  0.1630
21015SOL     OW64718   9.244   0.627   1.673 -0.2748  0.5620 -0.1304
21015SOL    HW164719   9.225   0.721   1.672 -3.6302  0.0381  1.1656
21015SOL    HW264720   9.175   0.589   1.618  0.6018 -1.2206 -0.0543
21016SOL     OW64721   7.642   2.418   9.556 -0.2910  0.5814  0.3714
21016SOL    HW164722   7.615   2.391   9.469 -1.4457  2.0565  0.2275
21016SOL    HW264723   7.601   2.503   9.569 -1.2083 -0.1337  2.8488
21017SOL     OW64724   5.694   6.831   3.235 -0.5850  0.5109 -0.6744
21017SOL    HW164725   5.759   6.825   3.166 -0.4764 -2.5651 -0.4743
21017SOL    HW264726   5.744   6.824   3.316 -1.0506 -1.9556 -0.5192
21018SOL     OW64727   7.014   7.417   1.290 -0.2984  0.5485 -0.3080
21018SOL    HW164728   7.030   7.327   1.263 -2.0290 -0.7332  2.5936
21018SOL    HW264729   6.932   7.441   1.246 -1.0443 -0.1404  0.6716
21019SOL     OW64730   4.466   1.641   8.100  0.4058  0.1943 -0.0796
21019SOL    HW164731   4.512   1.715   8.060 -1.2230  0.5282 -1.4149
21019SOL    HW264732   4.376   1.648   8.069  0.2866 -2.6586 -0.6714
21020SOL     OW64733   1.834   4.319   2.556 -0.0029  0.1691  0.0791
21020SOL    HW164734   1.871   4.321   2.468  2.1717 -0.6714  0.9066
21020SOL    HW264735   1.822   4.412   2.580 -1.1221  0.3950 -1.2524
21021SOL     OW64736   0.455   7.290   3.398 -0.3233 -0.8557  0.2074
21021SOL    HW164737   0.397   7.214   3.396 -0.7888 -0.4980 -0.2141
21021SOL    HW264738   0.420   7.349   3.330 -0.8261  0.3595  1.4582
21022SOL     OW64739   4.285   1.174   8.566  0.0102 -0.5677  0.2439
21022SOL    HW164740   4.246   1.244   8.513 -0.1747 -0.4043  0.5918
21022SOL    HW264741   4.219   1.106   8.568  0.1041 -0.6649  0.0872
21023SOL     OW64742   2.005   9.004   0.523  1.0401  0.2101  0.6544
21023SOL    HW164743   2.076   9.008   0.459  1.5446  1.2983  1.2537
21023SOL    HW264744   1.927   8.984   0.471  1.4892  0.7434 -0.2524
21024SOL     OW64745   8.686   6.135   7.542  0.0926  0.3335  0.2917
21024SOL    HW164746   8.705   6.217   7.587 -0.2432  0.7943 -0.3907
21024SOL    HW264747   8.749   6.132   7.470  0.0684  0.0193  0.2834
21025SOL     OW64748   3.622   1.897   7.601  0.4722  0.3239 -0.5206
21025SOL    HW164749   3.605   1.829   7.536 -1.3893  1.6504 -1.5177
21025SOL    HW264750   3.542   1.899   7.654  1.5240  0.0197  1.1606
21026SOL     OW64751   7.296   7.068   7.418  0.1461 -0.3229 -0.3387
21026SOL    HW164752   7.247   7.012   7.478  3.3894 -1.9037  1.0654
21026SOL    HW264753   7.248   7.062   7.335 -1.5492 -2.3820  0.7010
21027SOL     OW64754   0.420   1.904   1.400  0.0736 -0.2016 -0.1165
21027SOL    HW164755   0.360   1.959   1.451 -2.7880 -2.4321 -0.8172
21027SOL    HW264756   0.454   1.963   1.332 -0.5930  1.3789  0.8654
21028SOL     OW64757   0.284   2.847   8.962  0.4904 -0.0807 -0.0583
21028SOL    HW164758   0.224   2.860   9.036 -0.0276  1.7958 -0.7507
21028SOL    HW264759   0.336   2.770   8.986 -2.7290 -2.3421  0.1861
21029SOL     OW64760   0.399   9.209   0.936 -0.1926 -0.3629  1.0165
21029SOL    HW164761   0.321   9.203   0.880  0.0151  0.1648  0.6608
21029SOL    HW264762   0.366   9.245   1.019 -0.0225  1.8996  0.1664
21030SOL     OW64763   8.513   5.486   6.373 -1.0519  0.5509  0.3240
21030SOL    HW164764   8.489   5.513   6.461 -2.4456 -1.3251  0.5802
21030SOL    HW264765   8.578   5.551   6.344 -1.0620  1.5719  2.4486
21031SOL     OW64766   3.458   4.031   0.988  0.2627  0.1229 -0.1096
21031SOL    HW164767   3.469   4.044   1.083  1.4251  1.3632 -0.3907
21031SOL    HW264768   3.535   3.982   0.962  0.2548  0.3278 -0.5221
21032SOL     OW64769   8.969   5.250   1.775 -0.6942  0.2948  0.1125
21032SOL    HW164770   9.055   5.290   1.785 -0.0449 -0.6861 -1.1858
21032SOL    HW264771   8.952   5.207   1.859  0.2160  0.2666  0.2871
21033SOL     OW64772   5.777   7.893   9.270  0.4332  0.2126  0.0305
21033SOL    HW164773   5.732   7.963   9.317  1.3300 -0.6398  2.3257
21033SOL    HW264774   5.836   7.938   9.210  0.3628  1.4393  0.8454
21034SOL     OW64775   1.091   1.988   5.574  0.3456  0.3612 -0.3205
21034SOL    HW164776   1.002   2.013   5.552  0.2970  1.0495  0.6196
21034SOL    HW264777   1.140   1.997   5.492 -0.1290  1.4422 -0.4929
21035SOL     OW64778   9.169   1.045   1.904 -0.0798 -0.3383  0.1387
21035SOL    HW164779   9.209   1.104   1.840  0.2793 -1.2624 -0.4969
21035SOL    HW264780   9.076   1.066   1.901  0.2510  1.5728  1.3552
21036SOL     OW64781   5.953   0.159   5.081 -0.4714 -0.0546  0.4730
21036SOL    HW164782   5.979   0.251   5.077 -1.2413  0.1246 -0.8645
21036SOL    HW264783   6.027   0.116   5.125  0.7142  0.9132 -0.4765
21037SOL     OW64784   5.127   2.059   3.954 -0.0447 -0.2447  0.3200
21037SOL    HW164785   5.175   2.138   3.981  0.3020 -0.3977  0.1632
21037SOL    HW264786   5.085   2.028   4.034 -1.7950  1.1830  0.0316
21038SOL     OW64787   1.965   5.513   0.887  0.0979  0.1578 -0.1091
21038SOL    HW164788   1.950   5.446   0.821 -0.6985  1.2382 -1.0682
21038SOL    HW264789   2.059   5.530   0.885  0.2514 -0.6642 -0.0999
21039SOL     OW64790   9.564   1.022   2.324  0.5026  0.2396  0.2808
21039SOL    HW164791   9.540   1.083   2.394  1.0722 -0.0172  0.7070
21039SOL    HW264792   9.498   0.952   2.329 -0.3332  0.9511 -0.4050
21040SOL     OW64793   6.565   4.531   5.860 -0.9277  0.3040  0.3503
21040SOL    HW164794   6.490   4.472   5.855 -0.0219 -0.8861  0.4009
21040SOL    HW264795   6.639   4.480   5.826 -0.0363  1.2680  0.7684
21041SOL     OW64796   3.161   4.986   0.107 -0.1086  0.2413  0.3214
21041SOL    HW164797   3.237   5.038   0.132  0.3977  0.0429 -0.7288
21041SOL    HW264798   3.091   5.050   0.094  0.3083  0.6016 -0.2267
21042SOL     OW64799   3.424   8.463   8.370 -0.2748  0.2276  0.2765
21042SOL    HW164800   3.468   8.380   8.356 -0.3458  0.2606 -0.1661
21042SOL    HW264801   3.346   8.440   8.421  0.0332  0.1142  0.7021
21043SOL     OW64802   2.122   0.938   6.724  0.0001 -0.2476  0.0335
21043SOL    HW164803   2.131   1.009   6.788  2.6548 -0.5767  0.1287
21043SOL    HW264804   2.211   0.906   6.710 -0.8363 -2.0569 -1.7526
21044SOL     OW64805   3.415   0.499   4.875 -0.3182 -0.1948 -0.5136
21044SOL    HW164806   3.337   0.445   4.877 -0.5107  0.0696 -0.7558
21044SOL    HW264807   3.479   0.451   4.928 -0.6679 -0.3706 -0.2456
21045SOL     OW64808   3.211   5.060   6.617 -0.2343  0.2328  0.1995
21045SOL    HW164809   3.286   5.009   6.585 -0.5514  0.2661 -0.6293
21045SOL    HW264810   3.166   5.088   6.537 -0.8803  0.5890  0.6829
21046SOL     OW64811   6.188   5.089   7.895 -0.0553 -0.1841  0.3418
21046SOL    HW164812   6.097   5.077   7.869  0.0668 -1.7516  0.5086
21046SOL    HW264813   6.229   5.004   7.876  1.1526  0.2087  1.0995
21047SOL     OW64814   3.107   0.983   2.796  0.6005 -0.3122 -0.2512
21047SOL    HW164815   3.041   1.017   2.857  0.8297  0.8832 -0.6362
21047SOL    HW264816   3.190   1.004   2.837  0.7582 -0.9562 -0.2264
21048SOL     OW64817   0.583   0.607   4.425 -0.2329 -0.0159 -0.0467
21048SOL    HW164818   0.598   0.576   4.335 -0.8153  0.6965 -0.3933
21048SOL    HW264819   0.670   0.603   4.465  0.4812  1.7473 -1.3085
21049SOL     OW64820   7.759   2.203   5.585  0.3151  0.3121 -0.1122
21049SOL    HW164821   7.679   2.152   5.576 -1.2332  2.4338  0.8598
21049SOL    HW264822   7.797   2.204   5.497 -1.2142  0.0209 -0.8034
21050SOL     OW64823   8.262   4.352   5.705 -0.3791  0.0844  0.0169
21050SOL    HW164824   8.194   4.397   5.655 -1.9073 -1.3509  0.6832
21050SOL    HW264825   8.324   4.421   5.728 -2.5689  1.8891  0.9580
21051SOL     OW64826   1.582   1.881   1.790 -0.0518  0.6288  0.3480
21051SOL    HW164827   1.487   1.876   1.780 -0.0805 -0.6401  1.1095
21051SOL    HW264828   1.597   1.868   1.883  0.8602  1.2866  0.3109
21052SOL     OW64829   2.606   4.452   4.755 -0.2936 -0.6161  0.4343
21052SOL    HW164830   2.682   4.400   4.727 -0.7881 -1.2803  0.2933
21052SOL    HW264831   2.553   4.461   4.676 -0.5796 -0.5340  0.6350
21053SOL     OW64832   7.159   9.526   4.660 -0.1753 -0.0387 -0.6413
21053SOL    HW164833   7.090   9.589   4.637  0.6876  0.7674 -1.0671
21053SOL    HW264834   7.146   9.509   4.753 -3.0815 -2.5515 -1.3303
21054SOL     OW64835   2.851   0.755   4.846  0.1603 -0.0134  0.2703
21054SOL    HW164836   2.912   0.720   4.782  0.3793 -2.1034  1.5196
21054SOL    HW264837   2.766   0.754   4.802  0.2016 -1.9946  0.1510
21055SOL     OW64838   1.882   8.371   9.092 -0.1979 -0.2491  0.4140
21055SOL    HW164839   1.872   8.463   9.118 -0.0448  0.5176 -2.0049
21055SOL    HW264840   1.815   8.357   9.026  0.1434 -1.7225  0.3541
21056SOL     OW64841   4.184   0.760   9.457  0.0730  0.3071 -0.0464
21056SOL    HW164842   4.237   0.826   9.414  0.8393  0.9065  1.7166
21056SOL    HW264843   4.213   0.762   9.549 -1.7821 -0.5603  0.6128
21057SOL     OW64844   4.593   3.139   3.727 -0.3039 -0.1128  0.2686
21057SOL    HW164845   4.689   3.133   3.724 -0.4248 -2.2597 -1.9435
21057SOL    HW264846   4.576   3.209   3.790  2.6956  0.0937  1.0095
21058SOL     OW64847   1.196   7.692   6.527 -0.3799 -0.0629 -0.1423
21058SOL    HW164848   1.163   7.603   6.518  2.2811 -1.0798 -0.9744
21058SOL    HW264849   1.275   7.683   6.581  0.0789  1.7410 -0.4356
21059SOL     OW64850   4.958   6.955   6.751 -0.1486 -0.3983 -0.0746
21059SOL    HW164851   4.881   6.933   6.698  0.9148 -2.1235 -1.0104
21059SOL    HW264852   4.956   6.892   6.824 -0.3867  0.4933  0.7043
21060SOL     OW64853   5.537   3.142   6.318 -0.7126 -0.0640 -0.6823
21060SOL    HW164854   5.501   3.122   6.232 -2.1607 -0.7697  0.0647
21060SOL    HW264855   5.597   3.070   6.337  0.2337  0.4992 -1.4060
21061SOL     OW64856   3.131   1.349   6.859  0.4006  0.6910  0.4845
21061SOL    HW164857   3.059   1.398   6.898 -0.3268 -1.5477  2.1535
21061SOL    HW264858   3.097   1.320   6.774  0.0474  1.2300  0.4360
21062SOL     OW64859   5.924   0.914   5.112  0.1652 -0.3157  0.1233
21062SOL    HW164860   5.995   0.978   5.108 -1.4651  1.5432 -2.4689
21062SOL    HW264861   5.865   0.948   5.180 -0.4707  0.7916 -0.9329
21063SOL     OW64862   4.254   6.687   8.307  0.1114 -0.4534  0.0826
21063SOL    HW164863   4.333   6.639   8.332  0.9539  0.3921 -0.8341
21063SOL    HW264864   4.285   6.750   8.241 -0.8047  1.7322  1.6316
21064SOL     OW64865   2.844   3.801   8.139 -0.0312  0.2455  0.4677
21064SOL    HW164866   2.783   3.849   8.195  0.1221  1.3980 -0.3095
21064SOL    HW264867   2.798   3.720   8.118 -0.8540  0.6237  0.7602
21065SOL     OW64868   4.838   0.644   2.612  0.5405 -0.3339 -0.7171
21065SOL    HW164869   4.848   0.628   2.705  0.3893  0.4488 -0.5586
21065SOL    HW264870   4.813   0.559   2.575 -1.5962 -0.1914  0.2743
21066SOL     OW64871   1.905   7.354   9.615 -0.2764  0.3414  0.7525
21066SOL    HW164872   1.850   7.377   9.539  3.0990  1.8023 -1.5453
21066SOL    HW264873   1.906   7.434   9.668  1.3533  1.2579 -0.5165
21067SOL     OW64874   6.145   6.372   6.348  0.0402  0.0637  0.2517
21067SOL    HW164875   6.096   6.326   6.280  0.4931  0.6609 -0.4962
21067SOL    HW264876   6.234   6.338   6.341  0.5545  1.5545 -0.8096
21068SOL     OW64877   8.170   2.467   0.894  1.0439  0.4213  0.2323
21068SOL    HW164878   8.263   2.451   0.877  0.5668 -0.8834 -1.4375
21068SOL    HW264879   8.136   2.500   0.811 -0.7229 -2.9360 -0.5435
21069SOL     OW64880   8.721   7.548   3.371 -0.0535  0.2914  0.4665
21069SOL    HW164881   8.791   7.608   3.346  0.1572  0.0598  0.5044
21069SOL    HW264882   8.661   7.549   3.296 -1.0759  2.0794  1.2550
21070SOL     OW64883   5.677   4.759   4.143  0.5055  0.1543  0.3414
21070SOL    HW164884   5.698   4.784   4.233  2.4566  1.3426 -0.3788
21070SOL    HW264885   5.749   4.702   4.116  0.4186  0.5368 -0.7452
21071SOL     OW64886   6.019   7.284   6.802  0.4780  0.6555  0.2957
21071SOL    HW164887   6.068   7.201   6.801 -1.0688 -0.3196 -0.7640
21071SOL    HW264888   5.945   7.268   6.743  0.1832  2.8516 -0.0120
21072SOL     OW64889   2.494   0.186   6.081  0.2111 -0.0541 -0.1938
21072SOL    HW164890   2.462   0.254   6.023 -0.9223  0.2437  0.7514
21072SOL    HW264891   2.589   0.187   6.069 -0.0753 -1.7508 -3.9396
21073SOL     OW64892   6.434   2.336   8.574  0.3821 -0.0621 -0.0191
21073SOL    HW164893   6.467   2.313   8.487  0.4951  0.6636 -0.1741
21073SOL    HW264894   6.465   2.425   8.589 -0.3882  0.1510  0.3885
21074SOL     OW64895   5.336   5.693   0.889 -0.0545 -0.0180 -0.6711
21074SOL    HW164896   5.268   5.704   0.823  0.7238  0.6561 -1.3959
21074SOL    HW264897   5.307   5.748   0.963 -0.1685  0.4849 -1.0816
21075SOL     OW64898   8.458   8.352   5.115  0.6146 -0.3825 -0.6050
21075SOL    HW164899   8.421   8.264   5.122 -0.9555  0.2327 -0.7681
21075SOL    HW264900   8.549   8.342   5.143  0.9503 -2.3535 -2.1215
21076SOL     OW64901   5.577   8.312   5.256  0.3522  0.2060  0.2875
21076SOL    HW164902   5.514   8.380   5.232  1.1071  0.1607 -2.1074
21076SOL    HW264903   5.530   8.230   5.241  0.9553  0.1643 -1.7782
21077SOL     OW64904   6.571   6.124   3.696 -0.2919  0.4094 -0.4432
21077SOL    HW164905   6.527   6.081   3.623 -0.0880 -1.0996  0.2867
21077SOL    HW264906   6.507   6.188   3.729 -0.0511  1.8246 -2.4830
21078SOL     OW64907   0.813   7.050   0.588 -0.5710  0.7048 -0.5537
21078SOL    HW164908   0.852   7.099   0.661  1.1318  0.1043 -1.0035
21078SOL    HW264909   0.887   7.002   0.550 -1.8540 -0.8436 -1.2069
21079SOL     OW64910   8.016   0.986   2.622 -0.6532  0.3129 -0.5669
21079SOL    HW164911   7.921   0.994   2.629 -0.6283  0.6324 -0.5747
21079SOL    HW264912   8.032   0.893   2.606 -0.9269  0.1742 -0.0237
21080SOL     OW64913   4.715   7.027   8.692  0.0929  0.5047  0.5600
21080SOL    HW164914   4.731   6.944   8.737  1.0472  0.4386  0.1260
21080SOL    HW264915   4.651   7.005   8.624  0.7448 -0.0103  0.0931
21081SOL     OW64916   0.505   3.517   8.071 -0.2595  0.4351  0.2614
21081SOL    HW164917   0.423   3.471   8.053 -0.9513  1.3782  0.9137
21081SOL    HW264918   0.484   3.610   8.057  0.4060  0.7798  1.4551
21082SOL     OW64919   0.759   1.551   4.574  0.1019 -0.2686  0.1774
21082SOL    HW164920   0.746   1.492   4.500  1.2831 -1.3374  0.7684
21082SOL    HW264921   0.673   1.558   4.616 -0.7210  0.8299 -1.5944
21083SOL     OW64922   4.207   5.457   3.341  0.1522 -0.5895  0.7074
21083SOL    HW164923   4.296   5.484   3.317 -0.2398 -0.3980 -0.6325
21083SOL    HW264924   4.204   5.467   3.436  1.0065  1.1195  0.6053
21084SOL     OW64925   3.585   1.831   4.032  0.1490  0.0859  0.0935
21084SOL    HW164926   3.530   1.791   4.099  0.8819  0.0483  0.6826
21084SOL    HW264927   3.562   1.785   3.951  0.1985 -0.7877  0.5684
21085SOL     OW64928   0.957   1.519   9.513 -0.0402  0.1531 -0.2517
21085SOL    HW164929   0.964   1.599   9.565  1.5813  0.3128 -0.6630
21085SOL    HW264930   0.929   1.549   9.427 -0.0454  0.1957 -0.2347
21086SOL     OW64931   7.856   7.793   7.888 -0.2274  0.0689 -0.2966
21086SOL    HW164932   7.881   7.720   7.832  0.0017 -0.8609  0.9705
21086SOL    HW264933   7.832   7.753   7.972 -2.0494  1.2677 -0.1648
21087SOL     OW64934   8.188   1.400   2.522 -0.2961  0.1727  0.6830
21087SOL    HW164935   8.183   1.398   2.426 -2.1106 -0.7156  0.7342
21087SOL    HW264936   8.170   1.491   2.545  1.1967  0.6172  0.1746
21088SOL     OW64937   2.736   7.859   6.266  0.1229 -0.0838  0.3750
21088SOL    HW164938   2.705   7.816   6.186  0.5037  0.6315 -0.1767
21088SOL    HW264939   2.656   7.889   6.309 -0.1355 -1.2385  0.7147
21089SOL     OW64940   1.809   4.416   1.850 -0.2480 -0.2399 -0.0939
21089SOL    HW164941   1.784   4.467   1.927 -0.5356 -1.5530  0.6994
21089SOL    HW264942   1.738   4.431   1.788 -0.5385 -0.0151  0.2858
21090SOL     OW64943   5.005   7.712   5.456 -0.1078 -0.4527 -0.3643
21090SOL    HW164944   4.916   7.682   5.474 -0.0871 -0.8557 -0.8781
21090SOL    HW264945   5.044   7.639   5.407  0.7062 -0.5473  0.3978
21091SOL     OW64946   0.155   8.866   2.306 -0.4525 -0.0248  0.6178
21091SOL    HW164947   0.081   8.855   2.366  0.8835 -0.1134  2.3041
21091SOL    HW264948   0.158   8.784   2.256 -1.9279  0.2819 -0.0403
21092SOL     OW64949   4.714   5.457   1.060 -0.5583  0.1117 -0.0683
21092SOL    HW164950   4.667   5.541   1.061 -2.1516 -0.7156 -0.9643
21092SOL    HW264951   4.806   5.481   1.052 -1.0164  1.7716 -0.8060
21093SOL     OW64952   5.688   2.841   5.331  0.1550 -0.0008 -0.0581
21093SOL    HW164953   5.618   2.818   5.392  1.1188  0.3670  1.2442
21093SOL    HW264954   5.655   2.815   5.245 -0.7298 -1.7920  0.7640
21094SOL     OW64955   7.217   5.508   1.498 -0.4016  0.6068  0.3992
21094SOL    HW164956   7.177   5.594   1.509 -0.2730  0.8626 -0.9380
21094SOL    HW264957   7.296   5.525   1.447 -0.3341 -0.3032  0.1901
21095SOL     OW64958   4.785   7.487   3.784  0.2187 -0.1036 -0.5203
21095SOL    HW164959   4.849   7.455   3.848  0.5617  1.2090 -0.1680
21095SOL    HW264960   4.701   7.485   3.831  0.0484 -1.4297 -0.8450
21096SOL     OW64961   0.785   0.389   2.063 -0.0227 -0.1072 -0.4549
21096SOL    HW164962   0.719   0.458   2.063 -0.7344 -0.7616 -0.9938
21096SOL    HW264963   0.793   0.363   1.971  1.0863  0.0449 -0.4148
21097SOL     OW64964   6.017   9.490   2.211 -0.7203  0.5567  0.3612
21097SOL    HW164965   6.084   9.503   2.143  0.0965 -3.1490  0.2472
21097SOL    HW264966   6.012   9.575   2.255  0.0012  2.6240 -3.1037
21098SOL     OW64967   7.972   6.373   7.014 -0.0780  0.2590 -0.4676
21098SOL    HW164968   7.880   6.355   7.035 -0.0177  2.0706  1.7681
21098SOL    HW264969   8.015   6.375   7.100  2.1789 -0.9495 -1.4886
21099SOL     OW64970   5.029   6.690   6.484 -0.1267 -0.2583 -0.7396
21099SOL    HW164971   5.050   6.666   6.574 -0.3710 -1.7257 -1.0403
21099SOL    HW264972   5.104   6.740   6.453  0.6912 -1.1492 -0.2253
21100SOL     OW64973   6.077   8.074   8.607 -0.1086  0.1092 -0.0949
21100SOL    HW164974   6.112   8.110   8.688  0.9390 -0.5762 -0.2355
21100SOL    HW264975   6.053   8.151   8.555 -1.3838  0.5551  1.0956
21101SOL     OW64976   8.936   9.414   3.040  0.1254  0.2628  0.1812
21101SOL    HW164977   8.909   9.324   3.025  1.7863 -0.2194 -0.2306
21101SOL    HW264978   8.952   9.420   3.134 -2.8804  1.0570  0.7468
21102SOL     OW64979   7.077   7.104   1.941  0.0559 -0.1750 -0.7086
21102SOL    HW164980   7.149   7.113   1.878  0.6831  0.8395  0.1407
21102SOL    HW264981   7.120   7.099   2.026 -0.7840 -1.6330 -0.3356
21103SOL     OW64982   4.591   8.778   4.362  0.0954 -0.0377  0.0563
21103SOL    HW164983   4.582   8.686   4.339 -1.3536  0.7829 -3.2381
21103SOL    HW264984   4.676   8.804   4.326  0.2535  0.0550  0.4883
21104SOL     OW64985   7.102   7.068   3.049 -0.1002  0.6378  0.2053
21104SOL    HW164986   7.056   7.152   3.050  1.3464  1.4984 -1.3090
21104SOL    HW264987   7.178   7.081   3.105 -0.6548 -0.1879  1.1953
21105SOL     OW64988   0.923   5.492   4.295 -0.2892 -0.5418 -0.4739
21105SOL    HW164989   0.906   5.585   4.311  0.8958 -0.4112  0.1602
21105SOL    HW264990   1.017   5.487   4.278 -0.6279 -1.4018 -2.3337
21106SOL     OW64991   3.389   1.896   7.768  0.5510 -0.0334 -0.3983
21106SOL    HW164992   3.358   1.976   7.812 -2.0396 -0.8214 -0.6505
21106SOL    HW264993   3.318   1.873   7.708  1.9779 -1.6251 -1.5362
21107SOL     OW64994   9.144   7.285   8.231 -0.7650  0.7488  0.0032
21107SOL    HW164995   9.112   7.306   8.319 -0.4483 -0.6301  0.4749
21107SOL    HW264996   9.094   7.207   8.206  1.1534 -0.5765  0.1464
21108SOL     OW64997   6.614   4.771   5.749 -0.3393  0.3984 -0.1614
21108SOL    HW164998   6.653   4.734   5.670  0.0645  0.6261 -0.0714
21108SOL    HW264999   6.593   4.695   5.803 -0.9235  0.2255 -0.6284
21109SOL     OW65000   6.080   4.160   0.749  0.0542  0.0760  1.2700
21109SOL    HW165001   6.120   4.228   0.804  2.9362  0.1056 -0.6150
21109SOL    HW265002   6.015   4.206   0.697 -0.0117  0.8105  1.9846
21110SOL     OW65003   0.546   4.439   1.614  0.2916  0.5272 -0.3734
21110SOL    HW165004   0.618   4.499   1.593  0.7358  0.1714  0.1014
21110SOL    HW265005   0.467   4.488   1.593  0.6539  1.2168 -0.1565
21111SOL     OW65006   8.212   3.246   5.835 -0.0294 -0.1451 -0.2222
21111SOL    HW165007   8.131   3.281   5.799 -1.0178 -1.3516  0.7480
21111SOL    HW265008   8.242   3.312   5.897 -0.1600  0.3795 -0.7076
21112SOL     OW65009   0.676   0.650   7.375 -0.2111 -0.2155 -0.0617
21112SOL    HW165010   0.643   0.561   7.386 -0.0690 -0.1002  1.6141
21112SOL    HW265011   0.623   0.687   7.304 -1.5729 -1.0180  0.4996
21113SOL     OW65012   3.969   6.492   3.951 -0.1671 -0.0710  0.3586
21113SOL    HW165013   4.017   6.490   4.034  0.1616  1.2827  0.2348
21113SOL    HW265014   3.920   6.574   3.954 -0.4930 -0.2211 -0.6018
21114SOL     OW65015   4.824   3.650   0.881 -0.3468 -0.0272 -0.9381
21114SOL    HW165016   4.817   3.724   0.820  1.8435 -0.0734 -1.3307
21114SOL    HW265017   4.918   3.633   0.887 -0.5673 -0.7135  1.6713
21115SOL     OW65018   1.252   2.171   8.226  0.1927 -0.8909  0.7927
21115SOL    HW165019   1.326   2.190   8.168  1.2762 -2.3042  1.6362
21115SOL    HW265020   1.244   2.249   8.281 -0.9626  0.5471 -1.2879
21116SOL     OW65021   7.948   7.975   8.287  0.1119  0.3583 -0.3531
21116SOL    HW165022   8.005   7.934   8.223  0.8348  0.2817  0.3238
21116SOL    HW265023   7.871   8.002   8.237  0.4437 -0.1405 -1.1514
21117SOL     OW65024   6.812   6.593   3.187  0.6358 -0.0163  0.0490
21117SOL    HW165025   6.781   6.608   3.276 -2.3656  2.0053 -1.1955
21117SOL    HW265026   6.873   6.665   3.171  0.0154  0.5053 -0.0032
21118SOL     OW65027   2.558   1.012   1.244  0.6779 -0.8677  0.1187
21118SOL    HW165028   2.499   1.015   1.319  1.8078 -1.0058  1.0244
21118SOL    HW265029   2.631   1.070   1.267  2.4537 -3.0916  0.3764
21119SOL     OW65030   7.228   0.985   4.472  0.5263 -0.4890 -0.1655
21119SOL    HW165031   7.138   1.019   4.469  0.3635 -0.9690 -1.4850
21119SOL    HW265032   7.237   0.934   4.391  1.3740 -2.0472  0.8622
21120SOL     OW65033   6.964   8.993   6.446 -0.2451  0.5299 -0.1770
21120SOL    HW165034   6.872   9.014   6.426 -0.8258 -1.5102  0.1558
21120SOL    HW265035   6.959   8.925   6.512  1.5457  0.4332 -0.0952
21121SOL     OW65036   1.675   6.951   0.489  0.0682 -0.4155 -0.5907
21121SOL    HW165037   1.765   6.925   0.504 -0.2119 -2.0467 -1.4899
21121SOL    HW265038   1.673   6.982   0.398 -0.2192 -0.1331 -0.4912
21122SOL     OW65039   6.200   6.947   4.792 -0.1293  0.1164  0.1050
21122SOL    HW165040   6.125   6.931   4.734  0.5002  0.3891 -0.7987
21122SOL    HW265041   6.255   7.008   4.744  1.1206 -0.7705  0.3700
21123SOL     OW65042   5.685   4.544   7.389 -0.1696 -0.4785  0.4376
21123SOL    HW165043   5.690   4.449   7.382  2.5466 -0.5633  2.2420
21123SOL    HW265044   5.771   4.575   7.359 -0.3092  1.2521  1.6793
21124SOL     OW65045   7.371   2.033   7.262 -0.2228 -0.6099 -0.0206
21124SOL    HW165046   7.446   2.085   7.291 -1.0841  1.2222 -0.9082
21124SOL    HW265047   7.395   2.005   7.173  0.2742 -1.8890  0.4829
21125SOL     OW65048   2.115   8.856   4.402  0.0122 -0.2861 -0.2600
21125SOL    HW165049   2.031   8.890   4.432  0.2625  0.6783 -0.6102
21125SOL    HW265050   2.119   8.880   4.309  0.6494 -0.3644 -0.2595
21126SOL     OW65051   0.365   4.518   0.398 -0.3402 -0.1542  0.0541
21126SOL    HW165052   0.424   4.541   0.327 -2.4716  0.4308 -1.6362
21126SOL    HW265053   0.309   4.595   0.408 -0.5017 -0.4765  1.9501
21127SOL     OW65054   3.223   4.334   1.989  0.0763  0.0799  0.1114
21127SOL    HW165055   3.157   4.404   1.992 -1.2764 -1.1514  2.4289
21127SOL    HW265056   3.190   4.273   1.923  0.7293  1.0682 -1.1768
21128SOL     OW65057   7.164   8.881   3.505 -0.4550  0.6205 -0.3873
21128SOL    HW165058   7.253   8.881   3.539 -0.4385 -1.2505 -0.3535
21128SOL    HW265059   7.155   8.967   3.462  0.9531  1.2940  0.5845
21129SOL     OW65060   7.928   4.562   6.783  0.4510  0.4256 -0.1842
21129SOL    HW165061   7.957   4.496   6.846 -0.6558 -0.3533 -0.4613
21129SOL    HW265062   7.833   4.555   6.783  0.3913 -1.8986 -4.2494
21130SOL     OW65063   3.101   8.881   3.796 -0.0065  0.1918 -0.1706
21130SOL    HW165064   3.110   8.964   3.843  0.8437 -0.1140  0.2465
21130SOL    HW265065   3.028   8.836   3.840 -0.2126  0.5542 -0.1438
21131SOL     OW65066   3.512   6.014   7.429  0.3226  0.1645 -0.0261
21131SOL    HW165067   3.467   5.957   7.366  1.0409 -2.6323  1.8281
21131SOL    HW265068   3.503   6.102   7.392  0.0163 -1.1952 -3.6006
21132SOL     OW65069   4.445   9.662   4.706  0.0665  0.3058 -0.6391
21132SOL    HW165070   4.528   9.692   4.745  0.0531  0.3348 -0.6325
21132SOL    HW265071   4.382   9.730   4.731  0.3875  1.1630 -2.0731
21133SOL     OW65072   3.165   8.203   9.076 -0.2140  0.4614  0.0829
21133SOL    HW165073   3.228   8.245   9.018  0.4676 -0.6583 -0.0227
21133SOL    HW265074   3.212   8.192   9.159 -1.0181  1.6039  0.7147
21134SOL     OW65075   3.143   8.632   2.607  0.0254 -0.1408  0.1204
21134SOL    HW165076   3.209   8.581   2.560 -0.2726 -0.8310  0.4193
21134SOL    HW265077   3.180   8.643   2.695 -0.5303 -1.1303  0.5011
21135SOL     OW65078   9.008   7.585   1.370  0.5192 -0.2851  0.6332
21135SOL    HW165079   9.007   7.512   1.432 -0.7792 -0.5123  0.3765
21135SOL    HW265080   9.009   7.543   1.283 -1.7285 -0.0866  0.4460
21136SOL     OW65081   2.837   2.074   5.906 -0.1298  0.1353 -0.1843
21136SOL    HW165082   2.759   2.047   5.858 -2.7549  1.8574  2.7372
21136SOL    HW265083   2.849   2.007   5.973 -1.4696  1.6373  1.6752
21137SOL     OW65084   8.474   4.506   0.464 -0.4940  0.1701  0.5559
21137SOL    HW165085   8.410   4.445   0.500  0.7040 -1.5367 -0.0503
21137SOL    HW265086   8.559   4.465   0.482  0.4740  2.3422  1.3432
21138SOL     OW65087   6.843   7.321   6.359  0.0271 -0.1795 -0.0317
21138SOL    HW165088   6.820   7.364   6.441  0.2075  0.5927 -0.3769
21138SOL    HW265089   6.933   7.348   6.342 -0.2888  0.3700 -0.9109
21139SOL     OW65090   2.292   6.470   0.578 -0.3259 -0.1840  0.2329
21139SOL    HW165091   2.251   6.397   0.624 -0.6852  1.3998  2.5904
21139SOL    HW265092   2.221   6.511   0.530 -0.5334 -0.1999  0.5256
21140SOL     OW65093   4.279   8.802   8.339  0.2103  0.1791 -0.5240
21140SOL    HW165094   4.185   8.792   8.326  0.1310 -0.1956  0.2766
21140SOL    HW265095   4.291   8.896   8.353 -0.4600 -0.0433  2.1852
21141SOL     OW65096   5.587   9.220   5.587 -0.2511  0.3832 -0.6270
21141SOL    HW165097   5.540   9.245   5.507 -1.9610 -0.4198  0.1036
21141SOL    HW265098   5.584   9.299   5.641  0.4955  0.7770 -1.1387
21142SOL     OW65099   9.137   8.842   8.685 -0.1785  0.4201 -0.6243
21142SOL    HW165100   9.139   8.935   8.663  1.6901  0.8973  1.3141
21142SOL    HW265101   9.056   8.831   8.735  0.2444  1.2987  0.2751
21143SOL     OW65102   3.783   0.127   3.808  0.4907 -0.6402  0.4859
21143SOL    HW165103   3.830   0.196   3.857  0.5753 -0.3014 -0.0587
21143SOL    HW265104   3.849   0.059   3.794  1.2532  0.3752 -1.3802
21144SOL     OW65105   0.716   0.943   7.801  0.2633 -0.6570  0.5646
21144SOL    HW165106   0.634   0.918   7.757 -0.6899  1.1785  1.2010
21144SOL    HW265107   0.779   0.951   7.730  0.1320 -2.8268  0.1362
21145SOL     OW65108   5.948   6.593   7.261  0.2909  0.2424 -0.6329
21145SOL    HW165109   5.874   6.632   7.214 -0.1511  2.0853  1.4266
21145SOL    HW265110   5.907   6.531   7.322  0.8114 -1.6729 -2.1252
21146SOL     OW65111   5.537   7.761   2.222 -0.6474 -0.0997  0.1478
21146SOL    HW165112   5.587   7.839   2.198  0.9669 -1.4493 -1.0838
21146SOL    HW265113   5.479   7.745   2.148  0.7922 -1.4377 -0.7334
21147SOL     OW65114   3.236   7.129   5.829  0.0862  0.1030 -0.0331
21147SOL    HW165115   3.185   7.165   5.756  0.5180 -0.9838 -0.8793
21147SOL    HW265116   3.323   7.115   5.794  0.9004  1.5268  1.2915
21148SOL     OW65117   5.330   1.930   5.799 -0.2004 -0.3015  0.1059
21148SOL    HW165118   5.399   1.985   5.837 -0.1618  0.0374 -0.4457
21148SOL    HW265119   5.298   1.878   5.873  0.1206  0.0860  0.5266
21149SOL     OW65120   0.502   8.669   7.777  0.3544 -0.0309 -0.1297
21149SOL    HW165121   0.481   8.605   7.844  0.8498 -0.5952 -0.5051
21149SOL    HW265122   0.470   8.753   7.812 -0.6750 -0.5368  0.1853
21150SOL     OW65123   9.260   7.987   8.303 -0.0357  0.5728  0.1922
21150SOL    HW165124   9.279   8.006   8.395 -3.6325  1.3171  0.9462
21150SOL    HW265125   9.174   7.945   8.305 -0.6024  1.3656 -2.8783
21151SOL     OW65126   7.365   2.182   4.380 -0.1159 -0.0160 -0.0778
21151SOL    HW165127   7.345   2.097   4.418  0.1736  0.6457  1.6601
21151SOL    HW265128   7.280   2.218   4.355 -0.6118  0.4442  2.0685
21152SOL     OW65129   6.261   4.302   6.797 -0.2935 -0.6793 -0.1104
21152SOL    HW165130   6.319   4.227   6.784  0.0218 -0.5496  0.4720
21152SOL    HW265131   6.319   4.378   6.791 -0.8663 -0.3538 -2.2854
21153SOL     OW65132   4.341   9.255   8.211 -0.1523 -0.4528 -0.1619
21153SOL    HW165133   4.284   9.179   8.197 -2.3240  1.1107 -0.3107
21153SOL    HW265134   4.282   9.331   8.203  1.8861  1.2501  0.1662
21154SOL     OW65135   5.187   7.632   5.650 -0.2174  0.0349 -0.1614
21154SOL    HW165136   5.263   7.680   5.618 -0.6923  0.4759 -0.6341
21154SOL    HW265137   5.114   7.664   5.597 -0.4801 -1.4818 -0.7706
21155SOL     OW65138   4.840   5.555   4.424  0.4218 -0.1843  0.1689
21155SOL    HW165139   4.836   5.475   4.371 -0.0747  0.7780 -1.3101
21155SOL    HW265140   4.813   5.527   4.512 -3.0942 -1.0918 -1.0341
21156SOL     OW65141   5.559   4.857   6.391  0.2192  0.7350  0.3655
21156SOL    HW165142   5.466   4.838   6.400  0.4036 -1.2235 -1.3360
21156SOL    HW265143   5.562   4.947   6.357 -0.9379  1.4583  2.0505
21157SOL     OW65144   7.011   8.056   3.838  0.7270 -0.7586 -0.3878
21157SOL    HW165145   7.034   8.120   3.906  2.0866  0.1776 -1.6739
21157SOL    HW265146   6.970   8.107   3.769 -0.4741 -1.6809 -0.3942
21158SOL     OW65147   3.915   4.103   4.811 -0.0538 -0.2068  0.5840
21158SOL    HW165148   3.958   4.031   4.764 -1.1517 -0.8264  0.4986
21158SOL    HW265149   3.948   4.182   4.768  0.4234 -0.6932  0.0322
21159SOL     OW65150   6.294   1.978   4.866 -0.1752 -0.1113  0.0055
21159SOL    HW165151   6.350   2.054   4.848  1.0025 -1.0242 -0.3109
21159SOL    HW265152   6.222   2.013   4.917  1.7319  0.7912  2.2353
21160SOL     OW65153   5.035   3.782   3.278 -0.1839  0.3362  0.1682
21160SOL    HW165154   4.979   3.726   3.330 -1.6484  1.1106 -0.4931
21160SOL    HW265155   4.978   3.814   3.208  1.8429 -1.2276 -2.3806
21161SOL     OW65156   2.859   3.960   5.899 -0.0072 -0.1738 -0.4846
21161SOL    HW165157   2.806   3.985   5.975  0.1276 -0.2288 -0.3744
21161SOL    HW265158   2.932   4.022   5.899 -0.4533  0.3818 -1.0601
21162SOL     OW65159   1.385   7.113   9.222  0.3055 -0.4073 -0.4777
21162SOL    HW165160   1.459   7.059   9.251 -0.1382 -1.6157 -1.5473
21162SOL    HW265161   1.421   7.169   9.154  0.2015 -1.1491 -1.1520
21163SOL     OW65162   5.150   7.045   3.563  0.3861  0.2373 -1.0387
21163SOL    HW165163   5.119   7.069   3.650 -0.9745  1.8323 -1.9112
21163SOL    HW265164   5.201   6.965   3.577 -0.9374 -0.3332  1.0283
21164SOL     OW65165   0.804   7.006   5.632  0.2098 -1.0577  0.1456
21164SOL    HW165166   0.788   6.912   5.623  0.7600 -1.1077 -0.3747
21164SOL    HW265167   0.802   7.040   5.542 -3.9086  0.1427  0.4959
21165SOL     OW65168   2.719   3.074   4.536 -0.0277  0.0163 -0.1936
21165SOL    HW165169   2.797   3.084   4.481  2.5297  2.2413  3.3372
21165SOL    HW265170   2.688   2.985   4.518  3.2498 -0.9548 -1.9556
21166SOL     OW65171   8.994   4.606   5.273 -0.1548  0.1360 -0.2269
21166SOL    HW165172   8.999   4.550   5.351 -0.2230  2.1487  1.3052
21166SOL    HW265173   8.901   4.603   5.248 -0.3590  0.3505  0.4757
21167SOL     OW65174   7.300   1.101   5.071  0.2730  0.0049  0.5140
21167SOL    HW165175   7.294   1.009   5.097 -1.7740  0.5249  2.1476
21167SOL    HW265176   7.287   1.100   4.976 -0.0902 -1.3532  0.5557
21168SOL     OW65177   1.179   8.681   9.256 -0.1605 -0.2885 -0.2168
21168SOL    HW165178   1.168   8.687   9.351 -1.1291  1.8682 -0.4048
21168SOL    HW265179   1.164   8.588   9.237 -2.4302 -0.3884  1.4978
21169SOL     OW65180   5.385   0.553   5.600  0.5349 -0.2287 -0.7940
21169SOL    HW165181   5.396   0.586   5.689  0.9558 -2.1739 -0.0718
21169SOL    HW265182   5.430   0.468   5.601 -0.1484 -0.6457 -2.6427
21170SOL     OW65183   4.843   4.047   0.496  0.3080 -0.0053  0.5398
21170SOL    HW165184   4.765   4.087   0.458 -0.4717  0.2568  2.3237
21170SOL    HW265185   4.902   4.034   0.421 -1.6132 -0.6826 -0.9429
21171SOL     OW65186   3.432   2.183   3.094  0.0967 -1.1825  0.0297
21171SOL    HW165187   3.486   2.130   3.153  1.1640 -0.1767 -0.0043
21171SOL    HW265188   3.380   2.238   3.152  0.0016 -1.2878  0.0455
21172SOL     OW65189   3.311   9.255   2.712  0.7364  0.3119  0.3921
21172SOL    HW165190   3.338   9.347   2.715 -0.1568  0.5609  1.1592
21172SOL    HW265191   3.270   9.238   2.797  0.0079 -0.5140 -0.1010
21173SOL     OW65192   8.200   2.288   3.791 -0.1683  0.0995 -0.4148
21173SOL    HW165193   8.173   2.255   3.876  1.1788  1.0203  0.4075
21173SOL    HW265194   8.261   2.222   3.757  1.1713  0.8406  0.4513
21174SOL     OW65195   1.057   4.027   1.497 -0.3552  0.1773 -0.2971
21174SOL    HW165196   0.990   3.977   1.544 -0.2982 -1.2570 -1.6704
21174SOL    HW265197   1.116   4.058   1.566 -2.0220  0.8957  0.8742
21175SOL     OW65198   0.694   9.377   7.534 -0.2727  0.5815 -0.1856
21175SOL    HW165199   0.646   9.317   7.591 -1.1760  2.7360  1.4487
21175SOL    HW265200   0.686   9.462   7.576  2.8110  1.5344 -1.2362
21176SOL     OW65201   5.865   5.024   6.954 -1.0598  0.3354  0.1116
21176SOL    HW165202   5.925   5.085   6.996 -1.1995  0.5849 -0.0542
21176SOL    HW265203   5.806   4.996   7.024 -0.2490 -0.5494  0.4802
21177SOL     OW65204   5.124   2.011   5.010 -0.1581 -0.0354 -0.3565
21177SOL    HW165205   5.049   2.045   5.057 -0.1276 -1.2203  0.5946
21177SOL    HW265206   5.158   1.941   5.065  0.5580 -0.7331 -1.6248
21178SOL     OW65207   2.935   6.306   5.807  0.1429  0.9102  0.4201
21178SOL    HW165208   2.936   6.215   5.838  0.8170  0.5072 -0.7170
21178SOL    HW265209   2.857   6.344   5.847 -1.3716 -0.7856 -0.7547
21179SOL     OW65210   6.130   6.827   6.143  0.6557  0.1985  0.1443
21179SOL    HW165211   6.161   6.909   6.181  0.4961  0.0581  0.5841
21179SOL    HW265212   6.190   6.810   6.070  0.1926  1.1301 -0.4675
21180SOL     OW65213   3.139   3.570   5.398  0.1016  0.4522 -0.5180
21180SOL    HW165214   3.080   3.521   5.456 -0.9488  1.0697 -1.0459
21180SOL    HW265215   3.108   3.660   5.403  1.4034  0.9117 -0.3248
21181SOL     OW65216   7.854   2.024   2.972 -0.2158 -0.3169  0.6213
21181SOL    HW165217   7.759   2.013   2.977 -0.2237  0.2824  2.4623
21181SOL    HW265218   7.887   1.980   3.051  1.1206 -1.1843 -0.3836
21182SOL     OW65219   2.513   3.556   1.612  0.1363 -0.7041 -0.1244
21182SOL    HW165220   2.468   3.568   1.528 -1.3260 -0.1907  0.6900
21182SOL    HW265221   2.494   3.466   1.637 -1.2876 -0.2325  0.6416
21183SOL     OW65222   2.837   2.627   6.333  0.1379  0.0178 -0.1095
21183SOL    HW165223   2.868   2.550   6.381 -0.8202 -1.1623 -1.3122
21183SOL    HW265224   2.744   2.632   6.356 -0.3849 -0.6894 -1.9502
21184SOL     OW65225   1.836   0.968   4.760  0.4701 -0.3702  0.0266
21184SOL    HW165226   1.822   1.013   4.844 -1.0096  2.1394 -1.4329
21184SOL    HW265227   1.921   1.000   4.730  1.2123 -1.6164  0.7006
21185SOL     OW65228   6.811   7.298   9.588 -0.1791  0.3907 -0.2072
21185SOL    HW165229   6.879   7.326   9.526 -0.1907 -0.9865 -0.8637
21185SOL    HW265230   6.814   7.203   9.586 -1.2672  0.3181  0.7364
21186SOL     OW65231   6.399   5.634   5.276 -0.0776 -0.0379  0.0847
21186SOL    HW165232   6.362   5.570   5.336  0.0027  0.7968  1.0407
21186SOL    HW265233   6.494   5.622   5.283 -0.0697 -2.1829 -2.3712
21187SOL     OW65234   6.724   4.495   9.117  0.1009 -0.1979  0.0444
21187SOL    HW165235   6.740   4.565   9.054 -0.5218 -0.9449 -0.9672
21187SOL    HW265236   6.775   4.520   9.194  0.9354  0.6964 -0.7731
21188SOL     OW65237   0.464   8.363   7.396 -0.0686 -0.3949 -0.7993
21188SOL    HW165238   0.526   8.292   7.383  1.2630  0.5757 -0.0674
21188SOL    HW265239   0.395   8.325   7.450  0.5712 -1.1579 -0.4977
21189SOL     OW65240   1.186   8.650   6.325  0.3634  0.2460 -0.2486
21189SOL    HW165241   1.107   8.596   6.321  1.3336 -1.1997 -0.6738
21189SOL    HW265242   1.222   8.633   6.412  0.9615 -0.2286 -0.5839
21190SOL     OW65243   1.597   0.939   2.746  0.1718  0.3993 -0.1527
21190SOL    HW165244   1.542   0.941   2.824  0.5212 -0.6649  0.1437
21190SOL    HW265245   1.540   0.905   2.677  0.5648 -1.2540  0.2858
21191SOL     OW65246   1.017   4.572   0.446 -0.2360  0.4231  0.2798
21191SOL    HW165247   1.102   4.553   0.486 -0.2940 -1.7795 -0.5353
21191SOL    HW265248   1.039   4.617   0.364 -0.0376  2.7856  1.5451
21192SOL     OW65249   3.365   6.092   6.723 -0.0058  0.4648  0.0982
21192SOL    HW165250   3.364   6.187   6.715 -1.0547  0.3412 -2.2194
21192SOL    HW265251   3.327   6.061   6.641  2.0278 -2.0153 -0.0338
21193SOL     OW65252   3.913   3.823   4.389 -0.0519  0.4572 -0.2784
21193SOL    HW165253   3.910   3.763   4.314 -0.9422  0.7150 -0.4561
21193SOL    HW265254   3.941   3.907   4.351  0.3029  0.3901 -0.1759
21194SOL     OW65255   7.229   1.857   9.279 -0.3034  0.3675  0.3351
21194SOL    HW165256   7.214   1.868   9.185 -1.1612  0.2696  0.4515
21194SOL    HW265257   7.305   1.912   9.298  1.0204 -1.0063 -0.7492
21195SOL     OW65258   1.331   6.782   5.406 -0.0354 -0.4444 -0.4831
21195SOL    HW165259   1.279   6.702   5.405  0.2421 -0.6259 -0.9252
21195SOL    HW265260   1.284   6.842   5.347 -1.1823  0.3488  1.1487
21196SOL     OW65261   5.831   2.205   8.120  0.0004  0.5124 -0.4243
21196SOL    HW165262   5.865   2.123   8.085  1.1929  0.6286  0.3746
21196SOL    HW265263   5.736   2.198   8.112 -0.0999 -1.9057  1.6207
21197SOL     OW65264   6.547   7.722   7.269 -0.4727  0.0223 -0.2795
21197SOL    HW165265   6.543   7.631   7.301  0.3097  0.5205  1.3227
21197SOL    HW265266   6.464   7.761   7.298  0.5159  0.6588  1.8442
21198SOL     OW65267   6.676   4.463   0.020 -0.8538 -0.6149  0.8544
21198SOL    HW165268   6.752   4.429  -0.025  0.3828 -1.0187  3.0944
21198SOL    HW265269   6.605   4.457  -0.044  0.7824 -1.0372 -1.0089
21199SOL     OW65270   0.757   0.892   8.877  0.2596  0.1418  0.2570
21199SOL    HW165271   0.724   0.850   8.957  1.1414  1.5285  1.3890
21199SOL    HW265272   0.678   0.916   8.829 -0.2951 -0.5891  0.7686
21200SOL     OW65273   8.331   4.903   7.362  0.1051  0.3574  0.2175
21200SOL    HW165274   8.391   4.865   7.298 -1.6921 -0.0026 -1.3230
21200SOL    HW265275   8.358   4.865   7.446  3.0647  1.4941 -0.0914
21201SOL     OW65276   2.974   8.714   9.031  0.6814  0.1017  0.1001
21201SOL    HW165277   3.056   8.668   9.012  1.0679  1.0816 -0.7580
21201SOL    HW265278   2.979   8.735   9.124  0.9750 -0.6478  0.2612
21202SOL     OW65279   7.919   7.676   3.200  0.3582  0.2201 -0.3182
21202SOL    HW165280   7.892   7.768   3.204 -0.3611 -0.0189  1.4530
21202SOL    HW265281   7.964   7.661   3.283  1.2667 -0.8094 -0.9714
21203SOL     OW65282   0.161   4.240   9.581  0.2623 -0.0163 -0.4641
21203SOL    HW165283   0.146   4.219   9.489  0.9813  0.2665 -0.6526
21203SOL    HW265284   0.255   4.225   9.594  0.0453 -0.7421  0.4094
21204SOL     OW65285   4.557   1.077   2.163  0.2907 -0.6999  0.1369
21204SOL    HW165286   4.619   1.098   2.233  1.7112 -0.5203 -1.1250
21204SOL    HW265287   4.560   0.981   2.158  1.8856 -0.6342 -1.0866
21205SOL     OW65288   0.831   8.886   8.630 -0.1462  0.4948  0.3783
21205SOL    HW165289   0.901   8.820   8.630 -0.5727  0.0397  0.2300
21205SOL    HW265290   0.874   8.965   8.661  0.7319  0.5243 -0.8230
21206SOL     OW65291   2.520   8.996   6.873 -0.2402  0.3829  0.2430
21206SOL    HW165292   2.487   9.004   6.963 -0.2273  2.0270  0.1263
21206SOL    HW265293   2.601   9.047   6.873  2.8895 -3.9712  0.6780
21207SOL     OW65294   8.746   4.759   4.427  0.0387 -0.1454 -0.4338
21207SOL    HW165295   8.696   4.717   4.497  1.3050 -0.8157  0.1160
21207SOL    HW265296   8.823   4.795   4.471  0.9503 -0.7263 -1.4866
21208SOL     OW65297   5.456   9.485   0.790  0.1719  0.0927  0.6234
21208SOL    HW165298   5.410   9.543   0.730  0.0313 -0.4815  0.1635
21208SOL    HW265299   5.549   9.496   0.769  0.0383 -1.7735 -1.3141
21209SOL     OW65300   0.898   0.885   4.967  0.3376 -0.1528 -0.3387
21209SOL    HW165301   0.828   0.888   4.902 -0.0373  0.6783  0.0907
21209SOL    HW265302   0.865   0.826   5.035 -0.1777  0.6513  0.1178
21210SOL     OW65303   2.092   0.064   8.154  0.6657  0.3741 -0.0761
21210SOL    HW165304   2.154   0.061   8.081  0.2994  0.0776 -0.3814
21210SOL    HW265305   2.145   0.044   8.231  1.1931  1.3819 -0.1631
21211SOL     OW65306   1.055   8.267   7.149 -0.1245 -0.0380  0.1612
21211SOL    HW165307   1.101   8.210   7.210  0.0707  0.1979  0.2356
21211SOL    HW265308   1.063   8.354   7.187  0.0361  0.1186 -0.2207
21212SOL     OW65309   6.757   5.148   2.602 -0.7393 -0.4266 -0.3087
21212SOL    HW165310   6.833   5.100   2.568 -0.8795 -0.5972 -0.3856
21212SOL    HW265311   6.766   5.142   2.698 -0.9969 -1.0026 -0.3139
21213SOL     OW65312   2.065   5.454   6.932 -0.3666 -0.8781  0.0520
21213SOL    HW165313   2.028   5.378   6.978  0.5432 -1.6178 -0.3968
21213SOL    HW265314   2.159   5.451   6.953 -0.7113  2.1454  2.9020
21214SOL     OW65315   1.910   7.877   9.156  0.1890  0.5879  0.3428
21214SOL    HW165316   1.990   7.835   9.125  1.3539  1.3871  2.1330
21214SOL    HW265317   1.936   7.923   9.236 -2.0126  1.0637  0.8494
21215SOL     OW65318   3.592   3.378   3.074  0.1176  0.7115 -0.9107
21215SOL    HW165319   3.576   3.287   3.102 -1.6556  0.8990 -1.1825
21215SOL    HW265320   3.569   3.431   3.150  0.6643  0.9545 -0.9153
21216SOL     OW65321   3.702   6.914   1.414 -0.1420 -0.1483 -0.4208
21216SOL    HW165322   3.796   6.900   1.413  0.1641  1.3700  1.2489
21216SOL    HW265323   3.676   6.899   1.505 -1.2314  0.9339 -0.5163
21217SOL     OW65324   2.116   2.886   6.603  0.0481  0.2407 -0.1927
21217SOL    HW165325   2.025   2.874   6.578 -0.1404  1.1558  0.0201
21217SOL    HW265326   2.115   2.892   6.698  0.5921 -1.7434 -0.0187
21218SOL     OW65327   8.390   3.315   8.310 -0.0205  0.2155  0.8487
21218SOL    HW165328   8.300   3.297   8.335 -0.0895 -0.1634  0.3451
21218SOL    HW265329   8.429   3.228   8.299 -0.1494  0.3578 -0.8951
21219SOL     OW65330   9.143   5.873   7.887  0.2944  0.1601  0.0768
21219SOL    HW165331   9.049   5.883   7.875  0.3981  0.9589 -0.0985
21219SOL    HW265332   9.159   5.779   7.875 -0.2305  0.2662 -1.6722
21220SOL     OW65333   4.092   1.267   6.144 -0.2723 -0.2609 -0.2132
21220SOL    HW165334   4.164   1.321   6.178  0.8854 -1.1599 -1.1341
21220SOL    HW265335   4.065   1.311   6.064 -1.1306  0.3595  0.3993
21221SOL     OW65336   0.314   0.387   0.508 -0.0102  0.0319 -0.6116
21221SOL    HW165337   0.270   0.396   0.423  0.5479  1.0662 -0.8033
21221SOL    HW265338   0.320   0.476   0.542 -0.4156 -0.3950  0.6292
21222SOL     OW65339   5.946   1.029   6.287 -0.7438 -0.1014  0.5078
21222SOL    HW165340   5.884   1.066   6.224 -2.3754  0.1323  2.1508
21222SOL    HW265341   5.898   1.029   6.370  1.9696  1.4894  2.2239
21223SOL     OW65342   5.931   1.278   4.129  0.5136  0.5538 -0.2798
21223SOL    HW165343   5.862   1.233   4.081  0.7205 -0.7325  0.5518
21223SOL    HW265344   6.005   1.282   4.068  0.4604 -0.1833 -0.4023
21224SOL     OW65345   3.327   5.534   3.462 -0.0502 -0.3287 -0.0970
21224SOL    HW165346   3.343   5.477   3.537  1.0132  0.8411  0.5969
21224SOL    HW265347   3.413   5.547   3.423 -0.5209 -0.5178 -1.2361
21225SOL     OW65348   5.144   4.488   5.258  0.0797 -0.1795  0.3841
21225SOL    HW165349   5.183   4.443   5.183 -0.1116  0.5331 -0.1598
21225SOL    HW265350   5.215   4.543   5.292 -0.0297  0.0270  0.2848
21226SOL     OW65351   9.259   7.021   7.927 -0.0827 -0.0110 -0.2711
21226SOL    HW165352   9.211   7.003   7.846 -0.1894 -0.1338 -0.1807
21226SOL    HW265353   9.210   6.975   7.995  0.5571 -0.7355 -0.2849
21227SOL     OW65354   8.095   4.115   6.946  0.7242  0.2352 -0.7452
21227SOL    HW165355   8.104   4.143   7.038 -0.4993  0.2928 -0.6299
21227SOL    HW265356   8.182   4.082   6.923  1.1700  0.6209  0.3001
21228SOL     OW65357   2.197   1.136   7.975  0.2314  0.5150  0.5679
21228SOL    HW165358   2.106   1.145   8.001  0.0102  0.8290 -0.2894
21228SOL    HW265359   2.224   1.051   8.009 -0.1630  0.7287  1.4443
21229SOL     OW65360   7.564   8.724   2.941 -0.4841  0.6385 -0.1356
21229SOL    HW165361   7.637   8.677   2.901 -0.8687  0.1759 -0.3045
21229SOL    HW265362   7.503   8.738   2.869 -1.1614 -0.1573  0.2726
21230SOL     OW65363   0.656   0.816   9.112  0.4011  0.5301  0.1928
21230SOL    HW165364   0.719   0.863   9.167  1.5560 -0.6136 -0.1129
21230SOL    HW265365   0.632   0.739   9.164 -1.5823  1.4551  0.7496
21231SOL     OW65366   8.014   3.130   3.667 -0.7759  0.2237 -0.8949
21231SOL    HW165367   8.011   3.145   3.761  0.5184 -1.2329 -0.5927
21231SOL    HW265368   8.039   3.216   3.630 -0.0885  0.5142  0.1930
21232SOL     OW65369   4.961   5.905   4.507 -0.0825  0.8069 -0.1018
21232SOL    HW165370   4.961   5.897   4.412 -0.9031  2.8515 -0.3203
21232SOL    HW265371   5.019   5.979   4.525 -0.3537  0.7797  0.9696
21233SOL     OW65372   7.451   4.987   0.297 -0.3989  0.3502 -0.3210
21233SOL    HW165373   7.528   4.948   0.338 -0.5399 -0.2160 -0.5890
21233SOL    HW265374   7.377   4.936   0.331 -0.6283  0.6719 -0.3288
21234SOL     OW65375   2.783   8.985   1.318 -0.0025 -0.3739 -0.1111
21234SOL    HW165376   2.707   9.023   1.363 -0.0829 -2.2237  1.4204
21234SOL    HW265377   2.747   8.919   1.260  0.3750 -0.7845  0.1143
21235SOL     OW65378   2.846   7.807   6.499 -0.1730  0.1813 -0.1140
21235SOL    HW165379   2.828   7.841   6.412  0.4020 -0.2418 -0.4034
21235SOL    HW265380   2.793   7.728   6.506 -1.6571  1.1892  0.6294
21236SOL     OW65381   2.261   6.602   5.756 -0.1519 -0.6231  0.1215
21236SOL    HW165382   2.322   6.574   5.687  0.4841 -0.0995  0.4576
21236SOL    HW265383   2.215   6.522   5.782 -0.1036 -0.8963 -0.6249
21237SOL     OW65384   3.778   0.713   0.574  0.1389 -0.6970 -0.4798
21237SOL    HW165385   3.836   0.779   0.612 -0.6247 -1.2165  1.7477
21237SOL    HW265386   3.810   0.630   0.609 -1.6481 -1.0366  0.4905
21238SOL     OW65387   0.651   4.007   5.908  0.0702  0.2989  0.1011
21238SOL    HW165388   0.718   4.066   5.872 -0.5102  1.5515  0.9984
21238SOL    HW265389   0.579   4.013   5.846  1.2936 -2.3386 -1.7874
21239SOL     OW65390   3.924   0.077   7.808 -0.6386 -0.0572  0.6333
21239SOL    HW165391   3.905  -0.005   7.855  0.8501 -1.2410 -0.7363
21239SOL    HW265392   4.010   0.103   7.840 -0.9553  0.8288  0.7980
21240SOL     OW65393   7.090   8.195   8.792 -0.7710  0.2704  0.1597
21240SOL    HW165394   7.142   8.171   8.716 -2.0737  0.1180 -0.7269
21240SOL    HW265395   7.124   8.141   8.863  0.1862  0.1040 -0.4057
21241SOL     OW65396   8.314   9.494   9.441 -0.3581 -0.4108 -0.7023
21241SOL    HW165397   8.250   9.539   9.387  0.2820  0.3660 -0.8370
21241SOL    HW265398   8.348   9.424   9.386 -1.1622 -0.8951 -0.5909
21242SOL     OW65399   7.386   2.687   6.738  0.0230  0.4819 -0.2073
21242SOL    HW165400   7.352   2.776   6.744  0.3308  0.5553  0.5974
21242SOL    HW265401   7.462   2.694   6.680 -0.9501  0.4198 -1.5421
21243SOL     OW65402   1.447   7.398   1.112  0.1700 -0.3294  0.0727
21243SOL    HW165403   1.371   7.379   1.168  1.6563 -1.0039  1.9656
21243SOL    HW265404   1.454   7.493   1.112 -1.8658 -0.0959 -1.8814
21244SOL     OW65405   5.516   0.077   4.410 -0.3348  0.3496 -0.3045
21244SOL    HW165406   5.506   0.032   4.494  0.3457  0.5007 -0.1320
21244SOL    HW265407   5.522   0.007   4.345 -3.0741  0.2392 -0.5298
21245SOL     OW65408   1.049   3.507   3.976  0.5237  0.0534  0.2210
21245SOL    HW165409   0.987   3.579   3.981  1.3476  0.8111 -0.0853
21245SOL    HW265410   1.009   3.444   3.916  0.5656  1.0748 -0.9201
21246SOL     OW65411   1.473   8.432   9.099 -0.1434  0.3812  0.0721
21246SOL    HW165412   1.467   8.354   9.044  4.0876 -0.3156  0.2780
21246SOL    HW265413   1.427   8.409   9.180 -0.0804 -1.4110 -0.3757
21247SOL     OW65414   5.539   1.643   3.684 -0.1454 -0.3108 -0.3480
21247SOL    HW165415   5.589   1.719   3.714 -1.7729  0.3991  0.7240
21247SOL    HW265416   5.581   1.568   3.727 -0.1693  0.3018  0.7799
21248SOL     OW65417   8.727   7.973   1.554 -0.0633  0.5399  0.1813
21248SOL    HW165418   8.632   7.980   1.555 -0.0737  0.4007  0.2245
21248SOL    HW265419   8.746   7.922   1.475 -0.1131 -0.6832  0.9344
21249SOL     OW65420   7.954   7.665   8.827 -0.1645  0.6193 -0.2187
21249SOL    HW165421   7.970   7.581   8.783  2.2885  1.5108 -1.2395
21249SOL    HW265422   7.976   7.648   8.919  1.8349  0.4143 -0.6711
21250SOL     OW65423   6.629   2.921   6.557 -0.4488 -0.6225  0.1413
21250SOL    HW165424   6.615   2.969   6.475 -0.9008 -0.0721  0.5371
21250SOL    HW265425   6.699   2.859   6.536  0.7970  0.8111 -0.1198
21251SOL     OW65426   6.393   4.673   0.074  0.1174  0.2564  0.3514
21251SOL    HW165427   6.415   4.708  -0.012  0.2794 -0.3217  0.1479
21251SOL    HW265428   6.388   4.749   0.131  0.7559  0.5805 -0.0164
21252SOL     OW65429   7.500   7.678   1.933 -0.0707  0.2559  0.3027
21252SOL    HW165430   7.466   7.736   1.864 -1.3716  0.2146  0.8677
21252SOL    HW265431   7.571   7.728   1.974  1.0037  0.1139 -1.3086
21253SOL     OW65432   4.048   4.668   5.800 -0.4238  0.2973  0.2804
21253SOL    HW165433   3.958   4.638   5.791 -0.9188  1.2744  1.6047
21253SOL    HW265434   4.057   4.738   5.736 -0.8518  0.6898  0.6385
21254SOL     OW65435   7.248   1.520   3.663  0.5808  0.0889  0.0118
21254SOL    HW165436   7.315   1.577   3.701 -0.5874  1.3552  0.2723
21254SOL    HW265437   7.176   1.523   3.726 -0.1904 -0.2625 -0.8405
21255SOL     OW65438   3.529   8.358   4.453  0.6543 -0.0761  0.2702
21255SOL    HW165439   3.534   8.345   4.548 -1.2245  1.7267  0.6786
21255SOL    HW265440   3.606   8.412   4.432  0.0198  1.2168  1.1445
21256SOL     OW65441   3.439   2.106   4.448 -0.5944 -0.4669 -0.2840
21256SOL    HW165442   3.363   2.064   4.488 -0.4249 -1.5557 -1.0728
21256SOL    HW265443   3.499   2.121   4.521 -0.5318 -1.8838 -0.0291
21257SOL     OW65444   0.047   5.847   3.336 -0.3115  0.0997  0.4901
21257SOL    HW165445   0.006   5.818   3.255 -0.0935  1.1408 -0.0193
21257SOL    HW265446   0.120   5.787   3.349 -0.7662 -0.4987  0.2893
21258SOL     OW65447   3.597   1.173   4.618  0.7545 -0.2752  0.0051
21258SOL    HW165448   3.538   1.193   4.690  0.8691 -1.4466  0.4398
21258SOL    HW265449   3.660   1.246   4.617  0.9388 -0.4016  1.2798
21259SOL     OW65450   6.429   2.955   1.973 -0.3329  0.1305  0.5917
21259SOL    HW165451   6.434   3.038   2.021  0.2779 -0.4307  1.5268
21259SOL    HW265452   6.420   2.888   2.041  0.6781 -0.7013 -0.0601
21260SOL     OW65453   2.038   6.445   5.310 -0.0867 -0.6928  0.2310
21260SOL    HW165454   1.989   6.527   5.316 -1.5114 -1.5375  0.9676
21260SOL    HW265455   2.119   6.462   5.358 -0.5170  0.1750  0.6805
21261SOL     OW65456   4.993   4.124   8.656  0.6131  0.5219  0.6314
21261SOL    HW165457   5.041   4.177   8.593  0.2210 -1.5814 -1.5434
21261SOL    HW265458   4.938   4.188   8.702 -0.9247  1.9833 -2.8451
21262SOL     OW65459   1.435   9.182   2.790  0.5687  0.4895 -0.0624
21262SOL    HW165460   1.509   9.121   2.790 -0.1856 -0.4701  1.2611
21262SOL    HW265461   1.468   9.260   2.833  1.2958  0.7255 -1.0141
21263SOL     OW65462   0.304   1.915   1.744 -0.2957  0.0836 -0.6434
21263SOL    HW165463   0.262   1.962   1.671 -2.3130 -0.1532  0.2945
21263SOL    HW265464   0.321   1.984   1.809 -0.7811 -0.0623 -0.3560
21264SOL     OW65465   6.678   2.026   1.133 -0.0387 -0.3032  0.2685
21264SOL    HW165466   6.724   2.064   1.058 -1.5934  1.7717  0.2711
21264SOL    HW265467   6.745   2.019   1.201  0.7704  0.4620 -0.4228
21265SOL     OW65468   3.109   3.750   3.088  0.3511  0.3311  0.2196
21265SOL    HW165469   3.090   3.766   2.996 -1.5200  1.7588  0.7836
21265SOL    HW265470   3.066   3.667   3.108  1.1986 -0.2428 -0.2864
21266SOL     OW65471   2.383   2.146   0.125  0.1556 -0.0747  0.1701
21266SOL    HW165472   2.363   2.195   0.046  0.5507  1.1571  0.8057
21266SOL    HW265473   2.298   2.133   0.167  0.0260 -0.0870 -0.0939
21267SOL     OW65474   4.473   5.657   1.609 -0.5018 -0.6038 -0.0934
21267SOL    HW165475   4.522   5.648   1.527  0.6080 -1.9152  0.6672
21267SOL    HW265476   4.395   5.708   1.585  0.4868  0.2386 -1.6505
21268SOL     OW65477   2.235   0.138   6.645 -0.3371  0.3985 -0.5838
21268SOL    HW165478   2.270   0.060   6.602 -2.8610 -1.9248  1.2463
21268SOL    HW265479   2.253   0.209   6.583  0.5478 -1.8827 -3.1521
21269SOL     OW65480   2.571   4.169   5.500 -0.5886  0.5814  0.6261
21269SOL    HW165481   2.561   4.172   5.596  0.1214 -1.5326  0.8036
21269SOL    HW265482   2.485   4.193   5.466 -1.4225 -0.5556  1.8411
21270SOL     OW65483   9.526   8.185   2.116  0.5389  0.2684 -0.0166
21270SOL    HW165484   9.441   8.141   2.112  0.5778  0.2184 -0.3523
21270SOL    HW265485   9.506   8.277   2.100  0.3969  0.4563  1.1689
21271SOL     OW65486   6.331   2.208   8.805  0.2630 -0.4323  0.6202
21271SOL    HW165487   6.266   2.275   8.822  0.7958  0.1702  0.3261
21271SOL    HW265488   6.362   2.226   8.716  1.8305  0.1675  1.2560
21272SOL     OW65489   7.673   6.352   4.363  0.3085  0.3394  0.5956
21272SOL    HW165490   7.700   6.409   4.436  0.0038  0.7860  0.3627
21272SOL    HW265491   7.581   6.374   4.348  0.6326  0.9888 -0.5916
21273SOL     OW65492   6.384   8.645   7.760  0.0712 -0.0288 -0.0957
21273SOL    HW165493   6.407   8.558   7.728 -1.4601 -2.0875  3.7511
21273SOL    HW265494   6.468   8.686   7.780  0.8433 -1.8678  0.7363
21274SOL     OW65495   5.342   1.278   1.804  0.0884 -0.5176  0.2291
21274SOL    HW165496   5.385   1.318   1.880 -0.8793  0.1895  0.4289
21274SOL    HW265497   5.397   1.302   1.730  0.3062 -0.0398  0.5329
21275SOL     OW65498   2.183   4.460   9.592  0.0613  0.5625  0.5090
21275SOL    HW165499   2.151   4.540   9.632 -0.7573  0.1905  0.6226
21275SOL    HW265500   2.154   4.390   9.652  1.6757  0.2528  0.9745
21276SOL     OW65501   1.682   6.281   6.098  0.5438  0.2625  0.2175
21276SOL    HW165502   1.642   6.347   6.041 -1.1308 -0.3760  0.6040
21276SOL    HW265503   1.768   6.265   6.059 -0.0782  0.7183 -1.4253
21277SOL     OW65504   4.225   2.217   1.241 -0.2116  0.3197  0.3196
21277SOL    HW165505   4.167   2.148   1.212 -2.3761  2.9405 -2.0776
21277SOL    HW265506   4.313   2.188   1.216 -0.9759 -1.7214 -0.1069
21278SOL     OW65507   6.605   7.392   5.916  0.2490  0.1621 -0.4189
21278SOL    HW165508   6.690   7.387   5.959 -0.1408 -1.4100  0.2213
21278SOL    HW265509   6.543   7.409   5.987  0.0339  1.6851 -0.9307
21279SOL     OW65510   6.607   1.016   2.657  0.5322  0.6905 -0.2569
21279SOL    HW165511   6.687   1.025   2.604  0.9874  0.3319  0.3540
21279SOL    HW265512   6.572   1.105   2.662  0.4810  0.7318 -1.1463
21280SOL     OW65513   0.111   7.365   3.786  0.9155 -0.1059  0.4395
21280SOL    HW165514   0.044   7.381   3.853  0.7661 -0.2688  0.3304
21280SOL    HW265515   0.150   7.450   3.770  0.2743  0.1178  0.0217
21281SOL     OW65516   9.012   7.376   4.645 -0.3217 -0.0466  0.3051
21281SOL    HW165517   8.949   7.358   4.715 -1.2291  0.5003 -0.3319
21281SOL    HW265518   9.019   7.472   4.644 -0.3041 -0.0501 -0.3335
21282SOL     OW65519   9.473   2.764   0.319  0.5104  0.2357  0.1722
21282SOL    HW165520   9.442   2.678   0.347  1.2984 -0.0393  0.2532
21282SOL    HW265521   9.395   2.818   0.314 -0.3550 -1.1180 -2.2365
21283SOL     OW65522   9.245   3.907   1.744 -0.6850 -0.1239  0.1599
21283SOL    HW165523   9.195   3.972   1.793  1.2606  2.0345 -0.5169
21283SOL    HW265524   9.220   3.920   1.653 -1.4913 -1.5234  0.1467
21284SOL     OW65525   6.915   1.691   6.711 -0.6734 -0.0173 -0.1239
21284SOL    HW165526   6.938   1.712   6.621 -1.1083  0.8875 -0.0347
21284SOL    HW265527   6.937   1.770   6.760 -0.4936 -0.4818  0.5555
21285SOL     OW65528   9.463   1.097   5.413 -0.3552 -0.1133 -0.5558
21285SOL    HW165529   9.453   1.050   5.496 -0.4579  0.8222 -0.0265
21285SOL    HW265530   9.557   1.093   5.395 -0.3244 -0.2735 -0.3614
21286SOL     OW65531   0.890   2.332   4.823 -0.5001 -0.1121 -0.1346
21286SOL    HW165532   0.897   2.384   4.903  3.9539 -0.9554  0.3112
21286SOL    HW265533   0.948   2.377   4.761 -0.4010 -1.8434 -1.3499
21287SOL     OW65534   8.163   1.180   5.437 -0.2111 -0.3056 -0.5284
21287SOL    HW165535   8.238   1.139   5.480  0.8801  1.7026 -0.4360
21287SOL    HW265536   8.188   1.185   5.345  1.2903  3.2555 -0.0899
21288SOL     OW65537   8.936   3.176   1.257  0.1486 -0.9071 -0.5910
21288SOL    HW165538   8.859   3.178   1.200  1.1537 -1.1636 -2.0118
21288SOL    HW265539   8.994   3.245   1.222  0.6201 -0.7868  0.3824
21289SOL     OW65540   4.577   5.879   6.239 -0.4849 -0.4391  0.5519
21289SOL    HW165541   4.651   5.907   6.293  0.0576  1.9020 -1.2179
21289SOL    HW265542   4.602   5.793   6.206  0.8751 -0.2582  1.0433
21290SOL     OW65543   3.058   9.474   3.739  0.2131 -0.3789 -0.1641
21290SOL    HW165544   3.008   9.419   3.677  0.2254  1.4365 -1.8773
21290SOL    HW265545   3.146   9.438   3.735  0.1241 -0.5506 -0.9022
21291SOL     OW65546   0.547   8.596   6.944 -0.0268 -0.6337  0.1640
21291SOL    HW165547   0.598   8.676   6.953  0.3660 -0.3495 -3.1687
21291SOL    HW265548   0.610   8.530   6.918 -0.8465 -1.0704 -0.8057
21292SOL     OW65549   2.857   4.603   2.541  0.0054 -0.2733  0.5092
21292SOL    HW165550   2.793   4.602   2.612  0.5936  0.1593  1.0442
21292SOL    HW265551   2.916   4.530   2.561 -0.7645 -1.1848 -0.4112
21293SOL     OW65552   7.640   8.820   2.411 -0.2519 -0.2897 -0.4596
21293SOL    HW165553   7.636   8.860   2.498 -0.4414 -0.0969 -0.5551
21293SOL    HW265554   7.678   8.734   2.426  1.5255  0.4639 -0.4582
21294SOL     OW65555   3.578   6.254   2.422 -0.8708  0.3336  0.0527
21294SOL    HW165556   3.604   6.341   2.453 -0.8597  0.6298 -0.7578
21294SOL    HW265557   3.636   6.237   2.347  0.6144 -1.2958  1.4522
21295SOL     OW65558   1.412   7.672   1.107 -0.0316  0.4107  0.3641
21295SOL    HW165559   1.492   7.706   1.068  0.3943 -1.7699 -0.7982
21295SOL    HW265560   1.343   7.697   1.045  0.0639  0.3884  0.2489
21296SOL     OW65561   6.978   8.747   3.636 -0.1585 -0.8070 -0.4981
21296SOL    HW165562   7.036   8.801   3.581  0.2318 -1.3738 -0.6531
21296SOL    HW265563   7.036   8.713   3.705 -0.6318 -0.1543  0.2297
21297SOL     OW65564   2.133   5.466   3.398 -0.8745 -0.7104 -0.5303
21297SOL    HW165565   2.220   5.448   3.435  0.6781  3.7884 -1.3061
21297SOL    HW265566   2.075   5.471   3.474  0.7293  1.3028  0.6545
21298SOL     OW65567   4.191   7.527   7.714  0.1766  0.0064  0.6102
21298SOL    HW165568   4.197   7.453   7.775 -0.3253  0.3202  1.0465
21298SOL    HW265569   4.165   7.601   7.769 -1.4511  0.0471 -0.1857
21299SOL     OW65570   2.649   0.632   6.065 -0.3052  0.5335  0.0872
21299SOL    HW165571   2.729   0.683   6.052 -0.6125  1.3938  1.4673
21299SOL    HW265572   2.578   0.695   6.053 -0.7075  0.2908  1.0999
21300SOL     OW65573   2.338   4.688   7.028  0.2926  0.3792 -0.7264
21300SOL    HW165574   2.387   4.617   7.070 -0.2117  0.0144 -0.7396
21300SOL    HW265575   2.352   4.764   7.084  1.7591  0.5731 -1.3049
21301SOL     OW65576   6.894   2.633   8.679  0.0816  0.0540  0.4427
21301SOL    HW165577   6.861   2.543   8.673  0.5112 -0.0699 -0.1103
21301SOL    HW265578   6.845   2.680   8.611  1.6159 -0.3161 -0.9727
21302SOL     OW65579   4.905   7.047   4.957 -0.5234 -0.1759  0.1000
21302SOL    HW165580   4.984   7.080   5.001  0.0669 -2.5066  0.9314
21302SOL    HW265581   4.833   7.074   5.014  0.0166 -0.9912  1.1980
21303SOL     OW65582   6.342   4.552   3.241  0.6047 -0.3873 -0.4921
21303SOL    HW165583   6.263   4.501   3.258  0.3429 -1.1295 -3.4246
21303SOL    HW265584   6.409   4.509   3.293 -0.4724 -1.0769  0.3910
21304SOL     OW65585   5.526   9.617   7.867  0.3277 -0.6666  0.1511
21304SOL    HW165586   5.587   9.690   7.858  1.3373 -1.4499  0.4701
21304SOL    HW265587   5.465   9.628   7.793 -2.1136  2.7644  2.3676
21305SOL     OW65588   0.493   2.189   7.444 -0.2260 -0.2303  0.0419
21305SOL    HW165589   0.489   2.193   7.539  0.5135 -0.5037  0.0927
21305SOL    HW265590   0.408   2.222   7.414 -0.3549  0.1147  0.7843
21306SOL     OW65591   0.623   2.716   4.464  0.1850 -0.3887  0.1891
21306SOL    HW165592   0.670   2.798   4.447 -1.3034  0.1602 -1.5750
21306SOL    HW265593   0.548   2.742   4.518 -0.7304 -0.3999 -1.0288
21307SOL     OW65594   2.809   7.187   9.033 -0.6470  0.4835  0.0462
21307SOL    HW165595   2.882   7.133   9.063 -0.9398  0.6480  1.0937
21307SOL    HW265596   2.752   7.126   8.986 -1.4326 -0.3558  2.0003
21308SOL     OW65597   8.804   4.140   6.795 -0.2675 -0.0685 -0.1143
21308SOL    HW165598   8.720   4.138   6.840 -1.7562 -0.7621 -2.6677
21308SOL    HW265599   8.815   4.050   6.762  2.3232 -0.4319  1.5015
21309SOL     OW65600   5.907   4.165   8.400  0.0589  0.2140  0.2108
21309SOL    HW165601   5.894   4.205   8.314  0.4546 -1.4916 -0.6932
21309SOL    HW265602   5.836   4.200   8.453 -0.1729  1.3381 -0.7954
21310SOL     OW65603   3.358   3.324   8.437  0.5632  0.3936 -0.3514
21310SOL    HW165604   3.301   3.280   8.500  1.1427  0.8447  0.5069
21310SOL    HW265605   3.446   3.313   8.473  0.7181  2.4175  0.0321
21311SOL     OW65606   9.074   1.189   9.469 -0.2940  0.2428 -0.0857
21311SOL    HW165607   9.152   1.146   9.434 -0.0898  0.7024 -0.1984
21311SOL    HW265608   9.035   1.124   9.528 -0.6125 -0.5259 -1.1118
21312SOL     OW65609   5.812   2.152   6.404 -0.1756 -0.5024  0.0626
21312SOL    HW165610   5.748   2.085   6.383 -1.4820 -0.8494  4.3167
21312SOL    HW265611   5.892   2.104   6.424 -0.1713 -0.5179  0.0089
21313SOL     OW65612   2.067   5.024   1.253 -0.3367  0.0306 -0.5388
21313SOL    HW165613   2.018   5.036   1.334  0.3257 -0.2430 -0.0899
21313SOL    HW265614   2.010   4.969   1.199 -1.4516  1.4514 -0.8725
21314SOL     OW65615   7.758   4.930   0.113 -0.0842 -0.2505 -0.0047
21314SOL    HW165616   7.762   5.023   0.138 -1.7929 -0.2243  0.3155
21314SOL    HW265617   7.733   4.885   0.193 -0.0570 -0.8894 -0.3530
21315SOL     OW65618   4.179   3.585   8.271 -0.2857  0.0613 -0.2294
21315SOL    HW165619   4.103   3.555   8.319 -0.9917  1.5113 -0.3819
21315SOL    HW265620   4.251   3.581   8.334 -0.9816  0.9248  0.6534
21316SOL     OW65621   5.789   4.187   0.253 -0.5640 -0.3627  0.2155
21316SOL    HW165622   5.801   4.229   0.168 -1.0290  0.1748  0.4066
21316SOL    HW265623   5.828   4.100   0.243  1.2105  0.3999  0.0670
21317SOL     OW65624   4.388   1.652   0.930 -0.1565  0.0510  0.1896
21317SOL    HW165625   4.408   1.701   1.010  0.5342  2.5163 -1.3614
21317SOL    HW265626   4.293   1.640   0.933 -0.8207  3.7865 -0.4015
21318SOL     OW65627   8.085   5.987   0.939 -0.0260 -0.5237 -0.3602
21318SOL    HW165628   8.106   6.073   0.975 -1.4797 -0.3783  0.2101
21318SOL    HW265629   7.990   5.986   0.933 -0.1331 -2.5528  0.8157
21319SOL     OW65630   0.179   6.264   5.202  0.4375 -0.0792 -0.2710
21319SOL    HW165631   0.172   6.318   5.281  0.5916 -0.7681  0.2224
21319SOL    HW265632   0.272   6.242   5.195  0.2993 -0.7420 -0.1408
21320SOL     OW65633   3.751   4.755   0.629  0.0773  0.1195 -0.1726
21320SOL    HW165634   3.671   4.743   0.680 -0.1243  0.8093 -0.3113
21320SOL    HW265635   3.798   4.825   0.674 -0.2159  0.9039 -1.0530
21321SOL     OW65636   9.631   3.734   2.673  0.0350  0.3931  0.5651
21321SOL    HW165637   9.564   3.746   2.740 -0.3879  0.1737  0.1882
21321SOL    HW265638   9.642   3.820   2.634 -0.6229  0.2722  0.0833
21322SOL     OW65639   2.048   8.855   0.065 -0.0351 -0.3034 -0.2663
21322SOL    HW165640   2.026   8.947   0.078 -0.0650 -0.3882  0.2830
21322SOL    HW265641   2.006   8.832  -0.018  0.7693  0.4324 -0.8965
21323SOL     OW65642   9.465   5.778   3.154  0.0678  0.4759 -0.0211
21323SOL    HW165643   9.493   5.735   3.074  0.1463  1.5837 -0.6092
21323SOL    HW265644   9.371   5.762   3.159 -0.2930  1.9673 -1.3526
21324SOL     OW65645   3.405   7.329   1.310  0.1454  0.3366  0.1934
21324SOL    HW165646   3.474   7.391   1.335 -0.3535  0.0752  2.4647
21324SOL    HW265647   3.430   7.247   1.353 -0.2994 -0.4635 -1.0323
21325SOL     OW65648   4.308   4.074   1.854  0.2343  0.0363  0.1895
21325SOL    HW165649   4.307   4.145   1.918 -2.3302  0.5736 -0.3292
21325SOL    HW265650   4.378   4.016   1.883  0.5724  1.3688  2.2210
21326SOL     OW65651   8.992   3.194   2.552 -0.1887  0.1280  0.0965
21326SOL    HW165652   9.017   3.232   2.637 -0.0462 -0.6811  0.4237
21326SOL    HW265653   8.897   3.190   2.555 -0.1382 -0.8776  0.6601
21327SOL     OW65654   4.852   3.852   0.123  0.4709 -0.4385  0.3158
21327SOL    HW165655   4.889   3.836   0.036 -2.2095 -0.3860 -0.9447
21327SOL    HW265656   4.915   3.909   0.166  1.1735  0.8415 -2.1920
21328SOL     OW65657   2.211   8.466   9.232 -0.3704  0.2505 -0.3835
21328SOL    HW165658   2.255   8.391   9.192 -0.2152 -0.1950  0.6072
21328SOL    HW265659   2.265   8.489   9.307 -0.6479  1.0887 -0.4282
21329SOL     OW65660   2.280   9.308   6.959 -0.7880  0.0628  0.0640
21329SOL    HW165661   2.264   9.253   7.036 -1.2528  0.6497  0.4007
21329SOL    HW265662   2.245   9.394   6.984 -0.9823  0.2499 -0.8176
21330SOL     OW65663   4.288   8.009   5.423 -0.7091 -0.4164  0.6267
21330SOL    HW165664   4.272   7.927   5.470 -1.0737 -2.0112 -2.0448
21330SOL    HW265665   4.301   7.982   5.332  0.9048  2.3653 -0.1006
21331SOL     OW65666   2.309   4.272   8.470  0.0177 -0.7228 -0.7973
21331SOL    HW165667   2.240   4.207   8.481 -1.0617  0.2560 -1.5266
21331SOL    HW265668   2.366   4.235   8.402  0.6501 -1.8500  0.2988
21332SOL     OW65669   2.958   1.201   1.320  0.2669  0.2637  0.6428
21332SOL    HW165670   2.898   1.218   1.248  0.2941  0.0120  0.5607
21332SOL    HW265671   2.946   1.275   1.379  0.8831  0.9184 -0.0335
21333SOL     OW65672   3.542   2.999   7.766 -0.2247  0.0070 -0.6593
21333SOL    HW165673   3.472   3.019   7.704 -2.9611 -3.5957  0.9270
21333SOL    HW265674   3.523   3.053   7.843  0.5128  1.1470 -1.2541
21334SOL     OW65675   0.648   7.214   6.187  0.0518 -0.1804  0.5157
21334SOL    HW165676   0.584   7.225   6.117  0.3049  0.9460  0.4425
21334SOL    HW265677   0.598   7.181   6.261 -0.3116 -0.8806 -0.0364
21335SOL     OW65678   4.954   1.344   7.489  0.0654  0.3002  0.1031
21335SOL    HW165679   5.024   1.340   7.423  0.1551 -0.8613  0.2594
21335SOL    HW265680   4.930   1.253   7.505 -0.3935  0.6020  1.2216
21336SOL     OW65681   3.429   9.018   1.354  0.2143 -0.0167 -0.1565
21336SOL    HW165682   3.376   8.943   1.327  0.4845  0.0381 -0.8581
21336SOL    HW265683   3.368   9.092   1.354  0.0251 -0.1683  0.2086
21337SOL     OW65684   6.023   1.140   8.533  0.1951 -0.0307 -0.0267
21337SOL    HW165685   5.940   1.092   8.536  0.3863 -0.4003 -0.4846
21337SOL    HW265686   6.075   1.092   8.469  0.6453  0.3900  0.0248
21338SOL     OW65687   7.432   9.325   6.826  0.5350 -0.1737  0.3370
21338SOL    HW165688   7.502   9.293   6.883  1.3895  1.2773  0.1353
21338SOL    HW265689   7.476   9.350   6.745 -0.2523  0.5285  0.1123
21339SOL     OW65690   2.271   4.095   6.278  0.0751 -0.3242  0.3598
21339SOL    HW165691   2.221   4.164   6.234 -0.4045 -0.1481  1.1546
21339SOL    HW265692   2.248   4.015   6.230 -0.6212 -0.1754  0.4359
21340SOL     OW65693   2.004   3.122   1.730 -0.1768 -0.4130 -0.6010
21340SOL    HW165694   1.952   3.130   1.810  0.3709 -2.3552  0.0171
21340SOL    HW265695   1.941   3.130   1.659 -0.6883  1.2489 -0.0055
21341SOL     OW65696   1.897   1.767   2.888  0.0048 -0.5847 -0.3132
21341SOL    HW165697   1.966   1.713   2.851  2.8179  2.3044  0.3466
21341SOL    HW265698   1.903   1.751   2.983 -1.0934 -1.1706 -0.3187
21342SOL     OW65699   2.015   8.715   3.160  0.7831  0.3202  0.1787
21342SOL    HW165700   1.924   8.696   3.138  0.4368  1.1316  0.8695
21342SOL    HW265701   2.054   8.629   3.176  0.4388 -0.1263 -1.1955
21343SOL     OW65702   6.149   8.381   7.621  0.1228 -0.1472 -0.7731
21343SOL    HW165703   6.235   8.408   7.588  0.0429  1.5008  0.2436
21343SOL    HW265704   6.164   8.358   7.712 -0.5944  0.6990 -0.4282
21344SOL     OW65705   5.539   6.385   3.741  0.9898 -0.1421  0.2712
21344SOL    HW165706   5.531   6.454   3.674  1.5818 -0.1233  0.2081
21344SOL    HW265707   5.522   6.430   3.824 -1.4132 -0.5070  0.0262
21345SOL     OW65708   5.855   2.617   7.831  0.0255 -0.4268 -0.0311
21345SOL    HW165709   5.786   2.596   7.769 -0.2231 -0.9991  0.4336
21345SOL    HW265710   5.864   2.712   7.825 -1.3144 -0.2445  0.4173
21346SOL     OW65711   4.041   8.980   4.290  0.2780  0.4337 -0.2494
21346SOL    HW165712   4.054   8.981   4.385 -0.4077  0.6989 -0.1537
21346SOL    HW265713   3.972   8.916   4.276 -0.0697  0.8613 -0.5064
21347SOL     OW65714   1.255   7.692   8.940 -0.0609  0.4478  0.3083
21347SOL    HW165715   1.271   7.775   8.984 -0.0243 -0.5534  2.2788
21347SOL    HW265716   1.265   7.626   9.008  0.9935 -1.2857 -1.4345
21348SOL     OW65717   3.062   8.942   7.808  0.3502 -0.1804 -0.9000
21348SOL    HW165718   3.045   9.020   7.861  0.7314 -1.1517  0.7196
21348SOL    HW265719   3.118   8.974   7.737 -2.7161  1.7888 -2.6459
21349SOL     OW65720   0.419   2.180   1.838 -0.2618  0.5283 -0.0029
21349SOL    HW165721   0.457   2.254   1.886 -0.8117  0.8254 -0.0136
21349SOL    HW265722   0.452   2.190   1.749  0.6439  0.0596  0.2613
21350SOL     OW65723   4.057   7.990   3.976  0.3128 -0.1201 -0.0572
21350SOL    HW165724   4.015   8.022   4.055  0.7371  1.6975 -0.5021
21350SOL    HW265725   4.124   7.929   4.007  0.8738  1.0129  1.0463
21351SOL     OW65726   9.581   7.136   9.528 -0.3043  0.1135 -0.4436
21351SOL    HW165727   9.676   7.139   9.534 -0.3407 -0.9101  1.2242
21351SOL    HW265728   9.559   7.202   9.462  1.5487  0.2737 -0.9532
21352SOL     OW65729   5.551   8.245   4.362  0.2200  0.3509  0.0547
21352SOL    HW165730   5.534   8.185   4.434  2.6058 -0.6046 -0.0768
21352SOL    HW265731   5.553   8.332   4.403  0.2984 -0.0486  0.9210
21353SOL     OW65732   4.734   2.410   2.194 -0.4994 -0.1960  0.0700
21353SOL    HW165733   4.785   2.330   2.205 -0.2893  0.0635  1.0863
21353SOL    HW265734   4.692   2.423   2.279  0.1072  1.2064  0.1748
21354SOL     OW65735   2.720   9.485   1.853 -0.3603 -0.1824  0.2746
21354SOL    HW165736   2.806   9.445   1.843 -0.0211  0.1459  1.6596
21354SOL    HW265737   2.663   9.412   1.879 -0.4910 -0.3803 -0.5410
21355SOL     OW65738   8.259   1.224   1.288  0.3672 -0.0837 -0.0423
21355SOL    HW165739   8.284   1.262   1.372 -1.2604 -1.8151  1.2930
21355SOL    HW265740   8.336   1.173   1.260  1.2569  1.2465 -0.1283
21356SOL     OW65741   2.458   8.454   1.330  0.1786 -0.3985  0.1904
21356SOL    HW165742   2.496   8.380   1.378 -0.6008 -0.2453  1.0845
21356SOL    HW265743   2.377   8.419   1.293 -0.9871  0.3516  1.8869
21357SOL     OW65744   6.488   3.635   2.603 -0.4357  0.1757  0.1633
21357SOL    HW165745   6.564   3.576   2.602  0.5511  1.3657  1.1618
21357SOL    HW265746   6.418   3.584   2.642 -0.7996 -1.6260 -2.5281
21358SOL     OW65747   4.840   4.522   7.404 -0.3995 -0.4928  0.3126
21358SOL    HW165748   4.909   4.553   7.346 -0.0297  0.9349  1.4352
21358SOL    HW265749   4.784   4.467   7.349  0.7828 -0.4504 -0.9800
21359SOL     OW65750   8.317   8.815   0.862  0.1905  0.0570  0.4516
21359SOL    HW165751   8.290   8.900   0.827 -1.8634 -0.4812  0.5942
21359SOL    HW265752   8.401   8.832   0.905  0.2518  1.8122 -0.2940
21360SOL     OW65753   1.437   2.897   9.277  0.2008  0.4011 -0.4902
21360SOL    HW165754   1.480   2.811   9.275  0.1520  0.3800 -0.7432
21360SOL    HW265755   1.376   2.895   9.203  0.9758  1.0531 -1.1715
21361SOL     OW65756   3.881   9.311   4.247 -0.8909 -0.1209 -0.3443
21361SOL    HW165757   3.972   9.303   4.220 -0.2521  1.3881  1.1850
21361SOL    HW265758   3.864   9.230   4.296  0.6193  0.8353  1.9073
21362SOL     OW65759   2.024   0.214   4.128  0.1064  0.2081  0.1814
21362SOL    HW165760   2.001   0.139   4.075  1.6930  0.6562 -1.2141
21362SOL    HW265761   2.007   0.290   4.072  0.4087  0.7878  0.8509
21363SOL     OW65762   0.989   7.661   5.556 -0.2061 -0.4180 -0.4557
21363SOL    HW165763   0.970   7.729   5.492  2.4906  0.1557 -0.7864
21363SOL    HW265764   1.035   7.593   5.507  2.3595  0.2523  0.7992
21364SOL     OW65765   2.928   6.582   8.846 -0.0008 -0.2922 -0.1405
21364SOL    HW165766   3.001   6.570   8.907  0.8172 -0.8937 -1.1985
21364SOL    HW265767   2.968   6.622   8.769 -0.9260  0.0387 -0.4550
21365SOL     OW65768   5.469   3.456   3.259 -0.2609 -0.5732  0.1583
21365SOL    HW165769   5.408   3.505   3.314  0.8061 -0.5167  1.3293
21365SOL    HW265770   5.458   3.494   3.172  0.0179  1.2729  0.8923
21366SOL     OW65771   9.329   6.374   9.397  0.2917  0.5807 -0.5731
21366SOL    HW165772   9.287   6.447   9.351  0.5158  0.1238 -1.5427
21366SOL    HW265773   9.293   6.376   9.485  0.7611  2.2429 -0.3970
21367SOL     OW65774   0.795   5.726   5.879 -0.3461 -0.4461 -0.0742
21367SOL    HW165775   0.748   5.723   5.796 -1.7118  0.7206  0.6196
21367SOL    HW265776   0.785   5.816   5.909  0.3183 -0.7882  1.2570
21368SOL     OW65777   5.606   7.624   6.802 -0.2729  0.1398 -0.2404
21368SOL    HW165778   5.557   7.557   6.850 -2.1100  1.6321  0.1036
21368SOL    HW265779   5.654   7.671   6.870 -0.8606  0.6400 -0.1601
21369SOL     OW65780   4.173   6.653   0.939  0.0172  0.0426 -0.0254
21369SOL    HW165781   4.230   6.654   0.862  0.7865 -1.2899  0.4938
21369SOL    HW265782   4.117   6.577   0.927 -0.3504  0.2420  0.3969
21370SOL     OW65783   0.509   6.981   1.244  0.5285 -0.9220 -0.3662
21370SOL    HW165784   0.433   6.956   1.297 -0.2227 -0.6868 -1.3111
21370SOL    HW265785   0.475   7.044   1.181  1.4492 -1.0510 -1.0196
21371SOL     OW65786   3.963   0.892   7.593 -0.1794 -0.0055  0.2332
21371SOL    HW165787   3.883   0.899   7.645 -0.4107 -0.6736 -0.0179
21371SOL    HW265788   3.954   0.808   7.547 -0.4860  1.0388 -1.7250
21372SOL     OW65789   9.659   2.353   0.782 -0.1752 -0.1590 -0.3495
21372SOL    HW165790   9.730   2.351   0.846  1.3872 -0.4858 -2.0002
21372SOL    HW265791   9.646   2.446   0.763  1.1747 -0.1588 -1.4203
21373SOL     OW65792   5.302   6.193   6.275 -0.4392  0.1223  0.5231
21373SOL    HW165793   5.255   6.160   6.351  1.3997 -1.1034  1.1968
21373SOL    HW265794   5.257   6.154   6.200 -0.3278 -1.2643  1.1519
21374SOL     OW65795   4.748   4.893   7.049 -0.0002  0.0726 -0.0306
21374SOL    HW165796   4.705   4.864   6.968 -1.4711  0.3891  0.5950
21374SOL    HW265797   4.685   4.871   7.118  1.1474 -0.0236  1.0159
21375SOL     OW65798   3.061   1.018   6.702  0.2469  0.2025 -0.1230
21375SOL    HW165799   3.023   1.105   6.688  0.6179  0.3207 -0.4222
21375SOL    HW265800   3.117   1.004   6.625 -0.1915 -0.5077 -0.3298
21376SOL     OW65801   0.392   1.128   1.831  0.3919 -0.0212 -0.1548
21376SOL    HW165802   0.349   1.095   1.752  2.4700 -0.1253 -1.3188
21376SOL    HW265803   0.451   1.196   1.800  0.2419  0.9291  1.5231
21377SOL     OW65804   2.321   1.994   3.546  0.0967 -1.1264 -0.8945
21377SOL    HW165805   2.280   2.046   3.476  0.0622 -1.0203 -0.7944
21377SOL    HW265806   2.411   2.024   3.549 -0.0463 -0.7385 -0.5126
21378SOL     OW65807   2.643   3.443   3.605  0.2104  0.1731  0.2201
21378SOL    HW165808   2.658   3.462   3.513  1.7242  1.1685  0.6338
21378SOL    HW265809   2.601   3.357   3.605  0.8890 -0.2044 -1.3629
21379SOL     OW65810   1.138   5.647   0.356  0.1148  0.1163 -0.4263
21379SOL    HW165811   1.203   5.683   0.296 -0.1443 -0.3664 -1.0199
21379SOL    HW265812   1.116   5.719   0.415 -0.2484  0.8834 -1.4563
21380SOL     OW65813   6.204   3.070   9.470  0.2599  0.4464 -0.4760
21380SOL    HW165814   6.245   3.027   9.395  0.9298 -0.1464  0.2164
21380SOL    HW265815   6.118   3.096   9.437 -0.5925 -2.2685 -0.6860
21381SOL     OW65816   3.167   1.872   7.575 -0.1498  0.7131  0.3631
21381SOL    HW165817   3.078   1.838   7.581 -0.4163  1.3202 -0.0349
21381SOL    HW265818   3.204   1.829   7.498 -0.2799  0.8669  0.2155
21382SOL     OW65819   1.540   8.606   5.963 -0.0784 -0.3862 -0.0289
21382SOL    HW165820   1.461   8.634   5.916 -0.0748  0.6983  0.5845
21382SOL    HW265821   1.531   8.511   5.969 -2.3223 -0.1706  1.6711
21383SOL     OW65822   4.617   0.534   1.063 -0.0892  0.3800  0.2601
21383SOL    HW165823   4.679   0.472   1.102  0.5358  0.3136 -0.8157
21383SOL    HW265824   4.531   0.503   1.091  0.2234 -0.9083 -0.1543
21384SOL     OW65825   1.055   2.365   3.184 -0.5491 -0.3676  0.0806
21384SOL    HW165826   1.042   2.332   3.095 -3.1587 -1.6638  0.8205
21384SOL    HW265827   1.150   2.373   3.193 -0.2059  0.1308 -2.8992
21385SOL     OW65828   0.972   8.186   4.267 -0.0333 -0.1092 -0.0146
21385SOL    HW165829   0.992   8.092   4.261 -0.2818 -0.2246  0.8021
21385SOL    HW265830   1.038   8.220   4.328 -1.5748 -0.2987  1.8785
21386SOL     OW65831   1.827   3.109   2.219  0.5164 -0.0920  0.0816
21386SOL    HW165832   1.797   3.030   2.264  0.1589  0.3577  0.6380
21386SOL    HW265833   1.840   3.173   2.289  3.4015 -0.4330  0.0063
21387SOL     OW65834   0.741   3.321   0.427  0.3202 -0.1321 -0.2772
21387SOL    HW165835   0.681   3.310   0.353 -0.4377 -0.1199  0.3301
21387SOL    HW265836   0.807   3.253   0.414 -0.5485 -1.0054 -0.2382
21388SOL     OW65837   6.390   6.721   4.752 -0.3147 -0.2792  0.2134
21388SOL    HW165838   6.321   6.779   4.785  0.0422 -0.1463  0.7476
21388SOL    HW265839   6.343   6.651   4.707 -0.8290 -0.4712  1.0228
21389SOL     OW65840   7.395   9.132   2.068 -0.3113  0.0158 -0.3338
21389SOL    HW165841   7.470   9.162   2.018 -0.0739  0.2385  0.1449
21389SOL    HW265842   7.430   9.064   2.126 -0.8796 -1.4000 -1.5679
21390SOL     OW65843   4.678   1.918   3.332  0.4981 -0.8144 -0.3364
21390SOL    HW165844   4.654   1.969   3.255  0.4840  0.0061  0.2025
21390SOL    HW265845   4.731   1.978   3.385  2.6713 -2.1536 -0.8824
21391SOL     OW65846   8.567   7.674   2.619  0.8301  0.1737 -0.3947
21391SOL    HW165847   8.569   7.663   2.524  0.8954 -1.6235 -0.2263
21391SOL    HW265848   8.647   7.631   2.650  1.2401  1.4818  0.4262
21392SOL     OW65849   4.999   3.338   0.801  0.5013 -0.6155  0.0348
21392SOL    HW165850   4.904   3.328   0.803  0.5616 -1.3908 -0.4209
21392SOL    HW265851   5.031   3.288   0.876  0.5405 -0.2312  0.2749
21393SOL     OW65852   6.906   4.641   1.091 -0.0674  0.2788 -0.0465
21393SOL    HW165853   6.992   4.641   1.132 -0.3367 -0.4748  0.5413
21393SOL    HW265854   6.872   4.729   1.106 -0.3399 -0.1035  1.7582
21394SOL     OW65855   7.702   9.173   1.869  0.3805  0.1131 -0.2195
21394SOL    HW165856   7.725   9.256   1.910 -0.9697 -0.7540  2.5379
21394SOL    HW265857   7.734   9.106   1.930  0.0191 -1.3726 -1.5665
21395SOL     OW65858   2.596   4.678   5.460 -0.2307 -0.7092  0.0783
21395SOL    HW165859   2.679   4.643   5.493  0.5694  1.3016  0.3250
21395SOL    HW265860   2.556   4.721   5.535 -0.4733  0.1605 -0.5386
21396SOL     OW65861   0.252   0.252   0.006  0.0243 -0.3410  0.3943
21396SOL    HW165862   0.294   0.236  -0.079 -1.3387  2.1954 -0.8738
21396SOL    HW265863   0.168   0.292  -0.017 -0.2102  0.7823  2.9675
21397SOL     OW65864   7.757   5.500   7.722  0.1169 -0.2446  0.1507
21397SOL    HW165865   7.849   5.479   7.740  0.2358  0.8803  0.9495
21397SOL    HW265866   7.712   5.415   7.724  1.1319 -0.8020 -0.2348
21398SOL     OW65867   5.241   1.320   2.502 -0.6117 -0.4514 -0.0901
21398SOL    HW165868   5.246   1.324   2.598  1.6119  0.9018 -0.1841
21398SOL    HW265869   5.270   1.407   2.474 -1.6723 -0.6730 -2.0145
21399SOL     OW65870   8.405   6.139   5.625 -0.4788  0.0473 -0.5892
21399SOL    HW165871   8.406   6.048   5.594 -1.4247  0.2187 -1.1710
21399SOL    HW265872   8.393   6.131   5.720 -2.4373 -0.4502 -0.8218
21400SOL     OW65873   3.971   9.481   5.865 -0.4739  0.2132  0.0912
21400SOL    HW165874   3.953   9.567   5.904 -2.5984 -0.7978  1.5049
21400SOL    HW265875   3.885   9.445   5.844  0.2258 -2.2179  1.0114
21401SOL     OW65876   8.997   0.654   2.954 -0.0214 -0.7807 -0.0024
21401SOL    HW165877   9.084   0.674   2.989 -0.3361 -0.9801  0.9204
21401SOL    HW265878   8.944   0.635   3.031 -1.3123  0.9146 -0.4198
21402SOL     OW65879   4.401   0.536   0.676 -0.0317  0.1620  0.1518
21402SOL    HW165880   4.337   0.594   0.715  0.5831  1.4811 -0.7244
21402SOL    HW265881   4.486   0.576   0.696  0.6519 -2.0665  2.1493
21403SOL     OW65882   7.007   6.678   5.079 -0.1334 -0.3763  0.5257
21403SOL    HW165883   6.958   6.760   5.067  1.2422  0.5412  0.9215
21403SOL    HW265884   7.013   6.641   4.991  0.2133  0.5478  0.1425
21404SOL     OW65885   1.689   5.698   6.022 -0.0669 -0.3704  0.3823
21404SOL    HW165886   1.673   5.616   5.976 -0.1072 -0.7798  1.1131
21404SOL    HW265887   1.603   5.725   6.054  0.1079 -0.6067  1.0645
21405SOL     OW65888   0.994   6.329   0.811 -0.2553  0.3555  0.4163
21405SOL    HW165889   1.002   6.261   0.878 -1.1919 -0.1159  0.0723
21405SOL    HW265890   1.077   6.376   0.814  0.5374 -0.9970  0.4538
21406SOL     OW65891   1.291   8.465   2.384 -0.0813  0.2464 -1.0186
21406SOL    HW165892   1.258   8.542   2.429  0.3849  0.2598 -0.6878
21406SOL    HW265893   1.212   8.419   2.354 -0.4322 -0.0356  0.2705
21407SOL     OW65894   6.895   8.816   2.591 -0.0787  0.0419 -0.1176
21407SOL    HW165895   6.887   8.766   2.673  0.1054 -0.7652 -0.5835
21407SOL    HW265896   6.989   8.829   2.581 -0.0095 -0.9418 -0.8329
21408SOL     OW65897   7.971   0.184   9.245  0.3039  0.2150  0.4067
21408SOL    HW165898   7.917   0.162   9.321  1.5534 -0.5335  1.1110
21408SOL    HW265899   7.946   0.119   9.179  0.0530  0.1324  0.5787
21409SOL     OW65900   5.518   6.172   5.051  0.0582 -0.2756  0.3016
21409SOL    HW165901   5.494   6.148   5.140  1.5796 -2.9001  0.1011
21409SOL    HW265902   5.436   6.169   5.002 -0.5492 -0.3221  1.3073
21410SOL     OW65903   8.888   6.435   8.951 -0.5450 -0.0608 -0.3422
21410SOL    HW165904   8.970   6.461   8.909  0.2080  0.3571  1.2945
21410SOL    HW265905   8.820   6.454   8.886  0.6662 -0.7201 -1.8531
21411SOL     OW65906   1.357   9.006   9.501  0.0778  0.0101 -0.0938
21411SOL    HW165907   1.428   8.988   9.562 -1.3716 -1.5617  1.2389
21411SOL    HW265908   1.297   9.063   9.550 -0.6051 -0.4311 -0.3986
21412SOL     OW65909   8.598   0.835   0.927  0.1572  0.0214  0.7322
21412SOL    HW165910   8.598   0.740   0.916  1.5075  0.0692  0.0584
21412SOL    HW265911   8.690   0.857   0.946 -0.1995  1.1513  1.2590
21413SOL     OW65912   1.195   3.771   4.568  0.2284  0.2699  0.7313
21413SOL    HW165913   1.263   3.713   4.600 -0.4054 -0.8672  0.0972
21413SOL    HW265914   1.127   3.768   4.634  0.2829  0.4634  0.7974
21414SOL     OW65915   9.518   1.761   4.076  0.2829 -0.1107 -0.1518
21414SOL    HW165916   9.514   1.670   4.048 -1.2908 -0.6995  1.7079
21414SOL    HW265917   9.537   1.756   4.170  2.6027  1.6099 -0.4297
21415SOL     OW65918   4.906   2.118   2.173  0.4907  0.2597  0.2151
21415SOL    HW165919   4.947   2.037   2.141 -1.6119 -1.0694  0.6695
21415SOL    HW265920   4.888   2.099   2.266 -4.2766 -0.7640 -0.6643
21416SOL     OW65921   8.946   8.149   7.377  0.1729  0.2176 -0.3177
21416SOL    HW165922   9.035   8.114   7.388 -0.2246 -0.9237 -0.5985
21416SOL    HW265923   8.890   8.084   7.419 -0.5329  1.0139  0.0059
21417SOL     OW65924   5.352   3.743   5.355  0.2177 -0.8044  0.3540
21417SOL    HW165925   5.261   3.745   5.386 -0.3294  1.7468 -1.1755
21417SOL    HW265926   5.404   3.737   5.435 -1.2307  0.2137  1.4290
21418SOL     OW65927   6.889   3.130   2.984  0.3452  0.2327 -0.0120
21418SOL    HW165928   6.879   3.077   3.064 -2.7790  0.8115  0.1379
21418SOL    HW265929   6.963   3.188   3.002  1.6828 -1.7211  1.1703
21419SOL     OW65930   7.517   9.129   4.519 -0.0132  0.1470  0.0324
21419SOL    HW165931   7.519   9.141   4.424  0.5344 -1.6769 -0.2200
21419SOL    HW265932   7.472   9.046   4.531 -0.3047  0.4782  1.4066
21420SOL     OW65933   2.323   6.617   8.981  0.0818  0.2960  0.1833
21420SOL    HW165934   2.236   6.584   8.959  0.1202  0.1189  0.2946
21420SOL    HW265935   2.337   6.690   8.920 -0.5902  1.0332  0.8998
21421SOL     OW65936   1.890   1.420   6.080  0.3168 -0.0734  0.3385
21421SOL    HW165937   1.801   1.385   6.082 -0.0135  0.2355 -2.9696
21421SOL    HW265938   1.946   1.343   6.090 -0.1347 -0.1018  4.1730
21422SOL     OW65939   2.896   2.157   3.476 -0.5687 -0.3647 -0.4430
21422SOL    HW165940   2.964   2.171   3.409 -0.9210  1.0397 -0.5505
21422SOL    HW265941   2.871   2.065   3.466  1.4167 -0.9753 -0.2946
21423SOL     OW65942   0.449   4.048   6.723 -0.2606 -0.0796  0.3371
21423SOL    HW165943   0.478   3.972   6.773  1.3531  0.3900  0.1844
21423SOL    HW265944   0.484   4.034   6.635  0.4322  1.0179  0.4145
21424SOL     OW65945   0.830   4.521   7.708 -0.2062  0.5085 -0.3116
21424SOL    HW165946   0.776   4.442   7.704 -0.8358  0.9314 -0.3749
21424SOL    HW265947   0.833   4.554   7.618 -0.0271  0.6065 -0.2713
21425SOL     OW65948   5.994   4.068   4.242 -0.3858  0.2689 -0.0286
21425SOL    HW165949   5.908   4.109   4.230  0.3527  1.0540 -3.9295
21425SOL    HW265950   5.988   3.986   4.194  0.4157 -0.7824  1.5866
21426SOL     OW65951   7.193   0.132   9.424  0.2365  0.2988 -0.0595
21426SOL    HW165952   7.235   0.111   9.340  3.4998 -0.6080  1.6144
21426SOL    HW265953   7.232   0.215   9.450  0.7442 -0.3754  1.4055
21427SOL     OW65954   0.738   2.703   3.734 -0.1690  0.2632  0.1239
21427SOL    HW165955   0.698   2.617   3.748  1.1314 -0.2907  0.5955
21427SOL    HW265956   0.710   2.728   3.646 -2.1902  0.2881  0.7217
21428SOL     OW65957   0.070   5.712   5.206 -0.3115 -0.1095 -0.5035
21428SOL    HW165958  -0.017   5.748   5.220 -0.8665 -2.0182  1.5371
21428SOL    HW265959   0.098   5.682   5.292  1.8334 -0.7004 -1.3420
21429SOL     OW65960   3.999   1.319   1.810  0.0651  0.0680  0.9518
21429SOL    HW165961   4.073   1.358   1.764  0.5956 -1.3874  0.5432
21429SOL    HW265962   3.930   1.313   1.743  0.5619 -1.2792  0.5411
21430SOL     OW65963   0.691   0.571   1.203  1.0218  1.0228 -0.6867
21430SOL    HW165964   0.728   0.483   1.196  1.4195  1.0357  0.9875
21430SOL    HW265965   0.599   0.561   1.179  1.2641  0.3259 -1.3641
21431SOL     OW65966   5.058   8.428   0.917 -0.3968  0.2680 -0.3692
21431SOL    HW165967   5.075   8.480   0.838  0.0293  0.0795 -0.4005
21431SOL    HW265968   4.975   8.463   0.950 -0.6265  0.2920 -0.9454
21432SOL     OW65969   7.066   2.817   4.273  0.0851 -0.3409 -0.0497
21432SOL    HW165970   7.158   2.789   4.277  0.1538 -0.3865 -1.3369
21432SOL    HW265971   7.052   2.839   4.181 -1.0799  0.0910  0.2117
21433SOL     OW65972   6.407   1.594   9.571 -0.2217 -0.1882 -0.1008
21433SOL    HW165973   6.341   1.655   9.605 -0.0317  0.7546 -1.3697
21433SOL    HW265974   6.359   1.513   9.555 -1.1949  0.6216 -1.4241
21434SOL     OW65975   4.845   1.118   5.444 -0.4880  0.1709 -0.2487
21434SOL    HW165976   4.883   1.031   5.436 -0.6593  0.1558 -0.9411
21434SOL    HW265977   4.914   1.170   5.485 -0.6737 -0.4724  0.9387
21435SOL     OW65978   0.106   7.735   5.855 -0.0904  0.0003 -0.2277
21435SOL    HW165979   0.024   7.703   5.892 -0.6416  0.0691 -1.3540
21435SOL    HW265980   0.086   7.753   5.763  0.4286  2.6493  0.0720
21436SOL     OW65981   2.532   5.982   6.205  0.3182  0.2208  0.7444
21436SOL    HW165982   2.562   5.895   6.232  1.1718 -0.3910 -1.8986
21436SOL    HW265983   2.608   6.022   6.163 -1.3352  0.2774 -2.4405
21437SOL     OW65984   5.020   5.919   1.404  0.0183 -0.2350  0.0006
21437SOL    HW165985   4.949   5.981   1.387 -0.5643 -0.0545  2.6461
21437SOL    HW265986   4.990   5.837   1.363 -1.2120  0.1293  0.1218
21438SOL     OW65987   4.453   3.970   2.799  0.1302  0.2902 -0.6308
21438SOL    HW165988   4.446   4.049   2.745  2.7626  0.3909 -0.9283
21438SOL    HW265989   4.471   3.900   2.736 -2.5464 -0.7180 -0.4125
21439SOL     OW65990   6.242   8.572   4.763 -0.7307  0.1092  0.2325
21439SOL    HW165991   6.201   8.656   4.785 -0.6839 -0.0679  1.0084
21439SOL    HW265992   6.270   8.536   4.847 -0.7564 -0.6904 -0.0972
21440SOL     OW65993   3.533   0.957   5.197 -0.0884 -0.4311  0.1559
21440SOL    HW165994   3.453   0.944   5.248 -0.4775  1.2261  0.0359
21440SOL    HW265995   3.517   1.038   5.148  0.2870 -1.8965 -2.5846
21441SOL     OW65996   1.171   6.680   6.548  0.5582  0.0696 -0.2014
21441SOL    HW165997   1.220   6.608   6.507  0.1881 -1.7224  2.2637
21441SOL    HW265998   1.212   6.692   6.633 -1.3067  0.6347  0.6771
21442SOL     OW65999   9.431   5.623   5.358 -0.4882 -0.8098 -0.2204
21442SOL    HW166000   9.378   5.650   5.433  0.7835 -0.7853  0.7019
21442SOL    HW266001   9.469   5.539   5.383  2.4601  0.6053  0.5657
21443SOL     OW66002   2.874   5.241   9.269  0.1209  0.2487 -0.0218
21443SOL    HW166003   2.845   5.272   9.355 -0.4034  1.2519 -0.5504
21443SOL    HW266004   2.969   5.249   9.272  0.0357  1.3704  0.0666
21444SOL     OW66005   4.699   4.169   2.125 -0.1922  0.3789 -0.6223
21444SOL    HW166006   4.671   4.083   2.094  2.1801 -1.2121  1.2664
21444SOL    HW266007   4.772   4.193   2.068  0.6046  0.0364  0.2305
21445SOL     OW66008   4.561   1.903   7.686 -0.1472 -0.2526  0.5972
21445SOL    HW166009   4.517   1.967   7.742 -1.2780 -0.6922  0.2312
21445SOL    HW266010   4.655   1.919   7.700 -0.4006 -0.0275  2.2451
21446SOL     OW66011   8.177   4.515   4.368 -0.0817  0.6323 -0.4928
21446SOL    HW166012   8.243   4.582   4.390  1.6775 -1.1104 -0.1661
21446SOL    HW266013   8.105   4.531   4.429  0.5039  1.9262 -0.1163
21447SOL     OW66014   2.793   7.974   5.811 -0.1116 -0.1206 -0.4738
21447SOL    HW166015   2.823   7.885   5.791  0.6586 -0.0778  0.4248
21447SOL    HW266016   2.745   8.001   5.732  2.0238 -0.2721 -1.9269
21448SOL     OW66017   5.648   6.836   0.113 -0.0939 -0.1906 -0.5276
21448SOL    HW166018   5.719   6.865   0.170  0.9825 -0.8483 -1.4925
21448SOL    HW266019   5.578   6.811   0.173  0.5024  0.4407  0.4487
21449SOL     OW66020   2.247   4.252   5.770  0.1435  0.1341 -0.2177
21449SOL    HW166021   2.256   4.320   5.702 -1.5090  1.5004  0.8152
21449SOL    HW266022   2.183   4.289   5.831 -0.7434 -2.3359  0.4710
21450SOL     OW66023   2.685   9.050   4.186 -0.1336  0.5964  0.8258
21450SOL    HW166024   2.616   9.115   4.193 -1.0350 -0.4733  2.5805
21450SOL    HW266025   2.639   8.967   4.170  0.9012  0.1793 -0.1497
21451SOL     OW66026   5.666   8.135   6.656 -0.5367 -0.9488  0.1027
21451SOL    HW166027   5.610   8.205   6.623 -1.0571 -1.7786 -0.8676
21451SOL    HW266028   5.654   8.137   6.751 -0.6043  0.2081  0.0775
21452SOL     OW66029   7.969   5.852   9.352 -0.4488  0.2320  0.4186
21452SOL    HW166030   8.006   5.764   9.346  1.1379  0.8806  0.2386
21452SOL    HW266031   7.889   5.849   9.300 -1.4399 -1.5931  1.9192
21453SOL     OW66032   7.643   4.706   7.478  0.4075  0.0100 -0.1622
21453SOL    HW166033   7.722   4.760   7.467 -0.5471  1.5262  0.0653
21453SOL    HW266034   7.579   4.745   7.419  0.1398 -1.9635 -1.2708
21454SOL     OW66035   1.869   9.564   0.778  0.1768 -0.2950  0.1006
21454SOL    HW166036   1.790   9.571   0.724  0.8877 -0.6514 -1.0195
21454SOL    HW266037   1.915   9.647   0.764  0.0441 -0.1220  0.6848
21455SOL     OW66038   5.559   3.268   3.974 -0.4565  0.6472  0.6653
21455SOL    HW166039   5.640   3.232   4.009 -0.0625  0.2500 -0.6140
21455SOL    HW266040   5.580   3.291   3.883 -2.1990 -0.9358 -0.2012
21456SOL     OW66041   5.111   0.904   0.123  0.4018  0.6304  0.6799
21456SOL    HW166042   5.178   0.854   0.076  0.3708  0.9132  0.3299
21456SOL    HW266043   5.029   0.859   0.103  0.3061  1.1143 -0.0563
21457SOL     OW66044   3.402   4.571   3.517  0.2697 -0.1783 -0.0916
21457SOL    HW166045   3.465   4.499   3.525  0.1174 -0.2715  0.3274
21457SOL    HW266046   3.401   4.593   3.424  0.4549 -0.5976 -0.1944
21458SOL     OW66047   8.672   7.978   7.009  0.3521  0.1036  0.5241
21458SOL    HW166048   8.708   8.032   7.079 -1.7808  0.2580  1.5626
21458SOL    HW266049   8.669   8.036   6.933 -1.7697  1.5064  1.5843
21459SOL     OW66050   4.001   0.056   1.620  0.2303 -0.5071 -0.5939
21459SOL    HW166051   4.013   0.131   1.563 -0.4993  1.4236  1.6139
21459SOL    HW266052   4.057  -0.012   1.584  0.8572  1.0652 -2.7258
21460SOL     OW66053   0.007   4.206   0.130 -0.4287 -0.0460 -0.2269
21460SOL    HW166054  -0.060   4.141   0.112  0.3418 -0.5303 -1.4529
21460SOL    HW266055   0.071   4.195   0.060  1.4118 -0.2393  1.3867
21461SOL     OW66056   3.517   0.390   3.144 -0.1023  0.0585 -0.0540
21461SOL    HW166057   3.488   0.427   3.227 -0.7708 -0.5668 -0.0030
21461SOL    HW266058   3.596   0.440   3.122 -0.8023  1.3073  0.1657
21462SOL     OW66059   6.928   6.439   1.896  0.2914 -0.2646  0.2745
21462SOL    HW166060   6.917   6.385   1.975  0.2515  2.3745  2.1981
21462SOL    HW266061   7.017   6.420   1.866  0.7742 -0.3847  1.7256
21463SOL     OW66062   6.354   9.309   5.972 -0.5663 -0.0146 -0.1204
21463SOL    HW166063   6.377   9.216   5.980 -0.3309 -0.0993 -1.5600
21463SOL    HW266064   6.419   9.345   5.912  0.2489  1.4435  1.5403
21464SOL     OW66065   3.052   0.494   9.005 -0.2713 -0.0408  0.4869
21464SOL    HW166066   3.061   0.588   9.024  2.0689 -0.5143  2.2422
21464SOL    HW266067   2.962   0.484   8.974 -0.7591  2.6974  0.7620
21465SOL     OW66068   9.024   5.905   7.533 -0.4194  0.5252 -0.7732
21465SOL    HW166069   9.044   5.990   7.571  0.2871  0.8250 -1.7677
21465SOL    HW266070   9.019   5.921   7.439 -2.5132 -0.1228 -0.8230
21466SOL     OW66071   3.852   5.831   1.014 -0.3761  0.3049 -0.0657
21466SOL    HW166072   3.866   5.905   0.954 -0.7898 -0.6340 -1.3523
21466SOL    HW266073   3.796   5.867   1.083 -2.0614  0.7569 -1.6130
21467SOL     OW66074   1.846   6.052   1.260  0.0480  0.4219 -0.2846
21467SOL    HW166075   1.759   6.088   1.279 -0.9906 -0.6135 -2.7556
21467SOL    HW266076   1.881   6.109   1.191 -0.5782 -1.6657 -2.4448
21468SOL     OW66077   3.895   2.142   4.146 -0.5259 -0.3735 -0.1500
21468SOL    HW166078   3.870   2.194   4.070 -0.5777  1.3160  0.9785
21468SOL    HW266079   3.814   2.097   4.172 -0.4802 -1.0615 -1.1221
21469SOL     OW66080   9.248   4.682   0.659 -0.1479  0.0741 -0.2369
21469SOL    HW166081   9.306   4.757   0.641  1.8621 -1.0139  1.2276
21469SOL    HW266082   9.308   4.610   0.678 -1.9967 -1.1762  1.2404
21470SOL     OW66083   3.941   6.401   0.434 -0.1782 -0.2364 -0.4125
21470SOL    HW166084   4.035   6.414   0.422 -0.3038 -0.6047 -2.0173
21470SOL    HW266085   3.906   6.489   0.447  0.4659 -0.1603  0.9079
21471SOL     OW66086   3.698   9.031   3.473  0.3155 -0.0569  0.1058
21471SOL    HW166087   3.748   9.097   3.424  2.1741 -1.5381 -0.0871
21471SOL    HW266088   3.657   8.977   3.406 -1.0674  0.7405  0.2653
21472SOL     OW66089   2.543   5.714   6.348 -0.3152 -0.1353 -0.2782
21472SOL    HW166090   2.470   5.658   6.323 -0.6089 -0.7410  1.8162
21472SOL    HW266091   2.610   5.654   6.380 -0.0076  0.6077  0.4877
21473SOL     OW66092   6.820   7.962   1.706  0.5038  0.0099 -0.0219
21473SOL    HW166093   6.795   8.045   1.746 -0.2776 -0.0014 -0.4697
21473SOL    HW266094   6.867   7.915   1.775 -1.0787 -0.1250  1.0132
21474SOL     OW66095   2.494   1.606   1.985 -0.0032 -0.6803 -0.8117
21474SOL    HW166096   2.495   1.575   1.895 -0.7201 -0.3294 -0.9441
21474SOL    HW266097   2.460   1.695   1.980 -0.7387 -0.9126 -0.1164
21475SOL     OW66098   7.175   5.472   5.957  0.0556  0.4505  0.2109
21475SOL    HW166099   7.237   5.466   6.030 -0.9088  0.4011  1.0531
21475SOL    HW266100   7.091   5.489   5.999 -0.6595 -0.3878 -0.8479
21476SOL     OW66101   8.888   2.155   2.784  0.8729 -0.2578  0.2380
21476SOL    HW166102   8.854   2.069   2.760 -0.1099  0.1278  0.2260
21476SOL    HW266103   8.962   2.168   2.724 -1.6915  0.7983 -2.9654
21477SOL     OW66104   2.756   9.298   5.214  0.0348  0.0152 -0.2797
21477SOL    HW166105   2.675   9.267   5.255 -0.1485 -0.8090 -1.2174
21477SOL    HW266106   2.824   9.242   5.251  0.3309  1.3025  1.1908
21478SOL     OW66107   1.178   2.231   5.285  0.0858 -0.1917 -0.5570
21478SOL    HW166108   1.084   2.213   5.279  0.2041 -0.9136 -0.3286
21478SOL    HW266109   1.197   2.285   5.209 -0.5538  0.1366 -0.4933
21479SOL     OW66110   7.802   3.930   6.617 -0.0150 -0.2253 -0.1660
21479SOL    HW166111   7.815   4.011   6.666 -0.6706 -1.0128  1.3567
21479SOL    HW266112   7.882   3.921   6.564  0.8788  0.4668  1.0182
21480SOL     OW66113   9.206   8.359   2.288  0.7809 -0.2180 -0.1765
21480SOL    HW166114   9.130   8.416   2.280 -0.7689 -2.3520 -2.2939
21480SOL    HW266115   9.217   8.346   2.382 -0.7246  1.0736  0.2124
21481SOL     OW66116   6.209   4.179   8.638 -0.6015 -0.2279 -0.0352
21481SOL    HW166117   6.256   4.214   8.713 -2.0130 -0.8898  1.2086
21481SOL    HW266118   6.207   4.250   8.574 -1.2938  1.1277  1.4531
21482SOL     OW66119   6.595   4.448   7.926  0.2748 -0.2209 -0.6473
21482SOL    HW166120   6.572   4.458   8.018 -1.1372 -1.7364 -0.7997
21482SOL    HW266121   6.615   4.537   7.896  0.3969  0.3300  1.0160
21483SOL     OW66122   4.464   5.504   2.413  0.1617  0.4789  0.6521
21483SOL    HW166123   4.507   5.551   2.484 -0.6526  0.7400  0.9901
21483SOL    HW266124   4.465   5.412   2.441 -0.0694  0.5687  0.9637
21484SOL     OW66125   8.184   0.952   7.717  0.7565  0.3202  0.1028
21484SOL    HW166126   8.256   0.889   7.708  1.1231  0.8980 -1.2808
21484SOL    HW266127   8.226   1.037   7.703  0.0144  0.7580  0.5216
21485SOL     OW66128   7.918   8.472   9.638 -0.3888 -0.2888  0.2453
21485SOL    HW166129   7.866   8.530   9.583  1.8493  1.7306  0.0618
21485SOL    HW266130   7.885   8.486   9.727 -1.2103 -0.2935 -0.0554
21486SOL     OW66131   7.346   0.886   6.112  0.0956  0.0791 -0.9479
21486SOL    HW166132   7.340   0.949   6.183 -1.4642 -0.4996 -0.5271
21486SOL    HW266133   7.426   0.910   6.065  1.4595  0.1543  1.2926
21487SOL     OW66134   7.122   9.179   8.746 -0.4621 -0.2411  0.2921
21487SOL    HW166135   7.058   9.210   8.810  0.1286 -2.4785  2.0734
21487SOL    HW266136   7.194   9.144   8.798  1.8401  1.2973 -1.6552
21488SOL     OW66137   8.293   5.204   3.414 -0.2523 -0.3789 -0.4666
21488SOL    HW166138   8.214   5.190   3.467 -0.4836  0.9811 -0.4151
21488SOL    HW266139   8.365   5.182   3.473 -0.5374  0.3996  0.2015
21489SOL     OW66140   9.639   7.984   8.612  0.2763 -0.6198 -0.3115
21489SOL    HW166141   9.627   8.065   8.663  0.3674  0.5476 -2.0736
21489SOL    HW266142   9.726   7.993   8.573  0.3865 -1.6966 -0.3269
21490SOL     OW66143   3.790   9.528   7.457  0.2152 -0.4577 -0.1772
21490SOL    HW166144   3.772   9.530   7.363 -2.2977 -1.4721  0.1941
21490SOL    HW266145   3.813   9.437   7.475 -1.4862 -0.8120  0.4577
21491SOL     OW66146   1.387   7.443   2.102 -0.2347 -0.0315  0.0666
21491SOL    HW166147   1.375   7.358   2.058 -1.2908 -0.4865  1.1680
21491SOL    HW266148   1.481   7.456   2.104 -0.0593 -1.1116 -0.2512
21492SOL     OW66149   1.885   4.388   2.306 -0.2321 -0.3640 -0.1130
21492SOL    HW166150   1.933   4.324   2.254 -0.9768 -1.0295 -0.0095
21492SOL    HW266151   1.950   4.453   2.330  0.2594 -0.3890 -1.3224
21493SOL     OW66152   8.425   6.071   7.765 -0.2168  0.6645  0.3551
21493SOL    HW166153   8.359   6.129   7.802  0.7187  0.6634  2.1343
21493SOL    HW266154   8.468   6.032   7.841  0.5226 -0.8413 -0.7721
21494SOL     OW66155   7.296   0.397   7.355 -0.4114  0.2297 -0.3633
21494SOL    HW166156   7.245   0.432   7.282 -0.6537  2.6259  0.8608
21494SOL    HW266157   7.261   0.309   7.369 -3.1057  1.1826 -0.6065
21495SOL     OW66158   4.986   7.336   2.883 -0.3798 -0.7173 -0.0863
21495SOL    HW166159   5.072   7.372   2.906 -0.8926 -0.8133  2.2049
21495SOL    HW266160   4.989   7.327   2.788  1.5715  0.7325 -0.2279
21496SOL     OW66161   5.318   6.129   3.449 -0.5598  0.1656  0.7071
21496SOL    HW166162   5.353   6.129   3.360 -0.0822  0.1841  0.8890
21496SOL    HW266163   5.224   6.143   3.439 -0.5847 -0.3733  0.1803
21497SOL     OW66164   8.662   3.304   7.401  0.5032  0.6773 -0.6774
21497SOL    HW166165   8.708   3.256   7.469 -0.2360  0.9200  0.0023
21497SOL    HW266166   8.573   3.269   7.402  0.2926  1.1869 -1.0262
21498SOL     OW66167   7.436   2.162   6.318  0.2265 -0.1161  0.2172
21498SOL    HW166168   7.402   2.203   6.398 -2.4972 -2.1710  0.2761
21498SOL    HW266169   7.422   2.227   6.250 -2.9430 -0.3457  0.4988
21499SOL     OW66170   4.975   2.799   7.984 -0.1185  0.1896  0.2615
21499SOL    HW166171   5.033   2.858   7.935  0.9334 -0.0770  1.1403
21499SOL    HW266172   5.028   2.721   7.999 -0.8284 -0.1980  0.8003
21500SOL     OW66173   2.492   6.429   0.256 -0.6774 -0.5628  0.6485
21500SOL    HW166174   2.561   6.380   0.211  2.1175  1.4224  2.4693
21500SOL    HW266175   2.460   6.369   0.323  0.7070 -0.8985  1.0449
21501SOL     OW66176   3.700   0.797   4.320 -0.3493 -0.5195 -0.1381
21501SOL    HW166177   3.792   0.798   4.346 -1.1060  0.7798  2.9503
21501SOL    HW266178   3.675   0.705   4.325  0.5755 -0.7881 -0.2210
21502SOL     OW66179   9.250   8.939   1.097  0.3383 -0.4291 -0.4776
21502SOL    HW166180   9.345   8.936   1.111  0.0751  0.9720  2.2763
21502SOL    HW266181   9.227   9.031   1.107 -1.3331 -0.7620 -1.0151
21503SOL     OW66182   5.073   1.659   1.680  0.1867  0.4804  0.6673
21503SOL    HW166183   5.103   1.684   1.593  0.5298 -1.0061  0.3339
21503SOL    HW266184   5.145   1.681   1.738 -0.9969  3.9880  1.0810
21504SOL     OW66185   1.636   6.892   6.179  0.1006  0.0949 -0.6306
21504SOL    HW166186   1.704   6.917   6.242 -0.9919  1.2872  0.1173
21504SOL    HW266187   1.574   6.965   6.181 -1.4162 -1.1451 -0.9832
21505SOL     OW66188   8.091   2.520   0.614 -0.2042 -0.2576 -0.3831
21505SOL    HW166189   8.013   2.546   0.564 -0.6249 -0.2426  0.2673
21505SOL    HW266190   8.148   2.479   0.549 -1.0508 -0.8903 -0.7557
21506SOL     OW66191   7.200   8.262   2.435  0.1328 -0.1132 -0.2892
21506SOL    HW166192   7.191   8.342   2.383 -0.8483  1.1436  1.6999
21506SOL    HW266193   7.276   8.277   2.491  1.9381 -1.9534 -2.0503
21507SOL     OW66194   7.984   5.870   4.510 -0.2859 -0.5663  0.3476
21507SOL    HW166195   7.949   5.959   4.516  2.9389  0.8327  0.5708
21507SOL    HW266196   7.966   5.832   4.596 -1.2230  0.0424  0.4378
21508SOL     OW66197   3.511   9.662   8.697  0.5644 -0.3197 -0.3405
21508SOL    HW166198   3.448   9.592   8.680 -0.7947  0.8973 -0.5913
21508SOL    HW266199   3.594   9.617   8.714  0.1457 -1.9098 -2.1886
21509SOL     OW66200   6.394   1.581   6.705  0.3480 -0.0609  0.2927
21509SOL    HW166201   6.466   1.638   6.679  0.0182  0.5492  0.7023
21509SOL    HW266202   6.334   1.583   6.630  1.3563 -1.6277 -0.6171
21510SOL     OW66203   0.084   9.325   4.156  0.8306 -0.2723  0.0324
21510SOL    HW166204   0.018   9.256   4.165  0.7454 -0.3811 -1.2443
21510SOL    HW266205   0.163   9.287   4.193  0.9926 -1.3929 -1.3754
21511SOL     OW66206   3.605   5.624   3.409  0.2561 -0.4134  0.2010
21511SOL    HW166207   3.681   5.569   3.425 -0.2257 -1.5953 -1.3161
21511SOL    HW266208   3.628   5.676   3.332  0.1955  0.5634  0.8199
21512SOL     OW66209   5.687   8.730   8.774 -0.7486 -0.7774 -0.4623
21512SOL    HW166210   5.679   8.664   8.843 -0.8942 -2.4118 -1.9746
21512SOL    HW266211   5.777   8.762   8.782 -0.7793 -0.8948  0.4963
21513SOL     OW66212   7.626   0.225   9.200  0.7898  0.6588  0.0820
21513SOL    HW166213   7.599   0.137   9.226 -1.0420  0.4209 -2.2737
21513SOL    HW266214   7.658   0.265   9.280 -1.7782 -0.9126  2.0474
21514SOL     OW66215   0.240   6.964   1.316 -0.1143 -0.4522 -0.4435
21514SOL    HW166216   0.239   6.893   1.251 -0.2862 -0.5796 -0.3022
21514SOL    HW266217   0.172   7.024   1.286 -0.0830 -0.4306 -0.4709
21515SOL     OW66218   3.503   5.337   5.172  0.1666 -0.2101 -0.4684
21515SOL    HW166219   3.494   5.243   5.189  0.0359 -0.1455 -0.1826
21515SOL    HW266220   3.430   5.377   5.218  1.4280  0.2396  1.2459
21516SOL     OW66221   6.456   4.420   4.649  0.0126  0.7123  0.3423
21516SOL    HW166222   6.522   4.362   4.688 -0.3902  0.6520  0.9523
21516SOL    HW266223   6.421   4.369   4.576 -0.7948 -0.1081  1.2604
21517SOL     OW66224   2.334   4.073   0.283  0.1645  0.6153  0.0160
21517SOL    HW166225   2.388   4.152   0.279  0.5518  0.3236 -0.8612
21517SOL    HW266226   2.309   4.057   0.192 -0.7824  0.3191  0.3182
21518SOL     OW66227   2.743   6.378   8.827  0.0639 -0.3759 -0.1311
21518SOL    HW166228   2.835   6.406   8.825  0.1683 -0.7287 -1.0775
21518SOL    HW266229   2.694   6.453   8.794 -0.1115  0.1872  1.3557
21519SOL     OW66230   7.783   4.036   2.133 -0.3229 -0.1520  0.4868
21519SOL    HW166231   7.809   3.950   2.102  0.9454 -0.1476  1.4736
21519SOL    HW266232   7.688   4.037   2.123 -0.3879 -1.7586  0.6654
21520SOL     OW66233   7.355   2.717   4.967  0.1948  0.2764 -0.6014
21520SOL    HW166234   7.423   2.656   4.997 -0.5276 -0.3308 -0.1522
21520SOL    HW266235   7.353   2.785   5.035 -0.2825 -0.2036 -0.1254
21521SOL     OW66236   6.834   1.355   1.084  0.3333 -0.6475 -0.4355
21521SOL    HW166237   6.851   1.449   1.070  1.6175 -0.9319 -0.9189
21521SOL    HW266238   6.920   1.314   1.079 -0.0368 -1.7059  1.2143
21522SOL     OW66239   0.092   7.794   5.591  0.1672 -0.4211 -0.7454
21522SOL    HW166240   0.145   7.871   5.571  0.5431 -0.4282  0.1485
21522SOL    HW266241   0.129   7.724   5.537  1.1829 -0.4592 -0.0215
21523SOL     OW66242   4.416   3.779   0.367 -0.6617 -0.6181 -0.2528
21523SOL    HW166243   4.474   3.770   0.443 -0.8031  1.6869  0.1826
21523SOL    HW266244   4.434   3.701   0.314  2.0924 -0.4827  0.3544
21524SOL     OW66245   4.527   3.787   1.383  0.6906 -0.1056 -0.2799
21524SOL    HW166246   4.451   3.818   1.432  0.6068 -1.0978  0.2388
21524SOL    HW266247   4.520   3.831   1.298  0.1222  0.6206  0.1291
21525SOL     OW66248   4.011   5.650   2.849 -0.1562  0.6625 -0.4743
21525SOL    HW166249   4.058   5.596   2.785  0.8217 -1.0302  1.5233
21525SOL    HW266250   3.932   5.599   2.870  1.1299 -0.5466  1.9698
21526SOL     OW66251   7.187   3.656   8.981  0.5192 -0.2037  0.7402
21526SOL    HW166252   7.192   3.613   9.067 -0.9568 -1.1770  0.3819
21526SOL    HW266253   7.170   3.748   9.000  2.9517  0.1509  1.5160
21527SOL     OW66254   4.999   8.932   3.214 -0.0817  0.5771 -0.7777
21527SOL    HW166255   5.094   8.931   3.203  0.1114 -2.6268  0.1446
21527SOL    HW266256   4.985   8.924   3.308 -1.2330  0.2385 -0.9533
21528SOL     OW66257   5.106   8.490   3.200  0.0646  1.0231 -0.2800
21528SOL    HW166258   5.198   8.464   3.213 -0.5880 -1.6910 -0.6075
21528SOL    HW266259   5.086   8.462   3.110 -0.7672  2.7514 -0.6741
21529SOL     OW66260   7.548   2.818   7.777 -0.2174 -0.4218 -0.4342
21529SOL    HW166261   7.471   2.837   7.832  0.3195  0.0649  0.1653
21529SOL    HW266262   7.590   2.744   7.820 -0.2164 -0.5316 -0.6237
21530SOL     OW66263   1.204   7.666   7.351 -0.1235  0.4671 -0.0877
21530SOL    HW166264   1.296   7.656   7.377 -0.0955 -1.3952 -0.7874
21530SOL    HW266265   1.206   7.665   7.256 -0.7311  2.2882 -0.1688
21531SOL     OW66266   7.562   0.770   9.278 -0.4678 -0.4658  0.2266
21531SOL    HW166267   7.533   0.807   9.362  1.7124 -0.9549  1.2565
21531SOL    HW266268   7.494   0.706   9.256 -1.4292  0.1473  1.2651
21532SOL     OW66269   4.508   6.497   6.602 -0.2100 -0.5813 -0.2081
21532SOL    HW166270   4.447   6.536   6.665 -0.0563 -0.5210 -0.0951
21532SOL    HW266271   4.528   6.411   6.639  1.4547  0.2217  0.8956
21533SOL     OW66272   0.196   7.040   4.575 -0.4461 -0.1693 -0.0697
21533SOL    HW166273   0.292   7.042   4.581 -0.2639  1.7812 -2.3254
21533SOL    HW266274   0.177   6.966   4.518 -0.2475 -0.1851 -0.1149
21534SOL     OW66275   1.230   8.263   0.849 -0.0905 -0.2089 -0.2989
21534SOL    HW166276   1.151   8.214   0.826  0.7300 -1.0943 -1.4043
21534SOL    HW266277   1.259   8.224   0.931  0.0420 -0.9707 -0.6965
21535SOL     OW66278   8.441   9.185   6.915 -0.0163 -0.0375  0.2341
21535SOL    HW166279   8.410   9.276   6.911 -0.8853 -0.3422 -0.1437
21535SOL    HW266280   8.454   9.161   6.824 -1.1414 -0.7308  0.2337
21536SOL     OW66281   5.795   4.550   1.911  0.3442 -0.4406  0.4055
21536SOL    HW166282   5.793   4.641   1.881 -0.2056 -0.7041 -0.3709
21536SOL    HW266283   5.703   4.525   1.922  0.4277 -1.3600 -0.8224
21537SOL     OW66284   2.232   5.343   7.787 -0.5210  0.2499  0.0565
21537SOL    HW166285   2.326   5.331   7.774 -0.5079 -1.7354  1.4116
21537SOL    HW266286   2.218   5.318   7.878 -2.3882  0.3699 -0.1721
21538SOL     OW66287   3.297   4.093   7.435 -0.9261  0.2598 -0.0283
21538SOL    HW166288   3.262   4.163   7.381  0.1146  0.3930 -0.5659
21538SOL    HW266289   3.361   4.137   7.492  0.3688 -0.3417 -0.9583
21539SOL     OW66290   6.526   6.255   9.601 -0.3301 -0.1414 -0.0718
21539SOL    HW166291   6.471   6.232   9.676  0.6715  1.1651  1.1213
21539SOL    HW266292   6.536   6.350   9.608  0.4210 -0.1014 -1.4420
21540SOL     OW66293   4.433   2.765   8.999  0.0488 -0.0019  0.1363
21540SOL    HW166294   4.410   2.829   9.067 -1.6991 -0.1435 -0.2671
21540SOL    HW266295   4.507   2.804   8.953 -1.6442  2.3363 -0.8380
21541SOL     OW66296   0.779   0.131   1.854  0.4031  0.0582  0.0109
21541SOL    HW166297   0.752   0.039   1.848 -0.1878  0.1730  0.7983
21541SOL    HW266298   0.699   0.178   1.875  0.9537  0.5746  1.0314
21542SOL     OW66299   1.423   3.983   4.619  0.0555  0.4033  0.4344
21542SOL    HW166300   1.489   4.045   4.650  0.6466  0.8281 -1.5075
21542SOL    HW266301   1.472   3.902   4.602  0.0423  0.6120 -0.6747
21543SOL     OW66302   7.766   1.846   6.017 -0.3644  0.4700  0.2314
21543SOL    HW166303   7.780   1.928   6.065 -0.2762  0.8265 -0.3936
21543SOL    HW266304   7.822   1.853   5.940 -0.9804  0.1852 -0.2566
21544SOL     OW66305   1.066   3.201   4.965  0.2466 -0.2166 -0.2304
21544SOL    HW166306   1.108   3.207   4.879  0.5647  0.3731 -0.0357
21544SOL    HW266307   1.076   3.109   4.989 -0.8083 -0.6481 -1.2940
21545SOL     OW66308   5.243   5.697   6.582  0.2310 -0.1490 -0.3387
21545SOL    HW166309   5.189   5.640   6.527  0.4147 -0.7432  0.0940
21545SOL    HW266310   5.308   5.639   6.621  0.2684  0.3101  0.3031
21546SOL     OW66311   9.036   1.153   3.111  0.1382  0.5620 -0.4607
21546SOL    HW166312   8.956   1.202   3.131 -0.2526 -0.5228  0.7364
21546SOL    HW266313   9.089   1.160   3.190  0.4258 -0.2525 -0.5679
21547SOL     OW66314   3.469   9.086   3.140  0.2702 -0.1267 -0.0093
21547SOL    HW166315   3.405   9.039   3.086  0.5719 -0.2876 -0.2338
21547SOL    HW266316   3.458   9.050   3.228  0.8367 -0.9778 -0.2760
21548SOL     OW66317   1.239   6.244   5.405  0.2613 -0.4434  0.7067
21548SOL    HW166318   1.289   6.180   5.356 -0.0681 -1.0939  1.2064
21548SOL    HW266319   1.198   6.194   5.476  2.7333  0.8257  3.2218
21549SOL     OW66320   1.788   6.585   9.245  0.1325 -0.0749  0.1499
21549SOL    HW166321   1.833   6.538   9.176  1.0562  1.1007 -0.0722
21549SOL    HW266322   1.721   6.637   9.200 -0.8478 -1.0660  0.3898
21550SOL     OW66323   4.976   3.404   7.236  0.3451 -0.2868 -0.7972
21550SOL    HW166324   5.001   3.361   7.154  1.0667  1.0044 -1.2846
21550SOL    HW266325   5.044   3.377   7.298  0.8911  0.2632 -1.1447
21551SOL     OW66326   4.717   4.180   4.854  0.6660 -0.1569 -0.7476
21551SOL    HW166327   4.709   4.092   4.891 -0.1103  0.2010 -0.0436
21551SOL    HW266328   4.639   4.192   4.801  0.2822  0.4564 -0.0681
21552SOL     OW66329   9.364   7.156   1.048  0.0203  0.0389  0.0935
21552SOL    HW166330   9.404   7.106   1.119  1.7862  0.1364 -0.7816
21552SOL    HW266331   9.322   7.090   0.993 -2.4325  0.0540  1.7869
21553SOL     OW66332   9.534   5.266   3.277 -0.5372  0.1439 -0.3151
21553SOL    HW166333   9.574   5.225   3.353 -0.4518 -0.5651 -0.7313
21553SOL    HW266334   9.599   5.329   3.246 -0.2294 -0.1595 -0.2927
21554SOL     OW66335   0.883   3.850   9.561 -0.2355 -0.4695 -0.5078
21554SOL    HW166336   0.856   3.928   9.610 -1.1407 -0.5176 -0.9026
21554SOL    HW266337   0.975   3.865   9.540 -0.1938  0.1399  0.0811
21555SOL     OW66338   1.017   5.133   6.347 -0.0645 -0.0298 -0.2797
21555SOL    HW166339   0.963   5.068   6.394  0.4546 -2.1312 -2.3849
21555SOL    HW266340   1.006   5.110   6.255  2.5457  1.0046 -0.9192
21556SOL     OW66341   2.547   0.183   1.924 -0.0405  0.0814  0.4303
21556SOL    HW166342   2.565   0.163   1.832  2.1140  2.3847  0.2361
21556SOL    HW266343   2.550   0.278   1.929  0.0907  0.0125  2.9293
21557SOL     OW66344   4.363   0.965   2.330 -0.2174 -0.1912  0.5667
21557SOL    HW166345   4.420   1.030   2.289  0.7376 -0.9190  0.7033
21557SOL    HW266346   4.302   0.939   2.260  0.1590 -0.0141  0.1698
21558SOL     OW66347   5.573   2.037   0.626  0.0555  0.1009 -0.1800
21558SOL    HW166348   5.519   2.103   0.582  2.1589  1.0828 -1.5199
21558SOL    HW266349   5.562   1.958   0.573  2.0862  1.1074 -2.3403
21559SOL     OW66350   8.648   0.402   5.482  0.1572  0.1112 -0.0400
21559SOL    HW166351   8.730   0.430   5.440  0.7337  1.3181  1.7478
21559SOL    HW266352   8.673   0.328   5.537 -0.1504 -0.1120 -0.1988
21560SOL     OW66353   8.507   7.822   0.922 -0.7984  0.0322  0.0227
21560SOL    HW166354   8.558   7.826   1.002 -2.5377 -0.8678  1.2412
21560SOL    HW266355   8.429   7.772   0.946 -0.3813 -2.2277 -2.7699
21561SOL     OW66356   5.103   8.533   8.694  0.1540 -0.4769  0.3597
21561SOL    HW166357   5.113   8.503   8.784  1.1207  1.3581  0.9169
21561SOL    HW266358   5.174   8.490   8.646  1.3164  0.5515  1.0739
21562SOL     OW66359   4.364   3.376   5.639  0.5571 -0.1258 -0.1908
21562SOL    HW166360   4.454   3.396   5.662  0.9288  1.0402 -2.4175
21562SOL    HW266361   4.367   3.287   5.602  1.2891  0.7762 -2.4641
21563SOL     OW66362   5.903   0.211   8.140  0.2505  0.4767  0.3749
21563SOL    HW166363   5.820   0.183   8.179 -0.5545  0.8655 -0.9623
21563SOL    HW266364   5.903   0.306   8.148 -0.6676  0.7266 -1.8275
21564SOL     OW66365   9.070   9.085   3.992  0.2456 -0.2062 -0.2618
21564SOL    HW166366   9.012   9.151   3.955  1.1660  0.1639 -1.1081
21564SOL    HW266367   9.023   9.002   3.981 -1.4896  0.3864  1.9813
21565SOL     OW66368   2.197   8.304   0.884 -0.6104  0.0569  0.0411
21565SOL    HW166369   2.168   8.341   0.968  0.3001  0.4895  0.1761
21565SOL    HW266370   2.193   8.209   0.897 -0.0605  0.1229  0.7252
21566SOL     OW66371   1.813   7.241   5.738 -0.2401 -1.0197  0.0744
21566SOL    HW166372   1.896   7.248   5.690 -1.5970 -1.7602 -2.6098
21566SOL    HW266373   1.780   7.153   5.716 -3.4839  0.5706 -2.2124
21567SOL     OW66374   2.404   8.218   0.205 -0.0771  0.0030 -0.7047
21567SOL    HW166375   2.362   8.301   0.229 -0.5625 -0.4281 -0.0282
21567SOL    HW266376   2.332   8.160   0.181  0.1909 -0.4965 -0.3232
21568SOL     OW66377   2.349   2.969   1.940 -0.4743 -0.3119  0.2479
21568SOL    HW166378   2.275   2.910   1.922 -0.0292 -0.7873 -0.0338
21568SOL    HW266379   2.370   2.952   2.032 -0.2370 -0.7219  0.1204
21569SOL     OW66380   5.178   3.426   4.535  0.5631  0.3621 -0.0138
21569SOL    HW166381   5.175   3.411   4.440  0.2102  0.2851  0.0060
21569SOL    HW266382   5.229   3.353   4.569 -1.3626 -1.0101  0.1132
21570SOL     OW66383   4.321   5.894   1.512  0.3771  0.0624  0.0224
21570SOL    HW166384   4.388   5.961   1.502  1.5583 -1.2928 -2.1094
21570SOL    HW266385   4.250   5.922   1.455  0.8472 -0.4347 -0.8249
21571SOL     OW66386   8.619   5.906   6.460 -0.3061 -0.0330  0.0452
21571SOL    HW166387   8.524   5.903   6.452 -0.2132 -0.7866 -1.0742
21571SOL    HW266388   8.648   5.955   6.383  0.1878  0.7772  0.7295
21572SOL     OW66389   4.081   5.139   1.023 -0.5418 -0.2454 -0.4274
21572SOL    HW166390   4.103   5.156   1.114  0.7649 -1.5382 -0.4739
21572SOL    HW266391   4.127   5.207   0.974  0.2813 -0.6620 -0.2435
21573SOL     OW66392   5.708   5.846   0.483  0.2932  0.0591 -0.2820
21573SOL    HW166393   5.736   5.787   0.554  0.3003 -0.7952 -0.9682
21573SOL    HW266394   5.720   5.793   0.404 -0.0998  0.8610 -0.8786
21574SOL     OW66395   2.357   6.233   0.418 -0.7473  0.0975 -0.4733
21574SOL    HW166396   2.395   6.145   0.413  0.1258  0.4307 -0.0117
21574SOL    HW266397   2.286   6.225   0.482 -0.8159 -0.3157 -0.5986
21575SOL     OW66398   1.523   3.459   9.555 -0.7866 -0.2059 -0.8566
21575SOL    HW166399   1.461   3.480   9.625 -0.9723 -0.3494 -0.9800
21575SOL    HW266400   1.486   3.498   9.477 -0.1129  0.7628 -0.7070
21576SOL     OW66401   6.165   8.555   7.898 -0.5053  0.0190 -0.2269
21576SOL    HW166402   6.103   8.582   7.829 -1.2603  0.4771  0.6016
21576SOL    HW266403   6.251   8.580   7.864 -0.9205  0.7556 -0.7770
21577SOL     OW66404   4.257   6.833   8.087  0.1965 -0.0220 -0.3229
21577SOL    HW166405   4.225   6.855   7.999  2.4524 -0.8649 -1.4580
21577SOL    HW266406   4.274   6.917   8.129 -1.6171  0.4042 -0.3656
21578SOL     OW66407   5.803   4.470   0.851 -0.0244  0.2254  0.0656
21578SOL    HW166408   5.709   4.487   0.845 -0.1288  0.5886  1.9384
21578SOL    HW266409   5.839   4.549   0.891  0.4255 -1.3543  3.0879
21579SOL     OW66410   5.674   3.916   0.582  0.2135  0.1353  0.7101
21579SOL    HW166411   5.637   3.987   0.528  1.0628  0.1361  0.1092
21579SOL    HW266412   5.600   3.884   0.633 -0.1087  1.7703  1.3515
21580SOL     OW66413   0.276   3.399   6.740 -0.3190  0.5267  0.3173
21580SOL    HW166414   0.329   3.370   6.666 -0.1757  0.4137  0.4634
21580SOL    HW266415   0.186   3.381   6.713 -0.1834 -1.4365  0.9577
21581SOL     OW66416   6.605   3.018   6.825 -0.0837 -0.0190  0.7649
21581SOL    HW166417   6.686   3.047   6.866 -0.5297  1.7113  0.5167
21581SOL    HW266418   6.633   2.976   6.743  0.6244 -0.7988  1.3890
21582SOL     OW66419   7.949   6.479   8.133 -0.1492 -0.0601  0.3185
21582SOL    HW166420   7.939   6.483   8.038 -0.6177  0.2894  0.3811
21582SOL    HW266421   8.030   6.526   8.151 -0.6687  0.9067  0.1891
21583SOL     OW66422   7.765   7.086   2.826  0.0208 -0.0201 -0.4791
21583SOL    HW166423   7.845   7.035   2.826 -2.2200 -3.9329  1.1406
21583SOL    HW266424   7.729   7.074   2.738  0.7471  1.0419 -0.9371
21584SOL     OW66425   8.377   6.248   7.994 -0.0267 -0.2297 -0.2577
21584SOL    HW166426   8.447   6.309   7.968 -0.6146  0.7711  0.4250
21584SOL    HW266427   8.303   6.272   7.937  0.4055 -1.8295 -1.5499
21585SOL     OW66428   0.608   2.184   3.275  0.2171  0.2538 -0.1784
21585SOL    HW166429   0.628   2.101   3.317 -1.1001  1.0710  2.2249
21585SOL    HW266430   0.691   2.233   3.278  0.7973 -0.6372 -0.9339
21586SOL     OW66431   4.719   5.403   5.041  0.0415 -0.1868  0.3260
21586SOL    HW166432   4.795   5.370   5.090 -1.4740 -1.5833  1.8539
21586SOL    HW266433   4.644   5.383   5.097 -1.4242  1.7755 -0.8306
21587SOL     OW66434   7.523   4.869   5.445 -0.4883  0.5340  0.0852
21587SOL    HW166435   7.428   4.880   5.444 -0.6692 -0.8936 -0.4032
21587SOL    HW266436   7.556   4.953   5.477 -1.8535  1.4086 -0.6661
21588SOL     OW66437   6.478   1.284   1.276  0.0082 -0.0743 -0.6255
21588SOL    HW166438   6.465   1.192   1.255 -0.4051 -0.5676  1.5146
21588SOL    HW266439   6.392   1.324   1.264 -0.4243 -0.5231  0.7808
21589SOL     OW66440   6.768   5.447   4.250  0.1231 -0.5373  0.0415
21589SOL    HW166441   6.803   5.387   4.184  0.0704 -1.0003  0.4242
21589SOL    HW266442   6.750   5.391   4.326  2.1223  0.2783  1.1987
21590SOL     OW66443   0.597   9.539   3.208  0.3661  0.2732  0.0383
21590SOL    HW166444   0.611   9.586   3.291 -1.3643  0.0822  0.4836
21590SOL    HW266445   0.589   9.448   3.234 -0.4161  0.2404 -0.3163
21591SOL     OW66446   2.736   6.712   1.719 -0.4058 -0.1744  0.0521
21591SOL    HW166447   2.814   6.742   1.765 -0.6759  0.8904 -0.1528
21591SOL    HW266448   2.692   6.793   1.692 -0.7284 -0.7645 -1.2624
21592SOL     OW66449   2.786   3.602   2.165 -0.5310 -0.1781  0.0590
21592SOL    HW166450   2.840   3.524   2.155  0.6858  0.8293 -2.0015
21592SOL    HW266451   2.719   3.594   2.097  0.0194  0.8425 -0.6379
21593SOL     OW66452   4.082   6.612   6.081  0.6432  0.1389 -0.9515
21593SOL    HW166453   4.135   6.599   6.002  0.5320  0.1458 -1.0280
21593SOL    HW266454   3.993   6.590   6.054  0.5944  0.2042 -0.8447
21594SOL     OW66455   0.260   6.149   4.242 -0.3092  0.7538 -0.0079
21594SOL    HW166456   0.175   6.135   4.283  0.3671  0.5576  1.3938
21594SOL    HW266457   0.249   6.121   4.152 -1.2927 -0.8117  0.5675
21595SOL     OW66458   8.260   5.745   6.866  0.3965 -0.3231  0.2761
21595SOL    HW166459   8.337   5.734   6.811  0.5528  0.2515  0.3767
21595SOL    HW266460   8.270   5.679   6.935  0.0170 -1.2992 -0.5762
21596SOL     OW66461   2.155   1.976   5.537 -0.2424  0.2011  0.6398
21596SOL    HW166462   2.142   1.954   5.445 -1.9328 -1.2295  1.1672
21596SOL    HW266463   2.074   1.948   5.580  0.0409  1.8522  2.4060
21597SOL     OW66464   2.499   3.750   5.438  0.3236  0.6152  0.5369
21597SOL    HW166465   2.446   3.686   5.390  2.7209 -0.8134 -0.3723
21597SOL    HW266466   2.443   3.778   5.511 -1.4526 -1.1599 -0.0570
21598SOL     OW66467   6.964   2.973   5.647  0.0611  0.2402  0.6315
21598SOL    HW166468   6.893   2.922   5.687 -0.5052 -0.6850 -1.4056
21598SOL    HW266469   7.044   2.940   5.690 -0.3851 -1.6933  0.0902
21599SOL     OW66470   5.186   4.776   7.419 -0.3626 -0.0338  0.4603
21599SOL    HW166471   5.234   4.708   7.467 -1.2317 -0.9982  0.0208
21599SOL    HW266472   5.245   4.801   7.348  0.4689  0.5816  1.3501
21600SOL     OW66473   8.475   7.456   6.500 -0.4886  0.2868 -0.2564
21600SOL    HW166474   8.420   7.435   6.425 -0.6571  2.4279 -0.8160
21600SOL    HW266475   8.412   7.475   6.571 -0.4624  1.1366 -0.4404
21601SOL     OW66476   1.972   9.601   0.479  0.4123 -0.4496 -0.1840
21601SOL    HW166477   2.019   9.518   0.474  0.2382 -0.4934 -1.5270
21601SOL    HW266478   1.886   9.578   0.515 -0.2171 -1.1555 -1.9971
21602SOL     OW66479   0.433   6.466   3.273 -0.3270 -0.8081 -0.5176
21602SOL    HW166480   0.468   6.414   3.346  0.5629  0.3337 -0.0880
21602SOL    HW266481   0.399   6.402   3.212 -0.0383 -1.8528  0.3854
21603SOL     OW66482   5.161   9.558   3.744 -0.3794 -0.3177  0.1486
21603SOL    HW166483   5.161   9.466   3.771  0.3284 -0.3943 -0.1072
21603SOL    HW266484   5.233   9.597   3.793 -0.8323  0.1579  0.4374
21604SOL     OW66485   5.346   3.748   4.261 -0.2305 -0.2228  0.4122
21604SOL    HW166486   5.403   3.711   4.192  0.2393 -1.0666  1.2236
21604SOL    HW266487   5.377   3.838   4.271  1.2611 -0.7664  1.0916
21605SOL     OW66488   5.785   7.896   7.685  0.1507 -0.1128 -0.0777
21605SOL    HW166489   5.755   7.986   7.673  0.2885 -0.0062  0.3471
21605SOL    HW266490   5.811   7.892   7.777 -2.0645 -1.2120  0.5913
21606SOL     OW66491   2.067   1.095   0.741  0.1014  0.1657  0.1547
21606SOL    HW166492   1.998   1.040   0.705  0.5374 -1.0281  1.0842
21606SOL    HW266493   2.108   1.042   0.810  1.4740  1.1111  0.1263
21607SOL     OW66494   0.714   1.226   5.304  0.4067  0.6095 -0.5009
21607SOL    HW166495   0.662   1.297   5.267 -0.3644 -0.0864 -0.7772
21607SOL    HW266496   0.652   1.154   5.316 -0.0218  1.4672  4.4449
21608SOL     OW66497   7.149   6.092   1.411  0.1809  0.4519  0.6806
21608SOL    HW166498   7.119   6.164   1.466 -0.2277  0.1251  0.8911
21608SOL    HW266499   7.217   6.048   1.463  1.8562  1.8315 -0.2186
21609SOL     OW66500   3.194   8.652   0.047  0.3969  1.0451  0.0442
21609SOL    HW166501   3.226   8.741   0.031  0.7671  1.4063  2.3308
21609SOL    HW266502   3.267   8.595   0.021  0.3404  1.4284 -0.9819
21610SOL     OW66503   6.945   8.046   0.630 -0.2675 -0.2931  0.1816
21610SOL    HW166504   6.860   8.087   0.648 -0.2937  0.0533 -0.6695
21610SOL    HW266505   6.989   8.045   0.715 -0.1587  1.7638  0.2127
21611SOL     OW66506   7.217   0.478   5.773 -0.1940 -0.2724  0.5120
21611SOL    HW166507   7.242   0.560   5.730 -0.4455 -1.2537 -1.6504
21611SOL    HW266508   7.279   0.414   5.740 -0.3489 -1.0802  1.7332
21612SOL     OW66509   3.902   3.712   7.328  0.0618  0.0342 -0.0012
21612SOL    HW166510   3.843   3.655   7.377 -0.4753  0.3820 -0.2350
21612SOL    HW266511   3.984   3.662   7.323  0.2514  0.1303  1.5315
21613SOL     OW66512   4.540   1.849   3.591 -0.1677 -0.7782 -0.2831
21613SOL    HW166513   4.634   1.862   3.601 -0.2936  0.5847 -0.6959
21613SOL    HW266514   4.523   1.870   3.499 -0.8170 -1.5159 -0.3476
21614SOL     OW66515   8.797   8.745   2.793 -0.6275 -0.1179  0.1619
21614SOL    HW166516   8.795   8.802   2.717  1.0566  0.1925  0.3143
21614SOL    HW266517   8.722   8.773   2.846 -0.7077  0.9430 -0.4860
21615SOL     OW66518   0.643   3.117   3.405  0.0214 -0.1355  0.2405
21615SOL    HW166519   0.627   3.211   3.414 -0.5331 -0.0491 -1.3507
21615SOL    HW266520   0.613   3.095   3.317 -1.0449 -2.0597  0.9938
21616SOL     OW66521   3.587   9.258   5.274 -0.0043 -0.3490  0.2773
21616SOL    HW166522   3.519   9.291   5.215 -0.1137 -0.0478  0.5672
21616SOL    HW266523   3.617   9.177   5.233  0.8835  0.5352 -0.9313
21617SOL     OW66524   8.627   5.755   5.887 -0.2598  0.2129 -0.0315
21617SOL    HW166525   8.540   5.727   5.858  0.6387 -1.0733 -1.6991
21617SOL    HW266526   8.676   5.673   5.899  0.1474  0.7960  3.0383
21618SOL     OW66527   7.104   3.223   6.400 -0.4807  0.1436  0.0542
21618SOL    HW166528   7.013   3.202   6.420 -0.3963  0.2532  0.5600
21618SOL    HW266529   7.105   3.319   6.389 -0.6488  0.0328 -1.1432
21619SOL     OW66530   5.316   1.435   2.757 -0.3092  0.2203  0.0228
21619SOL    HW166531   5.324   1.527   2.731  0.5862  0.2136  0.2339
21619SOL    HW266532   5.396   1.394   2.725  0.1492 -0.0935  1.4984
21620SOL     OW66533   6.379   1.331   7.048  0.2369  0.6385  0.4529
21620SOL    HW166534   6.318   1.378   6.992 -1.4728 -1.6617  0.2415
21620SOL    HW266535   6.463   1.337   7.003 -0.7949  0.0554 -1.6975
21621SOL     OW66536   7.308   2.909   5.163  0.4491 -0.1280 -0.2883
21621SOL    HW166537   7.236   2.909   5.099  1.1855  1.3118 -1.1796
21621SOL    HW266538   7.268   2.941   5.244 -0.9805 -3.8509  0.6887
21622SOL     OW66539   1.602   6.667   3.622  0.1393 -0.2037 -0.2442
21622SOL    HW166540   1.562   6.585   3.593 -1.2355 -0.1964  1.4777
21622SOL    HW266541   1.593   6.726   3.547 -0.7109 -1.0133 -0.7954
21623SOL     OW66542   0.650   8.797   9.175 -0.1736 -0.1188  0.1613
21623SOL    HW166543   0.619   8.751   9.254 -0.8816  0.7815  0.4245
21623SOL    HW266544   0.665   8.727   9.111 -0.0689 -0.8202  0.9311
21624SOL     OW66545   4.418   0.756   5.163  1.0183 -0.6410  0.6282
21624SOL    HW166546   4.398   0.837   5.210  3.1698 -0.1902  0.8941
21624SOL    HW266547   4.405   0.687   5.229 -2.6904 -0.8373 -0.1124
21625SOL     OW66548   3.441   5.747   7.272  0.0647 -0.1519 -0.2241
21625SOL    HW166549   3.442   5.668   7.218  1.6799 -0.7496  0.6161
21625SOL    HW266550   3.514   5.736   7.332 -0.1434  1.6467  0.4251
21626SOL     OW66551   2.761   7.353   8.209  0.2896 -0.0134  0.4446
21626SOL    HW166552   2.692   7.406   8.249  0.6952  1.5734 -0.8362
21626SOL    HW266553   2.806   7.414   8.150  1.2117 -1.6503 -0.6029
21627SOL     OW66554   0.238   6.861   6.259  0.2873  1.0081 -0.0522
21627SOL    HW166555   0.199   6.856   6.347  0.3115 -2.2441 -0.1071
21627SOL    HW266556   0.276   6.949   6.255 -0.7882  1.7210  2.7023
21628SOL     OW66557   1.565   4.220   0.024 -0.0670  0.2882 -0.0258
21628SOL    HW166558   1.599   4.216  -0.065  0.0094 -1.1948  0.0385
21628SOL    HW266559   1.474   4.251   0.014 -0.4491 -0.9954 -0.7551
21629SOL     OW66560   0.044   5.840   0.305 -0.3226  0.4045  0.1861
21629SOL    HW166561   0.014   5.889   0.381  1.5912  3.4718 -0.8755
21629SOL    HW266562  -0.037   5.807   0.265 -1.4293 -0.4891  2.9326
21630SOL     OW66563   9.079   8.053   2.775 -0.4899 -0.5680  0.1903
21630SOL    HW166564   9.173   8.042   2.760 -0.4334 -0.3907  0.4237
21630SOL    HW266565   9.061   8.000   2.852 -0.3589  0.3619  0.8688
21631SOL     OW66566   7.267   6.369   2.006  0.0506 -0.0664  0.4271
21631SOL    HW166567   7.210   6.373   2.083 -0.5558 -3.9435  0.4084
21631SOL    HW266568   7.254   6.280   1.972  4.4330 -0.4375 -0.8917
21632SOL     OW66569   1.214   7.680   2.555 -0.1149  0.0303  0.4016
21632SOL    HW166570   1.152   7.622   2.599 -1.1257  0.4485 -0.4449
21632SOL    HW266571   1.243   7.631   2.478  0.5346 -0.1197  0.7343
21633SOL     OW66572   3.350   9.133   6.004  0.1140 -0.3903  0.4561
21633SOL    HW166573   3.285   9.131   6.074  1.5736  0.6265  1.9118
21633SOL    HW266574   3.339   9.220   5.964 -1.2126 -1.2331 -1.1468
21634SOL     OW66575   1.104   0.672   5.035 -0.3927  0.1682  0.4201
21634SOL    HW166576   1.110   0.689   5.129  0.8547 -0.0078  0.3874
21634SOL    HW266577   1.028   0.721   5.006 -0.5470  0.5511  1.4518
21635SOL     OW66578   3.884   5.481   3.402  0.1995 -0.2296  0.0904
21635SOL    HW166579   3.954   5.537   3.435  1.4494 -1.5287 -0.2509
21635SOL    HW266580   3.869   5.513   3.313 -1.5682  1.7708  1.0027
21636SOL     OW66581   5.770   4.208   7.891  0.1659  0.4390 -0.0265
21636SOL    HW166582   5.758   4.192   7.797  0.7616 -0.0159 -0.0275
21636SOL    HW266583   5.757   4.303   7.900 -2.5265  0.1719 -0.1402
21637SOL     OW66584   6.985   1.752   8.306  0.2776  0.0416 -0.6666
21637SOL    HW166585   6.950   1.832   8.346  2.5763  1.5282 -1.4187
21637SOL    HW266586   7.044   1.716   8.372  0.0338 -0.4814 -0.7289
21638SOL     OW66587   3.014   0.563   5.184 -0.1888 -0.5951 -0.0333
21638SOL    HW166588   3.078   0.592   5.119  0.3427 -0.7481  0.4115
21638SOL    HW266589   3.031   0.619   5.260 -2.3386  1.1907 -0.7682
21639SOL     OW66590   4.652   6.624   5.746  0.1264 -0.5882 -0.2915
21639SOL    HW166591   4.634   6.664   5.661 -0.8986  0.5798  0.4404
21639SOL    HW266592   4.738   6.659   5.771 -0.8478  1.4256  0.4356
21640SOL     OW66593   0.827   5.015   4.278  0.4396 -0.2713 -0.1443
21640SOL    HW166594   0.839   5.105   4.309 -0.0413 -0.3943  0.4241
21640SOL    HW266595   0.900   5.000   4.218 -0.7069  1.2483 -2.0483
21641SOL     OW66596   6.169   1.331   1.586  0.1724 -0.3357  0.0257
21641SOL    HW166597   6.149   1.411   1.634 -1.7144 -1.1007  0.6117
21641SOL    HW266598   6.110   1.332   1.511 -1.2470 -2.0373  1.0546
21642SOL     OW66599   1.027   5.054   4.092  0.0199  0.4183 -0.3335
21642SOL    HW166600   1.112   5.064   4.136 -0.4477  0.7040  0.5187
21642SOL    HW266601   1.038   5.100   4.009  1.8461 -2.4659 -1.8877
21643SOL     OW66602   4.971   7.756   4.860  0.1157 -0.5164  0.1247
21643SOL    HW166603   4.986   7.812   4.784  3.1439  0.5255  1.3122
21643SOL    HW266604   4.975   7.667   4.827  2.9209 -0.1348 -0.8538
21644SOL     OW66605   6.848   9.330   9.613 -0.0489 -0.0004  0.1730
21644SOL    HW166606   6.761   9.317   9.651  0.4629 -1.7410  0.8566
21644SOL    HW266607   6.843   9.415   9.568 -3.2960 -1.6998 -3.1692
21645SOL     OW66608   6.245   7.586   1.598  0.2624 -0.1901  0.0279
21645SOL    HW166609   6.188   7.543   1.662  0.1676  0.2203  0.2196
21645SOL    HW266610   6.280   7.662   1.644 -1.9578  1.7118 -1.2297
21646SOL     OW66611   9.095   1.101   4.246 -0.3272  0.0964  0.2223
21646SOL    HW166612   9.047   1.022   4.271  0.0302  0.2493  1.4257
21646SOL    HW266613   9.056   1.126   4.162 -2.4924  0.3215  1.2105
21647SOL     OW66614   7.776   2.900   7.420 -0.0725 -0.3093 -0.2145
21647SOL    HW166615   7.849   2.958   7.441 -1.0028  1.7759 -2.2289
21647SOL    HW266616   7.704   2.931   7.474  0.2702 -1.9170  1.2552
21648SOL     OW66617   7.359   9.372   7.394 -0.0822  0.4264  0.3378
21648SOL    HW166618   7.282   9.358   7.449 -0.1457 -0.5235  0.0332
21648SOL    HW266619   7.388   9.284   7.370  1.3314  0.7513  0.7433
21649SOL     OW66620   3.453   3.220   5.652  0.5406 -0.1093 -0.2944
21649SOL    HW166621   3.418   3.305   5.675 -2.3802 -0.8135 -1.6220
21649SOL    HW266622   3.469   3.226   5.558 -0.4651 -1.2015 -0.5644
21650SOL     OW66623   3.649   3.597   5.055  0.1712 -0.1821  0.4566
21650SOL    HW166624   3.566   3.595   5.007  1.5139  1.0765 -2.1341
21650SOL    HW266625   3.705   3.535   5.007  1.5256  1.0085  0.4520
21651SOL     OW66626   6.289   0.647   1.096  0.3033 -0.2460  0.1686
21651SOL    HW166627   6.227   0.686   1.157 -0.0645  0.5522 -0.6989
21651SOL    HW266628   6.375   0.671   1.131  0.1317 -0.7015  0.9447
21652SOL     OW66629   3.149   7.639   7.057  0.4721  0.3088 -0.2775
21652SOL    HW166630   3.199   7.666   7.135  1.5304 -0.7687 -0.5704
21652SOL    HW266631   3.208   7.654   6.984  0.3767 -0.9818 -0.6353
21653SOL     OW66632   6.183   2.550   8.022  0.6883  0.0954  0.0597
21653SOL    HW166633   6.225   2.554   7.937  2.2473 -2.3083  0.6239
21653SOL    HW266634   6.097   2.513   8.004  0.3489  1.1445 -0.6081
21654SOL     OW66635   5.880   4.549   6.958 -0.3350  0.7790 -0.2034
21654SOL    HW166636   5.929   4.531   7.038 -1.6147  1.9334  0.9055
21654SOL    HW266637   5.920   4.627   6.922  1.0764 -0.4637 -1.4610
21655SOL     OW66638   2.132   1.998   7.468 -0.0689  0.0565  1.0427
21655SOL    HW166639   2.224   1.977   7.486  0.0158 -1.1013 -0.5803
21655SOL    HW266640   2.101   1.926   7.413 -1.5497  1.1521  0.3796
21656SOL     OW66641   4.244   2.047   9.309  0.0585 -0.3081  0.0432
21656SOL    HW166642   4.238   2.093   9.393  0.7378  0.1812 -0.1729
21656SOL    HW266643   4.163   2.070   9.264  0.7173  1.3578 -0.3877
21657SOL     OW66644   8.464   7.472   5.027  0.3884 -0.0558 -0.4568
21657SOL    HW166645   8.388   7.513   4.985  2.0728  1.3058 -2.4277
21657SOL    HW266646   8.462   7.381   4.998  0.0039  0.2083 -1.2833
21658SOL     OW66647   9.578   9.023   7.634  0.1301 -0.1547 -0.2845
21658SOL    HW166648   9.566   9.096   7.695  0.0810 -0.3709 -0.0325
21658SOL    HW266649   9.663   9.040   7.593 -1.5804  2.2539 -3.2663
21659SOL     OW66650   1.970   6.525   7.669 -0.0740  0.3053  0.2117
21659SOL    HW166651   2.008   6.512   7.755 -0.4270 -1.0174  0.1930
21659SOL    HW266652   1.917   6.446   7.654 -1.8813  1.5479 -0.2358
21660SOL     OW66653   9.648   1.158   1.809 -0.0750 -0.7400  0.2616
21660SOL    HW166654   9.609   1.085   1.858 -0.7993 -0.6233 -0.1339
21660SOL    HW266655   9.682   1.117   1.729 -0.8922 -0.5744 -0.1741
21661SOL     OW66656   8.925   6.086   4.249 -0.0690  0.5611 -0.1194
21661SOL    HW166657   8.894   6.053   4.333  1.0532 -0.5453 -0.1083
21661SOL    HW266658   8.904   6.016   4.187  1.1207  0.3758 -0.3436
21662SOL     OW66659   8.795   8.473   0.382 -0.1986 -0.1256 -0.3203
21662SOL    HW166660   8.826   8.440   0.298  0.1302 -2.0522  0.5074
21662SOL    HW266661   8.700   8.479   0.372 -0.2026 -0.7528 -0.7009
21663SOL     OW66662   2.209   5.213   0.079  0.1248 -0.1377  0.4393
21663SOL    HW166663   2.119   5.206   0.048  0.6946  0.2341 -1.4340
21663SOL    HW266664   2.226   5.131   0.125 -1.0197 -0.4105  0.3899
21664SOL     OW66665   6.280   5.167   7.114  0.4872 -0.6103 -0.5404
21664SOL    HW166666   6.278   5.074   7.137  1.6779 -0.5444 -0.0501
21664SOL    HW266667   6.207   5.179   7.054  0.1481 -1.8033 -0.3946
21665SOL     OW66668   1.871   7.895   5.137  0.0189 -0.1577 -0.1361
21665SOL    HW166669   1.878   7.954   5.212  2.8066 -0.2868 -0.2158
21665SOL    HW266670   1.857   7.953   5.062 -0.9427  0.1006  0.2282
21666SOL     OW66671   5.573   5.838   9.074 -0.3235 -0.1513  0.1751
21666SOL    HW166672   5.578   5.823   9.168  0.2020 -0.3967  0.1135
21666SOL    HW266673   5.518   5.767   9.042 -1.9451  0.9155  0.5043
21667SOL     OW66674   1.573   2.212   7.446 -0.4423 -0.1092 -0.3704
21667SOL    HW166675   1.498   2.232   7.390 -1.1911  1.1050  0.9829
21667SOL    HW266676   1.544   2.237   7.534  1.4554  0.1088  0.2392
21668SOL     OW66677   2.065   7.191   3.907 -0.1660  0.0481  0.3757
21668SOL    HW166678   2.127   7.122   3.931 -0.3132 -0.6416 -1.0805
21668SOL    HW266679   2.110   7.241   3.839 -0.4977  0.7152  0.6345
21669SOL     OW66680   8.750   0.413   6.578  0.3001  0.3227 -0.3691
21669SOL    HW166681   8.736   0.501   6.613 -1.3975  0.0929 -0.3649
21669SOL    HW266682   8.720   0.354   6.648  0.4066 -0.2195 -0.7713
21670SOL     OW66683   7.739   5.208   4.935  0.1984  0.0783 -0.2893
21670SOL    HW166684   7.772   5.276   4.877 -0.8592 -0.0425 -1.0727
21670SOL    HW266685   7.692   5.256   5.004 -0.8629  0.1686 -1.0407
21671SOL     OW66686   1.961   9.122   2.654  0.2120 -0.0673  0.4095
21671SOL    HW166687   1.981   9.095   2.564  1.3416  0.0081  0.6299
21671SOL    HW266688   1.898   9.057   2.685  0.9276 -0.9478  0.0560
21672SOL     OW66689   5.167   3.791   7.242 -0.0819  0.9157  0.1091
21672SOL    HW166690   5.237   3.835   7.290  0.3860 -0.7093  0.9836
21672SOL    HW266691   5.212   3.722   7.192 -0.9058  0.6965 -0.3446
21673SOL     OW66692   9.464   5.079   5.084  0.0059  0.1750  0.3556
21673SOL    HW166693   9.543   5.044   5.127 -0.0315 -0.5830 -0.1934
21673SOL    HW266694   9.417   5.124   5.155 -0.0774 -1.0964  1.1406
21674SOL     OW66695   7.049   6.360   4.456 -0.0642 -0.5049 -0.1944
21674SOL    HW166696   6.981   6.305   4.495 -0.6902  0.9686  0.8709
21674SOL    HW266697   7.100   6.392   4.531 -0.1516  0.9140 -0.7133
21675SOL     OW66698   0.939   9.081   8.302  0.2157  0.2218  0.1567
21675SOL    HW166699   0.883   9.159   8.303  0.2006  0.3852 -2.8305
21675SOL    HW266700   0.899   9.024   8.236  2.4673 -0.4566 -0.7292
21676SOL     OW66701   2.598   2.578   7.333 -0.0455 -0.1432  0.2569
21676SOL    HW166702   2.509   2.559   7.305 -0.2079  0.9009  0.0445
21676SOL    HW266703   2.651   2.567   7.253 -0.1664  0.4941  0.0896
21677SOL     OW66704   2.047   6.288   0.364  0.1187 -0.4127 -0.1981
21677SOL    HW166705   2.133   6.326   0.348  0.0107  0.7733  1.7364
21677SOL    HW266706   2.036   6.223   0.294  1.3180  1.4277 -2.2151
21678SOL     OW66707   1.554   5.772   8.974 -0.1892  0.3770 -0.5459
21678SOL    HW166708   1.496   5.716   8.922  0.3138 -0.0107 -0.6996
21678SOL    HW266709   1.551   5.734   9.062  0.8606 -0.4667 -0.8526
21679SOL     OW66710   3.288   1.420   3.082 -0.7615 -0.1461  0.3717
21679SOL    HW166711   3.371   1.409   3.128 -1.0527 -1.0442  0.7140
21679SOL    HW266712   3.286   1.348   3.018  0.1151  1.6669 -1.8441
21680SOL     OW66713   8.158   7.962   7.653 -0.1197  0.3813 -0.1572
21680SOL    HW166714   8.143   8.038   7.596 -0.7467  0.6506  0.3627
21680SOL    HW266715   8.120   7.889   7.605 -0.8513  0.6441  0.0103
21681SOL     OW66716   2.791   7.259   4.005  0.2939  0.3272 -0.4424
21681SOL    HW166717   2.764   7.193   4.069 -1.0368  0.7459 -0.5345
21681SOL    HW266718   2.875   7.291   4.037 -0.8174  1.2854  1.7143
21682SOL     OW66719   8.965   3.532   7.233  0.5648 -0.0932 -0.0883
21682SOL    HW166720   8.995   3.512   7.322 -0.9817 -0.0241  0.4918
21682SOL    HW266721   9.001   3.618   7.214 -1.5494  1.3275  1.7478
21683SOL     OW66722   2.325   7.646   7.686 -0.2170 -0.2494  0.1413
21683SOL    HW166723   2.345   7.553   7.685  3.3122  0.3359  0.8660
21683SOL    HW266724   2.327   7.670   7.779  1.6645  0.9322 -0.1501
21684SOL     OW66725   0.381   0.101   4.559 -0.5703  0.5157  0.4213
21684SOL    HW166726   0.430   0.020   4.547  0.5748  1.2673 -0.2156
21684SOL    HW266727   0.355   0.126   4.470 -2.3174  0.0194  0.7738
21685SOL     OW66728   0.961   2.317   2.922  0.0101 -0.5599  0.2239
21685SOL    HW166729   0.990   2.377   2.853 -0.1184  0.6862  1.2064
21685SOL    HW266730   0.878   2.354   2.952  1.0165  0.1462  2.4049
21686SOL     OW66731   7.061   8.263   4.807 -0.2510 -0.2793 -0.0165
21686SOL    HW166732   7.018   8.292   4.726  1.4790 -1.0760 -1.2622
21686SOL    HW266733   7.095   8.344   4.845 -0.6204  0.0402 -0.3469
21687SOL     OW66734   6.953   4.794   7.901 -0.7161  0.0361  0.3101
21687SOL    HW166735   7.026   4.817   7.844 -2.4072 -0.5209 -2.2654
21687SOL    HW266736   6.920   4.712   7.865 -2.1715 -0.0969  1.8408
21688SOL     OW66737   6.938   8.528   2.177  0.0314 -0.3745  0.4323
21688SOL    HW166738   7.026   8.540   2.212  0.6521 -0.5122 -1.0336
21688SOL    HW266739   6.918   8.610   2.132  0.5850 -1.3471 -1.6866
21689SOL     OW66740   8.804   4.032   6.089  0.5294 -0.3141  0.5686
21689SOL    HW166741   8.726   4.082   6.068  0.0478 -1.2708  0.0112
21689SOL    HW266742   8.867   4.097   6.120 -0.1458  0.5936  0.0702
21690SOL     OW66743   5.029   0.541   4.960  0.1019 -0.0914  0.2058
21690SOL    HW166744   4.980   0.597   4.900  0.2710 -0.8742 -0.6846
21690SOL    HW266745   5.120   0.554   4.935  0.2036 -0.1487  0.5418
21691SOL     OW66746   2.414   4.520   9.105 -0.0564 -0.4955 -0.0949
21691SOL    HW166747   2.470   4.596   9.087 -1.3435  0.3537 -0.6757
21691SOL    HW266748   2.415   4.470   9.023  1.4803 -1.6164  0.5563
21692SOL     OW66749   8.489   3.340   0.261  0.0683  0.0678  0.1479
21692SOL    HW166750   8.461   3.349   0.169 -0.3523 -0.7081  0.1944
21692SOL    HW266751   8.497   3.430   0.292 -1.2251  0.3432 -0.2311
21693SOL     OW66752   3.164   0.779   6.867  0.1927 -0.1263  0.1822
21693SOL    HW166753   3.107   0.843   6.826  0.5131  0.1219  0.1143
21693SOL    HW266754   3.120   0.755   6.949 -0.2443 -0.3116 -0.1087
21694SOL     OW66755   3.529   7.969   5.968  0.2708  0.5365 -0.1108
21694SOL    HW166756   3.566   7.903   5.909  2.9077  1.6866  0.1224
21694SOL    HW266757   3.532   7.928   6.054 -0.1629  0.1987 -0.2491
21695SOL     OW66758   3.978   3.148   0.227 -0.3055 -0.4810 -0.1900
21695SOL    HW166759   4.065   3.181   0.206 -0.5199  0.3093  0.1443
21695SOL    HW266760   3.994   3.063   0.269  0.4569  0.7447  2.1497
21696SOL     OW66761   0.704   2.633   2.180 -0.1822 -0.0822 -0.4714
21696SOL    HW166762   0.654   2.576   2.238 -1.5186  0.5270 -0.9945
21696SOL    HW266763   0.639   2.670   2.121  0.2220  3.5626  1.1082
21697SOL     OW66764   6.096   3.535   8.792 -0.5307 -0.3634 -0.4676
21697SOL    HW166765   6.118   3.625   8.771 -1.1433 -0.2945 -0.8329
21697SOL    HW266766   6.112   3.486   8.712  0.5817 -0.7333 -0.0401
21698SOL     OW66767   8.563   2.693   6.043 -0.1816 -0.6313 -0.4168
21698SOL    HW166768   8.627   2.667   5.978  1.1619  0.0055  0.6057
21698SOL    HW266769   8.486   2.640   6.023  0.8844 -1.9238 -1.2598
21699SOL     OW66770   8.079   1.240   4.427  0.4857  0.0392  0.3058
21699SOL    HW166771   7.993   1.280   4.437  0.7494  0.4769  0.8847
21699SOL    HW266772   8.139   1.313   4.410  0.7569 -0.2506 -0.0051
21700SOL     OW66773   0.269   6.154   1.084  0.2262  0.0444 -0.1792
21700SOL    HW166774   0.191   6.209   1.093  0.0230 -0.4854  1.7581
21700SOL    HW266775   0.312   6.158   1.170 -1.2158 -4.8064  1.1306
21701SOL     OW66776   0.661   6.628   6.752 -0.0339  0.7242  0.2343
21701SOL    HW166777   0.751   6.635   6.784  0.2974 -0.0890 -0.4638
21701SOL    HW266778   0.609   6.613   6.831  0.4161  1.4120  0.6679
21702SOL     OW66779   8.638   1.350   3.500  0.1942  0.1442 -0.4109
21702SOL    HW166780   8.598   1.437   3.496  1.0967  0.6811  1.2282
21702SOL    HW266781   8.732   1.367   3.500  0.4135 -0.9362 -1.4508
21703SOL     OW66782   7.359   3.382   3.598 -0.3406  0.1305  0.0909
21703SOL    HW166783   7.347   3.440   3.523 -0.0625  0.9496  0.6734
21703SOL    HW266784   7.430   3.323   3.572 -0.0439  0.6027 -0.1749
21704SOL     OW66785   8.425   8.010   1.603 -0.0902 -0.0759 -0.0039
21704SOL    HW166786   8.422   8.074   1.674  1.2522  1.4414 -1.2446
21704SOL    HW266787   8.378   8.052   1.531  0.1350 -0.8198 -0.5959
21705SOL     OW66788   4.027   0.393   0.172 -0.2416  0.0346  0.4297
21705SOL    HW166789   3.948   0.351   0.138  0.2459  0.4493 -1.3395
21705SOL    HW266790   4.084   0.403   0.095  0.4188  2.2201  1.1204
21706SOL     OW66791   3.014   8.285   1.057 -0.5257 -0.8058  0.3081
21706SOL    HW166792   2.984   8.334   0.980  3.3671  0.1204 -0.8196
21706SOL    HW266793   3.045   8.352   1.118 -2.3730 -1.5993  2.2539
21707SOL     OW66794   8.779   5.486   9.515 -0.1622 -0.2590 -0.1719
21707SOL    HW166795   8.690   5.470   9.548 -0.2282 -0.1737 -0.3067
21707SOL    HW266796   8.768   5.492   9.420  0.0739 -0.8294 -0.2381
21708SOL     OW66797   3.727   6.705   4.870 -0.3004  0.0400  0.2166
21708SOL    HW166798   3.799   6.768   4.880 -1.8107  1.6176  2.1213
21708SOL    HW266799   3.686   6.703   4.956 -1.5186 -2.1437 -0.3490
21709SOL     OW66800   6.459   4.938   8.957  0.1101 -0.1562 -0.2850
21709SOL    HW166801   6.409   4.935   9.039 -0.4060 -0.1616 -0.5983
21709SOL    HW266802   6.393   4.953   8.889  0.7255  1.8446 -0.5029
21710SOL     OW66803   7.433   5.184   5.297  0.3753  0.2458  0.0119
21710SOL    HW166804   7.449   5.098   5.337  0.4843 -0.2269 -1.0298
21710SOL    HW266805   7.366   5.224   5.354 -2.3521 -1.9580 -1.3780
21711SOL     OW66806   0.082   3.787   6.967 -0.1707 -0.5646 -0.1793
21711SOL    HW166807   0.150   3.781   6.900  1.0875  0.5296  0.9333
21711SOL    HW266808   0.003   3.813   6.920  0.3077 -1.2671 -1.4204
21712SOL     OW66809   1.315   2.466   1.483 -0.4945  0.5586 -0.0938
21712SOL    HW166810   1.380   2.536   1.476 -0.0941  0.2648  0.5954
21712SOL    HW266811   1.328   2.430   1.570 -0.8529 -0.2250 -0.3544
21713SOL     OW66812   5.616   1.778   7.674  0.7928  0.0787  0.0584
21713SOL    HW166813   5.564   1.834   7.733  1.1998  1.9629 -1.2628
21713SOL    HW266814   5.680   1.736   7.731  1.2843  1.9812  0.9907
21714SOL     OW66815   5.451   6.368   1.723  0.0176 -0.1988 -0.4525
21714SOL    HW166816   5.480   6.277   1.722  0.8105  0.0170  0.6831
21714SOL    HW266817   5.398   6.378   1.644 -0.9321 -1.9115 -0.0712
21715SOL     OW66818   0.136   1.551   3.130  0.2503  0.3481 -0.0701
21715SOL    HW166819   0.122   1.502   3.049  0.6679 -0.3675  0.2797
21715SOL    HW266820   0.111   1.490   3.199  1.1342  0.4898  0.3889
21716SOL     OW66821   1.644   0.043   4.663  0.3955 -0.0093 -0.4973
21716SOL    HW166822   1.635   0.135   4.688  1.8926 -0.0171  0.2039
21716SOL    HW266823   1.641   0.044   4.568  0.1302  0.7278 -0.4927
21717SOL     OW66824   9.063   0.296   6.612  0.1435 -0.4540  0.3584
21717SOL    HW166825   9.130   0.247   6.564 -1.1586  0.0314 -2.1151
21717SOL    HW266826   9.024   0.354   6.547  0.4776  2.7525  2.7818
21718SOL     OW66827   1.755   8.870   3.299 -0.3135  0.2382 -0.0546
21718SOL    HW166828   1.758   8.842   3.390 -2.3377  0.3888  0.0853
21718SOL    HW266829   1.675   8.922   3.292 -0.0001  0.5484 -1.8375
21719SOL     OW66830   9.306   9.217   9.473 -0.1993  0.0170  0.0368
21719SOL    HW166831   9.252   9.290   9.502  0.3178  0.2613  0.3869
21719SOL    HW266832   9.258   9.181   9.398 -2.6817 -1.9495  2.3451
21720SOL     OW66833   6.702   1.352   2.443 -0.5664 -0.3137  0.0007
21720SOL    HW166834   6.658   1.355   2.528 -2.3306  0.4625 -0.8870
21720SOL    HW266835   6.632   1.339   2.380  0.5562  0.3623 -1.4546
21721SOL     OW66836   1.872   6.618   9.522  0.2353 -0.1522  0.2554
21721SOL    HW166837   1.854   6.628   9.429  0.4492  1.4841  0.3506
21721SOL    HW266838   1.838   6.532   9.545 -0.9418 -0.0686 -1.0716
21722SOL     OW66839   4.371   7.632   2.586 -0.3266  0.2281 -0.2698
21722SOL    HW166840   4.309   7.694   2.548  0.5872  0.5986 -1.1837
21722SOL    HW266841   4.405   7.677   2.664 -0.1787  0.5993 -0.5447
21723SOL     OW66842   4.711   1.847   7.417 -0.6806  0.7384 -0.0423
21723SOL    HW166843   4.769   1.867   7.490  0.1568 -1.3766 -0.0823
21723SOL    HW266844   4.623   1.854   7.454 -0.2693 -0.4065  1.2299
21724SOL     OW66845   2.215   4.733   4.352 -0.0476 -0.1386  0.0719
21724SOL    HW166846   2.120   4.724   4.361 -0.0941  0.9597  0.9716
21724SOL    HW266847   2.232   4.716   4.259 -1.3364  1.1928 -0.4550
21725SOL     OW66848   3.198   1.126   2.224  0.5557  0.1394  0.0068
21725SOL    HW166849   3.235   1.046   2.259 -0.3792 -0.5891 -0.6264
21725SOL    HW266850   3.134   1.097   2.158  1.8681  1.4167 -1.9574
21726SOL     OW66851   8.076   6.611   6.439  0.0142  0.7147 -0.3408
21726SOL    HW166852   8.092   6.678   6.372  1.3016  1.4041  0.6095
21726SOL    HW266853   8.118   6.645   6.518 -1.3289 -0.1620  0.7962
21727SOL     OW66854   3.078   3.970   9.447 -0.5401  0.3147  0.0629
21727SOL    HW166855   2.996   3.935   9.480  0.2846 -0.6759  1.1650
21727SOL    HW266856   3.142   3.900   9.462  1.4582  2.5926  3.4687
21728SOL     OW66857   3.719   3.468   8.004 -0.3933  0.2261  0.0055
21728SOL    HW166858   3.647   3.415   8.037 -0.3773  0.5469  0.5640
21728SOL    HW266859   3.797   3.415   8.020 -0.3606  0.4730  0.7052
21729SOL     OW66860   9.574   8.345   1.280 -0.3976  0.2843  0.3483
21729SOL    HW166861   9.633   8.389   1.219 -0.6796 -1.5540 -1.3822
21729SOL    HW266862   9.486   8.363   1.246 -0.6246  0.1467  0.8508
21730SOL     OW66863   6.546   9.596   8.502  0.6152 -0.0841 -0.4662
21730SOL    HW166864   6.591   9.667   8.548 -0.9319 -0.5302  1.8924
21730SOL    HW266865   6.590   9.516   8.531  2.1828 -0.2088 -2.9134
21731SOL     OW66866   8.833   2.718   2.025  0.0841  0.1326  0.5941
21731SOL    HW166867   8.793   2.783   2.083 -1.2595 -0.2591  0.1445
21731SOL    HW266868   8.817   2.634   2.067  0.4868 -0.0344  0.4245
21732SOL     OW66869   3.113   2.982   6.209  0.1260  0.0556  0.4753
21732SOL    HW166870   3.105   2.893   6.241  0.5867 -0.8983 -1.8755
21732SOL    HW266871   3.199   2.985   6.167  0.1398  1.6398  0.5222
21733SOL     OW66872   0.736   2.074   2.983  0.5972  0.8196  0.2698
21733SOL    HW166873   0.806   2.088   3.046  1.2687  2.9841 -0.8586
21733SOL    HW266874   0.772   2.014   2.919  0.5889  0.1568  0.8654
21734SOL     OW66875   7.902   7.809   3.837  0.0357  0.1471  0.1877
21734SOL    HW166876   7.982   7.862   3.832  1.8033 -2.0607  2.0243
21734SOL    HW266877   7.912   7.745   3.767  1.7259 -2.2076  2.3728
21735SOL     OW66878   7.237   0.821   5.231 -0.5308  0.0561  0.0107
21735SOL    HW166879   7.319   0.776   5.252 -0.4096  0.8499  1.3233
21735SOL    HW266880   7.171   0.752   5.231 -0.0877 -0.3750  0.3355
21736SOL     OW66881   9.599   5.270   1.407  0.4079  0.0728  0.3033
21736SOL    HW166882   9.667   5.265   1.475 -0.4863 -1.4615  1.1427
21736SOL    HW266883   9.606   5.186   1.362 -0.3433  0.2762 -0.1928
21737SOL     OW66884   5.458   6.631   8.516  0.4104  0.7919  0.1308
21737SOL    HW166885   5.444   6.724   8.532 -0.5672  0.9241 -1.3267
21737SOL    HW266886   5.491   6.626   8.427  0.3174 -0.2747  0.1381
21738SOL     OW66887   7.822   6.556   5.962  0.5432  0.3124  0.5347
21738SOL    HW166888   7.817   6.651   5.963  0.0581  0.2922  1.7425
21738SOL    HW266889   7.833   6.531   6.054 -0.0450 -0.8241  0.3226
21739SOL     OW66890   4.741   7.945   5.982 -0.3418  0.1729  0.3435
21739SOL    HW166891   4.685   7.898   6.044 -0.5770  1.1067  0.8538
21739SOL    HW266892   4.685   8.015   5.948 -0.2087 -0.3079 -0.9249
21740SOL     OW66893   8.140   5.900   8.084 -0.2638 -0.4144  0.7476
21740SOL    HW166894   8.191   5.819   8.084 -2.3113 -1.7835 -0.3375
21740SOL    HW266895   8.075   5.888   8.015 -0.4167  2.3296  0.3000
21741SOL     OW66896   8.641   3.453   7.687 -0.2817  0.0420 -0.3560
21741SOL    HW166897   8.688   3.528   7.652  1.2117  0.0997  1.5902
21741SOL    HW266898   8.627   3.396   7.611  1.9072  0.5812 -1.2639
21742SOL     OW66899   1.220   6.858   0.955 -0.0239  0.8343 -0.3918
21742SOL    HW166900   1.224   6.783   0.896 -2.4158  1.2780 -1.2298
21742SOL    HW266901   1.247   6.932   0.901  1.8608  0.7204  0.3022
21743SOL     OW66902   6.176   7.114   4.467  0.1085  0.8094  0.0868
21743SOL    HW166903   6.176   7.024   4.433  1.6910  0.7216  0.2418
21743SOL    HW266904   6.250   7.155   4.424  0.5623  1.4816  1.4691
21744SOL     OW66905   3.417   7.452   1.823  0.3121  0.0585 -0.8403
21744SOL    HW166906   3.507   7.460   1.856 -0.5556  0.8127  1.5670
21744SOL    HW266907   3.363   7.481   1.896 -2.0042 -2.2088 -1.5148
21745SOL     OW66908   2.347   9.614   9.150 -0.0987 -0.0600  0.1047
21745SOL    HW166909   2.284   9.552   9.113  0.3939 -0.4177 -0.1493
21745SOL    HW266910   2.390   9.565   9.220  0.6035 -0.1610 -0.3844
21746SOL     OW66911   7.433   2.423   5.554 -0.7871  0.0325  0.4572
21746SOL    HW166912   7.496   2.416   5.482 -0.5456  0.9157  0.5696
21746SOL    HW266913   7.359   2.369   5.526 -1.0871  1.0548 -0.8829
21747SOL     OW66914   1.476   2.265   0.936  0.1204  0.2468  0.0154
21747SOL    HW166915   1.424   2.302   1.007 -0.9501 -0.9457 -0.1005
21747SOL    HW266916   1.544   2.215   0.980  0.3275  0.6764  0.1846
21748SOL     OW66917   1.716   8.581   5.603  0.2587 -0.3715  0.3541
21748SOL    HW166918   1.712   8.661   5.550 -0.0244  0.3945  1.4921
21748SOL    HW266919   1.810   8.566   5.615  0.4475 -1.8935 -2.2525
21749SOL     OW66920   7.995   0.248   6.775 -0.2255 -0.0668  0.2481
21749SOL    HW166921   7.944   0.177   6.813 -2.0822 -0.7323 -3.0747
21749SOL    HW266922   7.972   0.248   6.682  3.5050  1.7030 -0.9112
21750SOL     OW66923   5.539   3.893   6.986 -0.6870  0.3784 -0.4085
21750SOL    HW166924   5.516   3.909   6.895  3.1652  0.8143 -1.4888
21750SOL    HW266925   5.532   3.980   7.028 -0.2807  0.6491 -0.8913
21751SOL     OW66926   6.753   1.984   6.932 -1.0337 -0.0816  0.1576
21751SOL    HW166927   6.660   1.964   6.943 -1.1907  0.4585 -0.1355
21751SOL    HW266928   6.758   2.080   6.935 -0.3108 -0.1269  1.5037
21752SOL     OW66929   7.186   4.890   3.530  0.1752  0.5379 -0.2595
21752SOL    HW166930   7.148   4.844   3.455  0.2921 -0.4839  0.2960
21752SOL    HW266931   7.159   4.981   3.518  0.3574  0.4370 -1.6438
21753SOL     OW66932   8.413   2.628   2.746 -0.4785  0.1819  0.3844
21753SOL    HW166933   8.376   2.687   2.680  0.8503 -0.8982 -1.4071
21753SOL    HW266934   8.385   2.541   2.719 -0.5576 -0.2315  1.7201
21754SOL     OW66935   2.894   2.492   1.462  0.1679 -0.2841 -0.6454
21754SOL    HW166936   2.904   2.414   1.517  1.3042  0.2939  0.0014
21754SOL    HW266937   2.914   2.461   1.374 -2.3834 -1.3819 -0.9155
21755SOL     OW66938   5.664   1.366   8.368  0.8501  0.2845 -0.6721
21755SOL    HW166939   5.725   1.324   8.307  1.2580 -0.1304  0.0118
21755SOL    HW266940   5.657   1.305   8.441 -1.3803 -0.2941 -1.2760
21756SOL     OW66941   8.093   5.404   8.377  0.2990 -0.1847 -0.5492
21756SOL    HW166942   8.130   5.492   8.377 -0.3749  0.1135  0.0478
21756SOL    HW266943   8.118   5.366   8.293  0.9634  0.4184 -0.6284
21757SOL     OW66944   1.985   0.143   1.208  0.2666 -0.2013  0.0074
21757SOL    HW166945   2.027   0.224   1.177  0.0393  0.0828  0.4370
21757SOL    HW266946   1.980   0.153   1.303 -1.6263  0.1928 -0.1007
21758SOL     OW66947   9.056   5.419   0.620 -0.1605  0.5868 -0.6319
21758SOL    HW166948   9.132   5.381   0.663 -1.2820 -0.8395  0.1953
21758SOL    HW266949   9.064   5.513   0.636  0.8264  0.3430  0.4254
21759SOL     OW66950   5.412   2.236   0.158 -0.5073  0.5093  0.1194
21759SOL    HW166951   5.435   2.159   0.210  1.9239  1.1684  0.1283
21759SOL    HW266952   5.403   2.203   0.069  0.3664  0.1699  0.1473
21760SOL     OW66953   1.095   5.968   7.069 -0.2591 -0.5381 -0.0985
21760SOL    HW166954   1.180   6.009   7.087  0.0855 -0.9364 -0.7859
21760SOL    HW266955   1.036   6.042   7.057 -0.4573 -0.2448  2.3154
21761SOL     OW66956   3.842   2.883   7.403 -0.4016  0.1118 -0.3282
21761SOL    HW166957   3.911   2.948   7.415 -0.4421  0.1508 -0.3083
21761SOL    HW266958   3.889   2.800   7.392 -0.3578 -0.4558  2.9970
21762SOL     OW66959   6.570   8.820   4.829  0.0432 -0.0503  0.2590
21762SOL    HW166960   6.488   8.851   4.790 -0.0566 -0.4227  0.1674
21762SOL    HW266961   6.593   8.742   4.777  0.2365 -0.1860  0.5447
21763SOL     OW66962   2.033   1.998   9.007  0.2843  0.6203  0.0933
21763SOL    HW166963   2.077   2.005   8.922  1.3237  0.9148  0.6299
21763SOL    HW266964   2.043   2.085   9.046 -0.7996  0.6923  0.2394
21764SOL     OW66965   2.232   6.480   0.121  0.0791 -0.1987  0.3665
21764SOL    HW166966   2.313   6.446   0.160  1.3032  0.5086 -1.4355
21764SOL    HW266967   2.239   6.458   0.028 -1.2409  0.9187 -0.0289
21765SOL     OW66968   0.544   3.457   9.389  0.3849 -0.3942 -0.5897
21765SOL    HW166969   0.555   3.496   9.302 -0.4586  0.2834 -0.4041
21765SOL    HW266970   0.579   3.523   9.449 -2.1871  0.7383 -0.1743
21766SOL     OW66971   8.696   2.656   1.094  0.2982 -0.1897  0.2733
21766SOL    HW166972   8.697   2.621   1.005  1.0982  0.4208  0.0194
21766SOL    HW266973   8.618   2.618   1.135 -1.3270  1.1984 -1.3659
21767SOL     OW66974   5.367   6.173   2.401 -0.0048  0.1773 -0.1006
21767SOL    HW166975   5.303   6.145   2.467  0.6395  0.6661  0.7616
21767SOL    HW266976   5.315   6.202   2.327 -0.8622  1.7938  1.0596
21768SOL     OW66977   5.681   3.712   8.219  0.1062  0.5159 -0.2191
21768SOL    HW166978   5.688   3.732   8.313  0.5845  0.1622 -0.1784
21768SOL    HW266979   5.624   3.635   8.215 -0.4867  0.9479 -0.2715
21769SOL     OW66980   2.324   1.470   9.569  0.1976  0.6979  0.2102
21769SOL    HW166981   2.382   1.544   9.550  1.0419  0.2789  1.0686
21769SOL    HW266982   2.380   1.408   9.617 -0.4620 -0.5513 -0.6068
21770SOL     OW66983   1.656   7.586   0.119  0.1282  0.8259  0.3563
21770SOL    HW166984   1.586   7.645   0.148 -0.1923  0.5994  0.0509
21770SOL    HW266985   1.709   7.571   0.197 -1.0732 -0.2667  0.9866
21771SOL     OW66986   8.441   6.047   9.087 -0.5583 -0.1296  0.0739
21771SOL    HW166987   8.508   6.076   9.025 -3.0324  0.5474 -2.5054
21771SOL    HW266988   8.359   6.054   9.038 -2.7317  0.5467  3.5306
21772SOL     OW66989   8.951   7.557   4.250 -0.0292  0.0930 -0.3945
21772SOL    HW166990   8.940   7.639   4.298 -0.3783  0.1113 -0.4972
21772SOL    HW266991   8.905   7.492   4.303 -0.6418  0.1624 -0.8277
21773SOL     OW66992   1.326   5.665   5.871  0.3072  0.5059  0.2185
21773SOL    HW166993   1.245   5.713   5.887 -1.2849 -1.0189 -2.4691
21773SOL    HW266994   1.334   5.605   5.944 -0.8123  0.8962  0.6815
21774SOL     OW66995   4.520   0.220   6.203  0.1954 -0.4943  0.6053
21774SOL    HW166996   4.609   0.192   6.223  0.2426 -1.2995 -0.6472
21774SOL    HW266997   4.529   0.307   6.166  0.1309  0.9321  3.6105
21775SOL     OW66998   8.028   9.648   8.862 -0.1563  0.6415 -0.0020
21775SOL    HW166999   8.060   9.616   8.778  1.9310  1.2764  0.4830
21775SOL    HW267000   8.004   9.739   8.846  0.2597  0.7681  0.0671
21776SOL     OW67001   4.449   5.980   4.218 -0.3034 -0.2084  0.2643
21776SOL    HW167002   4.515   5.990   4.149  0.8665 -1.5088  1.1314
21776SOL    HW267003   4.426   5.887   4.215 -2.2873  0.2588 -0.1420
21777SOL     OW67004   4.980   7.861   8.519 -0.2333  0.1243  0.1531
21777SOL    HW167005   4.887   7.840   8.513 -0.6693  1.7866  0.4838
21777SOL    HW267006   4.982   7.956   8.535  1.4413 -0.1845  2.3537
21778SOL     OW67007   6.927   0.564   9.099 -0.2972 -0.4275 -0.1773
21778SOL    HW167008   7.013   0.585   9.063 -0.5580  1.7077  0.3154
21778SOL    HW267009   6.878   0.528   9.025  0.2409  0.6784 -1.0971
21779SOL     OW67010   6.032   8.428   7.335 -0.4589 -0.4791  0.3394
21779SOL    HW167011   6.072   8.514   7.323 -0.0388 -0.3947  2.0909
21779SOL    HW267012   6.099   8.376   7.379 -0.4139 -1.9956 -1.3881
21780SOL     OW67013   7.145   8.252   3.256 -0.4740 -0.5207  0.1359
21780SOL    HW167014   7.141   8.161   3.230 -0.6390  0.1524 -2.4144
21780SOL    HW267015   7.224   8.286   3.213 -0.3092  0.5078  1.1971
21781SOL     OW67016   8.525   6.578   3.597  0.1518  0.0157 -0.7284
21781SOL    HW167017   8.552   6.574   3.689 -0.6047  1.0657 -0.4412
21781SOL    HW267018   8.445   6.525   3.594  1.3131 -1.7962 -1.2537
21782SOL     OW67019   1.104   3.954   2.323 -0.5219 -0.0675 -0.5295
21782SOL    HW167020   1.170   3.931   2.388 -1.6204 -1.6347  0.1091
21782SOL    HW267021   1.113   4.049   2.311 -1.9938  0.8862  3.9385
21783SOL     OW67022   1.997   9.130   1.296  0.3001 -0.0322 -0.0316
21783SOL    HW167023   1.946   9.073   1.353  2.4373 -0.6643  1.3731
21783SOL    HW267024   1.951   9.214   1.298 -0.8812 -0.6729  0.8439
21784SOL     OW67025   7.249   3.519   3.372 -0.0617 -0.3783  0.4282
21784SOL    HW167026   7.297   3.581   3.317  0.4830 -1.4685 -0.3829
21784SOL    HW267027   7.210   3.457   3.309 -0.1590 -1.1510  1.2328
21785SOL     OW67028   1.871   5.666   6.952  0.3146  0.1694 -0.2766
21785SOL    HW167029   1.928   5.592   6.930  0.9294  0.7553 -0.6625
21785SOL    HW267030   1.815   5.678   6.875 -0.5200 -0.5626  0.1959
21786SOL     OW67031   5.747   1.488   4.189 -0.1962 -0.4525  0.3857
21786SOL    HW167032   5.750   1.504   4.284  0.0604  1.9048  0.0536
21786SOL    HW267033   5.816   1.424   4.173  1.2928  0.7614  1.5709
21787SOL     OW67034   9.317   5.693   7.334 -0.5558  0.1040 -0.3381
21787SOL    HW167035   9.379   5.749   7.288 -1.3229  0.4163 -1.0305
21787SOL    HW267036   9.237   5.697   7.280 -0.3414 -2.4284 -0.9246
21788SOL     OW67037   6.699   9.555   9.082 -0.3999  0.2860 -0.0061
21788SOL    HW167038   6.707   9.460   9.080 -0.1621  0.3076 -0.1422
21788SOL    HW267039   6.605   9.572   9.078 -0.4757  0.0431  0.6728
21789SOL     OW67040   8.583   6.308   5.166 -0.3730 -0.8948  0.0120
21789SOL    HW167041   8.558   6.367   5.095 -0.1213 -0.1145  0.5547
21789SOL    HW267042   8.620   6.232   5.122  1.5816  0.3829 -0.6655
21790SOL     OW67043   0.695   7.932   1.590 -0.3862 -0.1941 -0.2888
21790SOL    HW167044   0.771   7.983   1.618  0.4543 -1.0566 -0.9494
21790SOL    HW267045   0.676   7.875   1.664  0.8431 -1.3441 -0.8141
21791SOL     OW67046   2.948   3.980   4.436  0.3672  0.2987 -0.5387
21791SOL    HW167047   2.887   3.998   4.507  1.8383  3.1971  0.1197
21791SOL    HW267048   2.893   3.977   4.357 -0.8071  1.5152  0.1964
21792SOL     OW67049   5.668   2.428   3.950  0.5590 -0.5184 -0.1376
21792SOL    HW167050   5.725   2.504   3.945  0.1167  0.0987  2.6296
21792SOL    HW267051   5.727   2.353   3.940  1.5893  0.1359  0.7879
21793SOL     OW67052   9.069   1.861   0.384  0.3302 -0.3948 -0.0558
21793SOL    HW167053   9.096   1.953   0.376  2.3206 -0.8005  1.1817
21793SOL    HW267054   9.128   1.814   0.325 -0.1102 -0.9579 -0.0511
21794SOL     OW67055   0.847   2.705   9.488  0.3685  0.2770 -0.0548
21794SOL    HW167056   0.792   2.708   9.410  0.2836 -2.9811 -0.2801
21794SOL    HW267057   0.810   2.770   9.547 -0.7639  1.4496 -1.9710
21795SOL     OW67058   6.056   3.946   2.780 -0.6245  0.6918  0.2878
21795SOL    HW167059   6.053   3.902   2.694 -1.2937  3.0547 -0.9922
21795SOL    HW267060   6.111   3.890   2.834  1.0827 -0.1284 -2.1509
21796SOL     OW67061   7.416   6.602   3.599 -0.1060  0.1956  0.0981
21796SOL    HW167062   7.459   6.685   3.581 -1.0331  0.3995 -1.3430
21796SOL    HW267063   7.350   6.623   3.665 -1.0401  0.8751 -1.0003
21797SOL     OW67064   1.555   2.456   0.376  0.3750  0.4652  0.3714
21797SOL    HW167065   1.640   2.429   0.410  0.8023  2.0590  0.6113
21797SOL    HW267066   1.520   2.376   0.335  1.2108 -0.6648  1.7683
21798SOL     OW67067   9.662   5.523   1.225  0.1262  0.7505  0.5530
21798SOL    HW167068   9.596   5.471   1.271 -0.0183  0.9245  0.5456
21798SOL    HW267069   9.681   5.474   1.145  0.7519  0.1854  1.0361
21799SOL     OW67070   2.335   2.559   2.137  0.2913 -0.3105 -0.2501
21799SOL    HW167071   2.307   2.522   2.221 -0.6037 -0.6031 -0.6710
21799SOL    HW267072   2.372   2.644   2.161  0.3846 -0.5447  0.4817
21800SOL     OW67073   5.578   1.491   3.434 -0.3834  0.0738 -0.7917
21800SOL    HW167074   5.570   1.396   3.445 -0.6005  0.0220 -1.3274
21800SOL    HW267075   5.534   1.528   3.510 -0.7441 -0.2580 -0.8370
21801SOL     OW67076   6.476   0.411   7.794 -0.2762  0.7027 -0.3165
21801SOL    HW167077   6.523   0.474   7.848  1.2922 -1.8338  1.5098
21801SOL    HW267078   6.520   0.414   7.709  1.9935 -0.1945  0.7526
21802SOL     OW67079   4.895   8.946   5.758  0.3387  0.3154  0.2743
21802SOL    HW167080   4.809   8.905   5.749  0.1675  0.8060 -0.4274
21802SOL    HW267081   4.877   9.033   5.793  0.3762  1.0333 -1.3826
21803SOL     OW67082   4.678   9.005   8.577 -0.2238  0.6843  0.0396
21803SOL    HW167083   4.774   9.000   8.572 -0.2209 -0.7151  0.9421
21803SOL    HW267084   4.648   8.920   8.544 -1.2048  1.4200 -1.0272
21804SOL     OW67085   0.007   6.389   5.746  0.5963  0.5043  0.0017
21804SOL    HW167086   0.010   6.293   5.744  1.1876  0.5063  0.4667
21804SOL    HW267087  -0.081   6.411   5.715  0.0643 -0.2193  0.9606
21805SOL     OW67088   1.669   2.779   2.792 -0.0986 -0.4709 -0.6217
21805SOL    HW167089   1.673   2.873   2.774 -0.8831 -0.2346  0.3608
21805SOL    HW267090   1.745   2.762   2.848 -0.4097 -0.2595 -0.1310
21806SOL     OW67091   8.735   9.337   4.977  0.1134 -0.1887  0.2622
21806SOL    HW167092   8.825   9.305   4.983 -0.1360 -0.9803 -0.0265
21806SOL    HW267093   8.724   9.392   5.055  1.2614  1.0304 -0.3983
21807SOL     OW67094   7.918   3.296   6.314  0.5179 -0.2183  0.0153
21807SOL    HW167095   7.896   3.207   6.340  0.3797  0.0522  0.8536
21807SOL    HW267096   8.013   3.301   6.321  0.6709 -0.6983 -1.3741
21808SOL     OW67097   7.918   3.559   2.682 -0.5487 -0.1993 -0.5942
21808SOL    HW167098   7.993   3.549   2.622  0.1428 -1.2227  0.3991
21808SOL    HW267099   7.934   3.495   2.751 -1.7115  0.4477  0.3104
21809SOL     OW67100   9.444   8.433   8.162  0.5415  0.2287 -0.0924
21809SOL    HW167101   9.389   8.366   8.121  0.9685 -0.3471  0.2596
21809SOL    HW267102   9.386   8.508   8.174 -0.0450 -0.2153 -0.1308
21810SOL     OW67103   6.910   1.551   5.162 -0.3854  0.5023 -0.1008
21810SOL    HW167104   6.898   1.645   5.175 -2.1959  0.2349  0.4960
21810SOL    HW267105   6.988   1.529   5.212 -0.8954  1.4181  1.1457
21811SOL     OW67106   1.783   6.281   8.947  0.3223 -0.1107  0.3811
21811SOL    HW167107   1.753   6.192   8.964 -1.0599  0.1969 -0.3028
21811SOL    HW267108   1.711   6.322   8.899  0.5281  1.6560  1.4567
21812SOL     OW67109   8.192   1.485   4.370  0.1542 -0.1936  0.3164
21812SOL    HW167110   8.110   1.524   4.339  1.2284  1.5545 -0.4883
21812SOL    HW267111   8.219   1.541   4.443  0.4040 -1.0540  0.9045
21813SOL     OW67112   7.928   5.944   8.975  0.0122  0.3877 -0.0793
21813SOL    HW167113   8.005   5.970   9.024  0.6885 -1.2882 -0.2014
21813SOL    HW267114   7.931   5.997   8.896  0.9701  0.4398 -0.0200
21814SOL     OW67115   4.891   6.527   5.574 -0.4043 -0.9116  0.2141
21814SOL    HW167116   4.841   6.548   5.495 -0.9633  1.7520  1.1875
21814SOL    HW267117   4.952   6.599   5.583  0.2142 -1.6007  1.7885
21815SOL     OW67118   5.567   2.850   1.868  0.4680 -0.0886 -0.9088
21815SOL    HW167119   5.605   2.833   1.954 -0.0585 -0.1126 -0.6742
21815SOL    HW267120   5.482   2.805   1.871  0.7525 -0.6895 -1.6940
21816SOL     OW67121   1.515   5.433   1.665 -0.3807  0.3808 -0.3469
21816SOL    HW167122   1.444   5.428   1.729  2.0247  0.2483  2.5171
21816SOL    HW267123   1.554   5.519   1.678  1.2886 -0.3375 -0.2817
21817SOL     OW67124   5.365   0.962   9.425  0.4220 -0.0999 -0.2845
21817SOL    HW167125   5.319   0.891   9.380 -0.9708 -0.2430  1.2898
21817SOL    HW267126   5.413   0.920   9.496 -0.6451  0.5061  0.8431
21818SOL     OW67127   1.442   2.512   4.671 -0.1858 -0.0243 -0.1468
21818SOL    HW167128   1.533   2.517   4.699 -0.2890  0.1400  0.1674
21818SOL    HW267129   1.445   2.527   4.576 -0.0069  1.3270  0.0455
21819SOL     OW67130   7.627   8.840   4.533  0.0842  0.1461  0.2213
21819SOL    HW167131   7.532   8.827   4.523 -0.1200  2.2244 -1.2602
21819SOL    HW267132   7.636   8.888   4.615 -0.4527  2.0169 -0.7459
21820SOL     OW67133   1.071   0.015   6.271 -0.2761 -0.3470  0.4931
21820SOL    HW167134   1.092   0.107   6.284 -3.4405  0.6159 -0.3359
21820SOL    HW267135   1.113  -0.030   6.345  0.4665  1.8676  1.5023
21821SOL     OW67136   4.471   0.818   0.188  0.2759 -0.2401 -0.0670
21821SOL    HW167137   4.405   0.886   0.195  1.5287  0.8665  2.0340
21821SOL    HW267138   4.471   0.775   0.273  2.0033 -0.4530 -0.1351
21822SOL     OW67139   1.287   2.711   8.808 -0.1639 -0.1187  0.0377
21822SOL    HW167140   1.372   2.716   8.852  0.5010 -1.1209 -1.0805
21822SOL    HW267141   1.232   2.773   8.856  1.2189  0.6424  0.7080
21823SOL     OW67142   1.275   6.346   2.613 -0.7586  0.1296  0.0900
21823SOL    HW167143   1.261   6.393   2.531  2.9781  0.0211 -0.7976
21823SOL    HW267144   1.300   6.257   2.586 -1.3023 -0.4698  1.4611
21824SOL     OW67145   9.552   4.013   7.074  0.1697 -0.5512 -0.3474
21824SOL    HW167146   9.536   4.079   7.142 -0.8704 -1.3010  0.1526
21824SOL    HW267147   9.633   4.042   7.032  1.2127 -0.4016  1.6403
21825SOL     OW67148   2.267   6.268   7.752  0.8567  0.0071  0.1797
21825SOL    HW167149   2.201   6.277   7.684 -1.1048  0.3548  2.0341
21825SOL    HW267150   2.306   6.182   7.736  0.9858  0.3743 -1.7625
21826SOL     OW67151   8.521   0.525   2.415 -0.5456 -0.0743 -0.1342
21826SOL    HW167152   8.561   0.509   2.329 -0.1494 -0.5962  0.1454
21826SOL    HW267153   8.434   0.559   2.395 -0.4057 -0.0642 -0.7434
21827SOL     OW67154   5.438   6.581   5.501 -0.2144 -0.2097 -0.2046
21827SOL    HW167155   5.382   6.593   5.425 -0.0043  1.1555 -0.1699
21827SOL    HW267156   5.523   6.557   5.465 -0.3317 -0.3969 -0.3568
21828SOL     OW67157   2.079   0.112   1.740 -0.0491  0.0241 -0.1569
21828SOL    HW167158   1.986   0.096   1.756 -0.2654  0.8475 -0.5023
21828SOL    HW267159   2.125   0.045   1.790 -0.8366 -0.4841 -0.1099
21829SOL     OW67160   6.491   8.795   5.976 -1.0144 -0.2179  0.0612
21829SOL    HW167161   6.458   8.735   6.043 -1.3160 -0.3560 -0.2057
21829SOL    HW267162   6.469   8.751   5.893 -0.8797  0.0758 -0.1298
21830SOL     OW67163   8.227   0.327   3.939 -0.4225  0.6421 -0.2969
21830SOL    HW167164   8.289   0.275   3.887 -0.2803  0.0180  0.4709
21830SOL    HW267165   8.197   0.396   3.879 -0.0192  0.1425 -1.0959
21831SOL     OW67166   8.547   6.576   4.743 -0.0277 -0.1316 -0.3357
21831SOL    HW167167   8.574   6.488   4.714  2.6764 -0.0815  1.5995
21831SOL    HW267168   8.622   6.631   4.723 -1.0181  1.3900  0.0243
21832SOL     OW67169   0.625   1.128   2.721 -0.8378 -0.0130 -0.0513
21832SOL    HW167170   0.641   1.058   2.784 -1.3051  0.4364  0.5825
21832SOL    HW267171   0.634   1.086   2.635 -0.3039 -0.6567  0.3107
21833SOL     OW67172   1.829   0.984   2.591 -0.1711 -0.6270  0.1880
21833SOL    HW167173   1.767   0.932   2.643  0.7885 -0.4501  1.5750
21833SOL    HW267174   1.825   1.071   2.632  0.1645 -0.3208 -0.4265
21834SOL     OW67175   5.658   3.426   7.897  0.5592 -0.0084  0.3607
21834SOL    HW167176   5.579   3.416   7.950  0.6295  0.9609  0.6730
21834SOL    HW267177   5.710   3.348   7.916  0.8806  0.6230  2.2596
21835SOL     OW67178   1.245   9.145   4.360 -0.1938  0.0167  0.2618
21835SOL    HW167179   1.175   9.143   4.295  0.0477 -0.1117  0.0015
21835SOL    HW267180   1.305   9.075   4.333  1.0596  1.3986 -0.6751
21836SOL     OW67181   5.711   8.571   6.833  0.6463 -0.0822  0.7191
21836SOL    HW167182   5.625   8.580   6.875  0.1857  0.2499 -0.2636
21836SOL    HW267183   5.698   8.604   6.745  1.1346 -2.3969 -0.3007
21837SOL     OW67184   5.664   6.717   3.547  0.1242  0.2870 -0.5668
21837SOL    HW167185   5.756   6.734   3.567  0.0223  0.7302 -0.4537
21837SOL    HW267186   5.616   6.784   3.595 -0.1849  0.7855 -1.5292
21838SOL     OW67187   6.060   1.477   9.139  0.5527  0.4232 -0.3954
21838SOL    HW167188   6.070   1.384   9.121 -0.1290  0.6629 -2.2236
21838SOL    HW267189   6.130   1.519   9.089  0.0672  0.9717 -0.6231
21839SOL     OW67190   1.977   8.115   7.353 -0.1025  0.0631  0.3341
21839SOL    HW167191   1.953   8.044   7.413  1.5548  0.9521  2.1621
21839SOL    HW267192   2.044   8.077   7.297  0.5522  0.0702  1.0974
21840SOL     OW67193   3.859   7.030   1.137 -0.2763  0.2741  0.2500
21840SOL    HW167194   3.859   6.965   1.067  0.5714  0.8821 -0.3347
21840SOL    HW267195   3.938   7.009   1.189 -0.7477 -0.0021  0.8705
21841SOL     OW67196   5.735   3.599   8.917 -0.9410  0.3030  0.5524
21841SOL    HW167197   5.714   3.689   8.938 -2.3070 -0.1094  1.0408
21841SOL    HW267198   5.708   3.588   8.826  0.0917  0.6225  0.1887
21842SOL     OW67199   5.387   5.665   1.400 -0.2421  0.0005 -0.1771
21842SOL    HW167200   5.390   5.719   1.321  0.1936  0.3575  0.0726
21842SOL    HW267201   5.458   5.700   1.454 -1.1820  0.4329  0.8035
21843SOL     OW67202   7.970   5.884   0.007 -0.3730  0.2193  0.0136
21843SOL    HW167203   7.881   5.889  -0.028 -0.1946  0.2233 -0.4450
21843SOL    HW267204   8.015   5.959  -0.032  0.4579 -1.0382 -1.5446
21844SOL     OW67205   5.465   8.444   5.508 -0.0231 -0.1571  0.1323
21844SOL    HW167206   5.489   8.483   5.424  1.1749  0.0194  0.5506
21844SOL    HW267207   5.369   8.435   5.503 -0.1280  1.1063 -0.7112
21845SOL     OW67208   8.900   8.119   3.949  0.1350  0.6804 -0.5533
21845SOL    HW167209   8.930   8.209   3.933  1.8693  0.3162  0.4319
21845SOL    HW267210   8.981   8.068   3.957 -0.7840 -1.4197 -3.2724
21846SOL     OW67211   9.036   2.878   4.157  0.0277 -0.2506 -0.0606
21846SOL    HW167212   9.088   2.832   4.091  1.5123  1.9021 -0.4846
21846SOL    HW267213   8.952   2.893   4.115 -0.1421 -1.6552 -0.2706
21847SOL     OW67214   8.916   6.505   8.329  0.2829 -0.2660 -0.1802
21847SOL    HW167215   8.885   6.441   8.393 -1.1746  0.0909 -0.4936
21847SOL    HW267216   8.892   6.590   8.366  2.5053  0.1890  0.3960
21848SOL     OW67217   9.336   4.937   0.960  0.5314 -0.3658  0.1297
21848SOL    HW167218   9.297   4.922   0.874 -0.1654  1.6614  0.0577
21848SOL    HW267219   9.393   5.013   0.948  0.6760 -0.2609  1.3817
21849SOL     OW67220   9.105   6.986   7.717  0.1555  0.1284 -0.0338
21849SOL    HW167221   9.011   6.993   7.732  0.4195  0.4778  1.6591
21849SOL    HW267222   9.112   6.948   7.630 -1.5261  1.5873 -0.8743
21850SOL     OW67223   2.294   3.278   8.645 -0.1296  0.0089 -0.3309
21850SOL    HW167224   2.249   3.362   8.635 -1.8736 -0.8678 -0.1630
21850SOL    HW267225   2.233   3.223   8.694  2.6957 -0.0523  3.6065
21851SOL     OW67226   3.177   0.194   2.655 -0.1621  0.0322 -0.5396
21851SOL    HW167227   3.238   0.267   2.647  0.0841 -0.1275 -0.1070
21851SOL    HW267228   3.101   0.222   2.603  0.4577  0.0277 -1.4849
21852SOL     OW67229   1.936   0.114   2.430 -0.5615 -0.1233 -0.3029
21852SOL    HW167230   1.901   0.113   2.341 -0.8968  2.1004 -0.2453
21852SOL    HW267231   1.859   0.112   2.487 -0.4290  0.3344 -0.1023
21853SOL     OW67232   6.174   6.751   9.563 -0.2191 -0.4089 -0.1306
21853SOL    HW167233   6.233   6.794   9.500  0.0904 -0.3023  0.2313
21853SOL    HW267234   6.094   6.735   9.513  0.9258 -2.7954 -1.3909
21854SOL     OW67235   1.162   8.397   2.739 -0.2335 -0.3921  0.6792
21854SOL    HW167236   1.207   8.443   2.668 -0.0987 -0.8057  0.4936
21854SOL    HW267237   1.121   8.467   2.790 -1.3423 -0.1358 -0.4771
21855SOL     OW67238   4.634   8.824   0.290  0.3132 -0.2718  0.4101
21855SOL    HW167239   4.679   8.812   0.374  1.2807 -1.2083 -0.2173
21855SOL    HW267240   4.653   8.914   0.264  0.2315 -0.0621  1.0610
21856SOL     OW67241   5.328   8.969   6.069  0.5177  0.2436 -0.2737
21856SOL    HW167242   5.410   8.950   6.023  1.2647 -2.0463  1.8346
21856SOL    HW267243   5.260   8.941   6.009  1.3665 -0.3243 -0.9949
21857SOL     OW67244   3.661   7.432   7.912  0.1514  0.5897 -0.6413
21857SOL    HW167245   3.668   7.526   7.932 -0.7013  0.7182 -0.8870
21857SOL    HW267246   3.751   7.403   7.902  0.4467  1.2782 -0.0563
21858SOL     OW67247   1.850   2.972   0.776  0.3467 -0.6089  0.2134
21858SOL    HW167248   1.787   3.020   0.722 -1.4696 -0.7776  2.0781
21858SOL    HW267249   1.876   3.035   0.843 -0.1900 -1.4551  1.2429
21859SOL     OW67250   8.142   7.809   7.982 -0.0449  0.1326 -0.3081
21859SOL    HW167251   8.160   7.806   8.076  0.3995 -1.2576 -0.4094
21859SOL    HW267252   8.116   7.900   7.965  0.5512  0.5755  1.0208
21860SOL     OW67253   6.820   2.658   4.310  0.5930 -0.1158  0.0210
21860SOL    HW167254   6.846   2.567   4.323  0.2844 -0.3064 -0.6521
21860SOL    HW267255   6.902   2.704   4.290  0.9203 -0.0149  1.4913
21861SOL     OW67256   6.106   3.537   4.875 -0.6081  0.5629  0.1086
21861SOL    HW167257   6.033   3.476   4.865  0.3672 -1.0706  2.1425
21861SOL    HW267258   6.076   3.618   4.834 -1.9757 -1.2286 -2.7240
21862SOL     OW67259   5.031   2.589   8.675 -0.6791  0.5705 -0.2062
21862SOL    HW167260   5.070   2.568   8.590 -1.1337 -0.3694 -0.1873
21862SOL    HW267261   5.042   2.684   8.683  1.6578  0.3488 -0.1715
21863SOL     OW67262   5.029   2.999   7.493 -0.0335 -0.1591  0.0374
21863SOL    HW167263   5.025   2.964   7.404 -0.3743 -0.5990  0.2185
21863SOL    HW267264   5.048   2.922   7.547 -0.0779  0.0620  0.3683
21864SOL     OW67265   0.987   2.004   3.139  0.3178 -0.1662  0.8522
21864SOL    HW167266   0.930   1.948   3.191 -1.1523 -0.1423 -0.6458
21864SOL    HW267267   1.066   1.951   3.124 -0.7847 -1.6405 -0.0262
21865SOL     OW67268   1.714   7.901   3.008 -0.0157  0.8186  0.2705
21865SOL    HW167269   1.642   7.904   3.071 -0.8367  0.3981 -0.6168
21865SOL    HW267270   1.680   7.947   2.931 -0.0068 -0.9168 -0.8166
21866SOL     OW67271   7.528   4.868   4.965 -0.5221 -0.1321  0.4933
21866SOL    HW167272   7.545   4.838   5.054  0.4032 -0.0138  0.3681
21866SOL    HW267273   7.615   4.884   4.928 -0.9013 -0.0030 -0.3700
21867SOL     OW67274   8.394   1.258   0.420  0.0639 -0.1846 -0.3374
21867SOL    HW167275   8.440   1.315   0.359  0.0244  0.1213 -0.0839
21867SOL    HW267276   8.433   1.276   0.505 -0.5508  0.1129 -0.1131
21868SOL     OW67277   1.174   7.256   4.391  0.1595 -0.0366  0.7449
21868SOL    HW167278   1.214   7.329   4.439 -0.2805  0.9890 -0.3999
21868SOL    HW267279   1.246   7.220   4.338 -0.1678  1.2323 -0.6284
21869SOL     OW67280   1.758   2.034   3.214 -0.1284 -0.2456 -0.2587
21869SOL    HW167281   1.720   2.091   3.281 -1.2379  0.3924 -1.3914
21869SOL    HW267282   1.807   1.968   3.263 -0.2628  0.6623  1.1407
21870SOL     OW67283   7.596   8.012   2.010  0.1571 -0.1402 -0.0560
21870SOL    HW167284   7.603   8.019   1.915  0.0395  0.1539 -0.0428
21870SOL    HW267285   7.641   7.930   2.031  0.1014 -0.2537 -0.3740
21871SOL     OW67286   2.036   9.261   9.049 -0.4408 -0.1569 -0.4950
21871SOL    HW167287   2.028   9.178   9.096 -1.3868  1.2731  2.1527
21871SOL    HW267288   1.996   9.245   8.964 -1.6173 -2.1360  0.3626
21872SOL     OW67289   1.593   3.957   6.530  0.2684  0.6968  0.1304
21872SOL    HW167290   1.537   3.900   6.478  0.8570 -1.1529  1.4110
21872SOL    HW267291   1.633   4.016   6.467 -2.3475  1.4752 -0.9396
21873SOL     OW67292   7.705   7.601   4.585  0.3128 -0.5471 -0.2743
21873SOL    HW167293   7.740   7.569   4.502  1.7275 -0.2448  0.1955
21873SOL    HW267294   7.764   7.566   4.652  0.3107  0.7914  0.4662
21874SOL     OW67295   0.531   3.338   0.634  0.5794  0.1160 -0.1280
21874SOL    HW167296   0.438   3.357   0.621  0.2670 -0.7264  0.7983
21874SOL    HW267297   0.571   3.356   0.549 -0.3192  1.1163 -0.3531
21875SOL     OW67298   7.258   3.274   8.824 -0.5607 -0.5825 -0.4192
21875SOL    HW167299   7.294   3.297   8.738  0.2472  1.4013  0.4074
21875SOL    HW267300   7.168   3.307   8.821  0.6725  3.5199  0.8789
21876SOL     OW67301   8.425   9.619   2.104  0.3559  0.1831  0.0197
21876SOL    HW167302   8.491   9.663   2.157  0.6547  0.4190 -0.5467
21876SOL    HW267303   8.432   9.659   2.018 -2.1800  1.9731  0.5290
21877SOL     OW67304   1.418   9.292   5.202 -0.2516  0.1040  0.2412
21877SOL    HW167305   1.345   9.231   5.193 -1.2846  1.1350  1.2073
21877SOL    HW267306   1.428   9.303   5.297  1.7642 -0.6874  0.1685
21878SOL     OW67307   6.878   9.493   1.782  0.3294 -0.0267  0.7604
21878SOL    HW167308   6.957   9.439   1.781 -0.0354 -0.6839 -1.9112
21878SOL    HW267309   6.806   9.430   1.779 -0.2238  0.5842  0.9695
21879SOL     OW67310   1.231   8.195   8.492  0.7890  0.0700 -0.4575
21879SOL    HW167311   1.299   8.175   8.556 -0.2955 -1.2404  0.3304
21879SOL    HW267312   1.186   8.272   8.527  0.1962 -0.6454  0.4068
21880SOL     OW67313   9.654   0.391   4.634 -0.1725 -0.0072 -0.0953
21880SOL    HW167314   9.620   0.375   4.722  1.0193 -0.1140  0.3658
21880SOL    HW267315   9.737   0.436   4.649 -0.2183  0.4641 -1.1901
21881SOL     OW67316   4.416   0.925   3.215 -0.4056  0.5870  0.0078
21881SOL    HW167317   4.364   0.999   3.248 -0.1728  0.5280  0.5275
21881SOL    HW267318   4.405   0.928   3.120  0.5458  2.0123 -0.1004
21882SOL     OW67319   6.319   7.529   8.681  0.5409  0.1044  0.1529
21882SOL    HW167320   6.356   7.551   8.596 -0.4452  1.0168 -0.0687
21882SOL    HW267321   6.258   7.601   8.700 -0.1704 -0.7067  1.0530
21883SOL     OW67322   4.833   6.110   1.323 -0.1895  0.2250  0.0472
21883SOL    HW167323   4.847   6.205   1.326  0.5923  0.1219 -0.1383
21883SOL    HW267324   4.790   6.089   1.406 -1.8175  0.9578 -0.5784
21884SOL     OW67325   3.472   7.813   0.411 -0.6113  0.3091 -0.1383
21884SOL    HW167326   3.385   7.775   0.400  0.1695 -1.5567 -0.1242
21884SOL    HW267327   3.501   7.833   0.322 -1.6436  2.4625 -0.0628
21885SOL     OW67328   2.045   5.791   1.816  0.4635  0.6470 -0.0764
21885SOL    HW167329   2.077   5.718   1.869  0.5366  0.1125 -0.8377
21885SOL    HW267330   2.120   5.849   1.805  0.8809 -0.0301 -0.9007
21886SOL     OW67331   3.857   7.144   6.397 -0.4932  0.8179  0.5582
21886SOL    HW167332   3.890   7.112   6.313 -1.9866  2.7989 -0.9039
21886SOL    HW267333   3.913   7.219   6.418 -0.5753  0.7717  0.9444
21887SOL     OW67334   9.602   9.208   9.244  0.1709  0.7492  0.0633
21887SOL    HW167335   9.668   9.255   9.193  0.6450 -0.1765 -0.2132
21887SOL    HW267336   9.520   9.253   9.224  0.6989  1.8805  0.3627
21888SOL     OW67337   0.864   3.407   5.211 -0.0970 -0.1201 -0.0751
21888SOL    HW167338   0.957   3.423   5.196 -0.5015  2.9516  0.0015
21888SOL    HW267339   0.822   3.429   5.128 -0.9225  1.0883  0.6243
21889SOL     OW67340   9.216   2.570   4.433  0.4564 -0.2502  0.4417
21889SOL    HW167341   9.191   2.535   4.347  0.7519 -0.9805  0.6402
21889SOL    HW267342   9.224   2.664   4.419 -0.8073 -0.1883 -0.0103
21890SOL     OW67343   4.522   5.074   5.540 -0.0634  0.2334 -0.7068
21890SOL    HW167344   4.584   5.144   5.518 -1.1387  1.1547 -0.8615
21890SOL    HW267345   4.471   5.108   5.613 -1.4454  0.1488 -1.5916
21891SOL     OW67346   8.322   5.560   8.135  0.2727  0.3474  0.0968
21891SOL    HW167347   8.316   5.631   8.198  0.9101 -0.2011  0.7946
21891SOL    HW267348   8.416   5.542   8.128  0.6046  2.5363 -3.4774
21892SOL     OW67349   1.469   7.575   8.242 -0.1688 -0.0047 -0.3283
21892SOL    HW167350   1.443   7.501   8.187 -0.7288  1.0581 -1.5656
21892SOL    HW267351   1.441   7.552   8.330 -3.9619  0.3470 -1.2790
21893SOL     OW67352   3.637   4.900   9.361  0.0901 -0.4009  0.5592
21893SOL    HW167353   3.684   4.866   9.437 -0.0991 -0.7639  0.5172
21893SOL    HW267354   3.585   4.825   9.330 -3.1844  0.7963  2.6391
21894SOL     OW67355   7.947   6.388   0.797  0.2233 -0.2869  0.2797
21894SOL    HW167356   7.977   6.462   0.849  0.7144 -0.2905  0.0064
21894SOL    HW267357   7.852   6.384   0.812  0.1998  0.3765  0.3140
21895SOL     OW67358   4.413   1.711   0.578 -0.8674  0.3887 -0.1850
21895SOL    HW167359   4.434   1.744   0.491 -1.7144  1.5488  0.0156
21895SOL    HW267360   4.453   1.774   0.638  0.0126 -0.5961  0.2800
21896SOL     OW67361   5.916   2.868   7.902 -0.3064 -0.4336 -0.1593
21896SOL    HW167362   5.973   2.935   7.939  1.0185 -0.5119 -1.9490
21896SOL    HW267363   5.875   2.827   7.978  0.5240  0.9481  1.0732
21897SOL     OW67364   8.327   0.857   1.187  0.4114 -0.1158 -0.0865
21897SOL    HW167365   8.241   0.826   1.216  0.1243  1.8461  1.3653
21897SOL    HW267366   8.310   0.894   1.100  0.1805 -1.3630 -0.5853
21898SOL     OW67367   0.311   3.092   2.909 -0.6465 -0.0073  0.0353
21898SOL    HW167368   0.257   3.017   2.933  0.4254 -0.5511  0.8279
21898SOL    HW267369   0.399   3.057   2.902 -0.2038  1.0864 -0.0785
21899SOL     OW67370   8.508   5.141   9.598  0.0413 -0.2520 -0.0524
21899SOL    HW167371   8.434   5.153   9.659  0.5008  0.3443  0.3978
21899SOL    HW267372   8.488   5.199   9.525  0.8415  1.1532  0.8066
21900SOL     OW67373   2.629   9.627   3.284  0.0895  0.0435 -0.0950
21900SOL    HW167374   2.569   9.700   3.302  0.1159  0.4540 -1.5465
21900SOL    HW267375   2.605   9.598   3.196 -0.5133 -2.2999  0.7663
21901SOL     OW67376   7.705   5.768   1.185 -0.3363 -0.4196  0.0467
21901SOL    HW167377   7.651   5.717   1.124  0.8618 -0.2684 -1.1948
21901SOL    HW267378   7.785   5.717   1.194  0.7072  1.0043 -0.8801
21902SOL     OW67379   4.765   7.702   4.192 -0.4258 -0.2210  0.3688
21902SOL    HW167380   4.709   7.639   4.146 -0.0807 -0.4876  0.3095
21902SOL    HW267381   4.835   7.721   4.130 -0.8599  0.7094  0.1404
21903SOL     OW67382   7.941   8.305   4.536 -0.3422  0.0425 -0.7775
21903SOL    HW167383   7.896   8.295   4.452  0.6060 -2.0684 -1.0866
21903SOL    HW267384   7.889   8.371   4.583 -4.0425 -2.4334 -0.9554
21904SOL     OW67385   7.047   9.237   2.872 -0.2228  0.1491 -0.2855
21904SOL    HW167386   6.992   9.171   2.830  0.2315  0.5601 -1.5681
21904SOL    HW267387   6.985   9.305   2.900 -0.6456 -0.6096  0.6809
21905SOL     OW67388   3.025   9.229   0.730 -0.1877  0.2097 -0.0397
21905SOL    HW167389   3.109   9.216   0.775 -0.2366 -0.6915 -0.1923
21905SOL    HW267390   3.002   9.320   0.749  1.8921  1.1942 -1.8083
21906SOL     OW67391   6.247   3.347   0.208  0.5137  0.2433  0.5047
21906SOL    HW167392   6.341   3.367   0.212  0.1927  2.3407 -0.6261
21906SOL    HW267393   6.204   3.431   0.223 -1.1288 -0.2757 -0.9086
21907SOL     OW67394   7.381   2.880   8.170 -0.1106  0.2402 -0.3710
21907SOL    HW167395   7.437   2.953   8.144 -0.9208  1.1508  0.3469
21907SOL    HW267396   7.441   2.806   8.182  0.7358  0.8019 -1.0372
21908SOL     OW67397   1.439   0.378   1.171  0.5434  0.0298 -0.3667
21908SOL    HW167398   1.399   0.462   1.151  3.8763  1.4030 -2.0139
21908SOL    HW267399   1.448   0.335   1.086  0.5875 -1.1839  0.2298
21909SOL     OW67400   3.313   1.262   4.027 -0.1417 -0.1536  0.2651
21909SOL    HW167401   3.323   1.319   4.103  0.6876  0.6095 -0.3880
21909SOL    HW267402   3.298   1.322   3.954 -1.5193 -0.9059 -0.0970
21910SOL     OW67403   0.775   4.776   8.721  0.2043  0.2560  0.1432
21910SOL    HW167404   0.767   4.714   8.649 -0.6662 -0.9727  1.2490
21910SOL    HW267405   0.708   4.842   8.704 -0.5158 -0.4391  0.1998
21911SOL     OW67406   3.437   3.560   9.436  0.1404 -0.5342 -0.4519
21911SOL    HW167407   3.476   3.524   9.515 -0.8427 -0.9607 -0.1490
21911SOL    HW267408   3.503   3.547   9.368  0.5638 -1.1461  0.0707
21912SOL     OW67409   4.205   0.245   0.330 -0.1041  0.0257 -0.2194
21912SOL    HW167410   4.155   0.229   0.410 -0.1941 -1.0891 -0.4868
21912SOL    HW267411   4.150   0.305   0.279  0.5306  1.8018  1.0805
21913SOL     OW67412   0.106   8.497   4.305 -0.8548  0.2400  0.0856
21913SOL    HW167413   0.050   8.432   4.348  0.6632 -1.1356  0.0629
21913SOL    HW267414   0.075   8.499   4.215  0.0279 -1.6324 -0.3086
21914SOL     OW67415   4.794   8.194   1.542  0.9955 -0.1540 -0.2198
21914SOL    HW167416   4.887   8.171   1.530  1.3031  1.0088 -0.1790
21914SOL    HW267417   4.766   8.226   1.457  1.5173  2.4298  0.5072
21915SOL     OW67418   7.772   8.460   3.042 -0.0619  0.0266  0.0869
21915SOL    HW167419   7.774   8.498   3.130 -0.1775  0.2300  0.0040
21915SOL    HW267420   7.843   8.397   3.042  0.1842  0.2982  0.2068
21916SOL     OW67421   5.558   5.085   4.850  0.4226  0.3316  0.0256
21916SOL    HW167422   5.611   5.062   4.926 -1.1836 -0.7169  0.8699
21916SOL    HW267423   5.579   5.177   4.833  4.0895 -0.5469 -1.0234
21917SOL     OW67424   2.458   4.964   2.165  0.3027 -0.1161  0.6599
21917SOL    HW167425   2.481   5.004   2.081  0.9006  0.3081  1.0106
21917SOL    HW267426   2.377   4.918   2.148 -0.1557  0.8508  0.1105
21918SOL     OW67427   1.217   3.065   8.246  0.0619  0.0897  0.3221
21918SOL    HW167428   1.159   3.048   8.320 -0.0994 -0.8330 -0.0025
21918SOL    HW267429   1.304   3.042   8.277 -0.1187 -1.1560 -0.0273
21919SOL     OW67430   8.460   6.359   1.331 -0.2657 -0.4167 -0.0091
21919SOL    HW167431   8.409   6.389   1.255 -0.4257  1.4756  0.7941
21919SOL    HW267432   8.548   6.344   1.296 -0.0415  1.5578 -0.3962
21920SOL     OW67433   5.327   7.043   7.432 -0.5583  0.2532 -0.1914
21920SOL    HW167434   5.375   7.101   7.491 -0.6137  0.0093  0.0893
21920SOL    HW267435   5.250   7.016   7.481  0.2820 -1.3593  0.2826
21921SOL     OW67436   1.126   2.496   5.544  0.1377 -0.0191  0.1246
21921SOL    HW167437   1.146   2.526   5.633 -0.1130 -2.0653  0.9467
21921SOL    HW267438   1.210   2.470   5.508  0.2187  0.6685 -0.1982
21922SOL     OW67439   1.424   3.516   5.567 -1.1109  0.0844 -0.1808
21922SOL    HW167440   1.354   3.581   5.567 -0.0392  1.3713  2.2702
21922SOL    HW267441   1.459   3.519   5.656  1.8378 -0.7314 -1.2055
21923SOL     OW67442   5.871   3.536   0.987  0.3546  0.1660 -0.6595
21923SOL    HW167443   5.933   3.564   1.054 -0.4946 -2.0437  1.1709
21923SOL    HW267444   5.787   3.571   1.016  0.0393 -0.4877 -0.7714
21924SOL     OW67445   4.127   2.306   6.366  0.1205 -0.3166 -0.4429
21924SOL    HW167446   4.077   2.230   6.336 -1.9398  0.3544  1.0624
21924SOL    HW267447   4.084   2.333   6.448  1.4149  1.8477 -0.3869
21925SOL     OW67448   8.385   3.554   8.955 -0.5513  0.2770  0.7618
21925SOL    HW167449   8.473   3.551   8.919 -0.7587 -0.9653  0.3055
21925SOL    HW267450   8.334   3.602   8.889 -0.4500  0.0171  0.4911
21926SOL     OW67451   6.825   8.912   1.278 -0.3007  0.2140 -0.0679
21926SOL    HW167452   6.738   8.952   1.269  0.7561  2.9166  0.6529
21926SOL    HW267453   6.885   8.987   1.277  1.9669 -1.5137  0.3150
21927SOL     OW67454   8.438   7.626   5.526  0.8646  0.5588  0.2999
21927SOL    HW167455   8.480   7.709   5.502  0.6368  0.0345 -2.1943
21927SOL    HW267456   8.465   7.565   5.457 -0.6066 -0.8992  0.9490
21928SOL     OW67457   7.059   1.986   3.085 -0.2016 -0.0581  0.6427
21928SOL    HW167458   6.996   1.939   3.139 -1.6284 -0.0749 -0.9667
21928SOL    HW267459   7.121   1.918   3.056 -1.7862 -0.8868 -1.0109
21929SOL     OW67460   7.081   5.583   2.712  0.5648 -0.1851 -0.5746
21929SOL    HW167461   7.168   5.578   2.673  0.0115  0.4303 -1.9575
21929SOL    HW267462   7.023   5.608   2.639 -0.5435  0.8753  0.6205
21930SOL     OW67463   5.554   4.205   3.304 -0.5442  0.0803 -0.3352
21930SOL    HW167464   5.543   4.111   3.317 -0.3842 -0.2721 -2.5032
21930SOL    HW267465   5.480   4.230   3.248 -0.6678  1.2888  0.3342
21931SOL     OW67466   4.807   3.697   0.360 -0.4211 -0.0302  0.1038
21931SOL    HW167467   4.893   3.667   0.389 -0.0038 -0.1094 -1.1675
21931SOL    HW267468   4.825   3.760   0.290 -1.3407  2.0402  1.6381
21932SOL     OW67469   6.356   1.263   0.978  0.0808 -0.5485 -0.1831
21932SOL    HW167470   6.407   1.184   0.999  0.7098  0.0652  0.6824
21932SOL    HW267471   6.405   1.335   1.019 -0.6038  0.2668 -0.7616
21933SOL     OW67472   4.973   0.675   6.794  0.4392 -0.1965 -0.0748
21933SOL    HW167473   4.940   0.665   6.884  1.3958 -0.0170  0.3047
21933SOL    HW267474   4.894   0.670   6.740 -0.1684 -0.1930  0.7770
21934SOL     OW67475   6.450   8.703   7.254 -0.0561  0.1201 -0.2892
21934SOL    HW167476   6.394   8.780   7.249  0.7036  0.7471  0.5233
21934SOL    HW267477   6.506   8.719   7.330  1.0110 -0.6239 -0.8876
21935SOL     OW67478   6.860   0.780   5.797  0.1133  0.2737  0.2897
21935SOL    HW167479   6.784   0.831   5.770 -0.5211 -0.9929 -0.3497
21935SOL    HW267480   6.863   0.791   5.893 -0.5066  0.8047  0.2551
21936SOL     OW67481   0.713   6.225   7.720 -0.9635  0.0620 -0.2640
21936SOL    HW167482   0.764   6.207   7.641 -1.9155 -0.8069 -0.7130
21936SOL    HW267483   0.675   6.140   7.743 -1.2645  0.4558  0.7260
21937SOL     OW67484   2.407   7.619   0.435  0.2795  0.3678 -0.1026
21937SOL    HW167485   2.464   7.673   0.381  0.4268  0.9461  0.6155
21937SOL    HW267486   2.338   7.590   0.375  0.8728  0.3275 -0.7844
21938SOL     OW67487   0.135   3.510   2.872  0.2859  0.8012 -0.0320
21938SOL    HW167488   0.128   3.416   2.854  1.2818  0.7011  0.0530
21938SOL    HW267489   0.161   3.549   2.789  0.6333  0.9051  0.1264
21939SOL     OW67490   4.522   4.714   0.522 -0.3844 -0.3051 -0.0770
21939SOL    HW167491   4.473   4.669   0.452  0.4728 -0.1418 -0.8013
21939SOL    HW267492   4.481   4.800   0.527 -0.2688 -0.2168 -0.5794
21940SOL     OW67493   3.296   6.603   4.361 -0.7830 -0.1257 -0.6676
21940SOL    HW167494   3.322   6.627   4.449  0.2470  0.9769 -1.2519
21940SOL    HW267495   3.205   6.633   4.353 -0.5249  0.7629 -0.3431
21941SOL     OW67496   4.272   2.910   8.785  0.0224 -0.0823 -0.0307
21941SOL    HW167497   4.275   2.844   8.854 -0.7153  1.2327  1.3249
21941SOL    HW267498   4.297   2.992   8.829  0.7122  0.5925 -1.6026
21942SOL     OW67499   2.684   1.033   1.578 -0.4154 -0.3227 -0.2873
21942SOL    HW167500   2.744   0.982   1.524 -0.5234  1.4187 -2.1679
21942SOL    HW267501   2.730   1.115   1.595 -0.4434 -0.7353  2.2447
21943SOL     OW67502   6.734   9.555   3.112 -0.1637 -0.2449 -0.2051
21943SOL    HW167503   6.658   9.498   3.108  0.4934 -1.0607 -2.2118
21943SOL    HW267504   6.784   9.523   3.188 -0.5392 -1.3792 -0.4218
21944SOL     OW67505   4.499   8.394   2.455  0.4211 -0.3206 -0.2247
21944SOL    HW167506   4.413   8.354   2.469 -0.1478  0.7007 -0.6677
21944SOL    HW267507   4.508   8.399   2.360  0.5184  0.5037 -0.1816
21945SOL     OW67508   7.317   2.347   6.143 -0.4166  0.3006 -0.0458
21945SOL    HW167509   7.335   2.330   6.050 -0.4980 -1.2935  0.2081
21945SOL    HW267510   7.226   2.374   6.145 -0.0661  1.5899 -0.5581
21946SOL     OW67511   0.473   9.618   3.461  0.3638  0.7514 -0.0672
21946SOL    HW167512   0.384   9.629   3.427 -0.0752 -1.0252  0.3751
21946SOL    HW267513   0.476   9.672   3.539 -1.0085 -0.5881  0.9805
21947SOL     OW67514   8.699   9.099   0.169 -0.1261  0.1749 -0.0683
21947SOL    HW167515   8.693   9.061   0.257 -0.5960 -0.0026 -0.1761
21947SOL    HW267516   8.614   9.140   0.155 -0.4858 -0.8386 -0.9215
21948SOL     OW67517   7.182   7.876   8.612  0.3870  0.1361  0.3736
21948SOL    HW167518   7.191   7.797   8.559  0.7216  0.1844  0.3590
21948SOL    HW267519   7.261   7.927   8.593 -0.2070  0.8494 -0.2466
21949SOL     OW67520   4.125   5.997   7.052 -0.0890 -0.2049  0.5745
21949SOL    HW167521   4.098   5.909   7.024  0.4999 -0.2905  0.2565
21949SOL    HW267522   4.121   5.995   7.147  1.6948 -1.1761  0.6749
21950SOL     OW67523   9.424   2.587   0.763  0.2021 -0.2409  1.0083
21950SOL    HW167524   9.418   2.681   0.745 -1.9587 -0.2257  1.5046
21950SOL    HW267525   9.446   2.549   0.678  3.1160  0.7921  1.1807
21951SOL     OW67526   9.327   5.026   3.045 -0.7691 -0.4136 -0.1061
21951SOL    HW167527   9.250   5.024   2.989 -2.3968  0.5636  1.9633
21951SOL    HW267528   9.390   5.081   2.999 -1.9509  0.1625 -1.0646
21952SOL     OW67529   6.289   4.731   2.330 -0.0284 -0.2440 -0.1867
21952SOL    HW167530   6.232   4.796   2.287 -0.1387  0.5702  1.1422
21952SOL    HW267531   6.365   4.724   2.272  1.1713  2.9764  0.7944
21953SOL     OW67532   8.047   1.752   4.735 -0.0129  0.2924  0.0560
21953SOL    HW167533   8.029   1.797   4.818 -1.1717 -0.5851  0.3078
21953SOL    HW267534   7.968   1.700   4.719 -0.1773  1.1349 -2.0715
21954SOL     OW67535   7.455   6.158   2.281  0.4841  0.8136  0.0044
21954SOL    HW167536   7.539   6.157   2.327  0.6632  0.6607 -0.3120
21954SOL    HW267537   7.455   6.075   2.232 -0.6331 -0.0277  1.3777
21955SOL     OW67538   9.204   8.891   2.729  0.3572 -0.2417  0.3291
21955SOL    HW167539   9.197   8.798   2.751  0.7762 -0.3870 -0.1453
21955SOL    HW267540   9.239   8.892   2.640  0.5457  0.3728  0.4087
21956SOL     OW67541   7.140   5.296   1.097 -0.6924  0.1586 -0.0897
21956SOL    HW167542   7.116   5.296   1.189 -0.2792  0.4858  0.0213
21956SOL    HW267543   7.091   5.369   1.058  0.0199  0.7599  0.1150
21957SOL     OW67544   7.382   9.299   7.705  0.4596 -0.2240 -0.3179
21957SOL    HW167545   7.392   9.394   7.707 -0.4755  0.0957 -4.0951
21957SOL    HW267546   7.464   9.266   7.743  0.4613  2.0013  1.8521
21958SOL     OW67547   2.368   0.597   6.596 -0.0887  0.1268  0.5027
21958SOL    HW167548   2.344   0.660   6.663  0.1897 -0.1005  0.8233
21958SOL    HW267549   2.414   0.648   6.529 -0.0288  0.2921  0.6708
21959SOL     OW67550   4.161   5.555   9.407 -0.2464 -0.3033 -0.1481
21959SOL    HW167551   4.109   5.635   9.417 -0.7669 -0.7599  0.9776
21959SOL    HW267552   4.179   5.550   9.314 -0.6212  0.8739 -0.3038
21960SOL     OW67553   9.049   8.455   3.853  0.6040  0.2603 -0.9399
21960SOL    HW167554   8.979   8.506   3.810 -0.8862 -1.3203 -0.5048
21960SOL    HW267555   9.014   8.436   3.940  1.2952 -1.1230 -0.9423
21961SOL     OW67556   7.765   1.887   0.661 -0.3395  0.6088 -0.3729
21961SOL    HW167557   7.686   1.879   0.607  0.7579  1.5004 -2.2039
21961SOL    HW267558   7.751   1.967   0.712 -1.0258  0.2156  0.0777
21962SOL     OW67559   4.455   1.495   5.272 -0.0012 -0.5634  0.4417
21962SOL    HW167560   4.532   1.498   5.217 -0.7924  1.1159 -0.6778
21962SOL    HW267561   4.474   1.557   5.343  1.0510 -2.7822  2.2094
21963SOL     OW67562   9.384   8.281   5.807 -0.4921  0.1497  0.1476
21963SOL    HW167563   9.456   8.234   5.850 -0.5523 -0.7976 -0.7373
21963SOL    HW267564   9.319   8.213   5.790  0.0317  0.2006 -2.4998
21964SOL     OW67565   1.416   8.086   5.583  0.3981  0.0974  0.0733
21964SOL    HW167566   1.480   8.103   5.514 -0.1474  0.6449 -0.3131
21964SOL    HW267567   1.361   8.016   5.548 -0.5221  1.0847 -0.5012
21965SOL     OW67568   4.638   1.032   8.163 -0.1708 -0.0318 -0.0252
21965SOL    HW167569   4.595   1.075   8.237  0.2358  1.3922 -0.5906
21965SOL    HW267570   4.664   1.103   8.105  1.3928 -0.9818 -0.5495
21966SOL     OW67571   3.374   1.426   7.258  0.7209 -0.2882  0.0266
21966SOL    HW167572   3.346   1.378   7.335  0.5778 -0.1756  0.0447
21966SOL    HW267573   3.293   1.459   7.219  0.7982 -0.2789 -0.1275
21967SOL     OW67574   3.016   1.604   3.343 -0.4355 -0.0399 -0.3688
21967SOL    HW167575   3.045   1.606   3.434 -2.0953  1.8067  0.1878
21967SOL    HW267576   3.093   1.632   3.293  0.0277  0.5326  0.6250
21968SOL     OW67577   8.817   1.387   4.094  0.5472 -0.2024 -0.5147
21968SOL    HW167578   8.889   1.338   4.134 -0.4740 -0.9593  0.4365
21968SOL    HW267579   8.790   1.334   4.019 -1.5757 -1.9990  1.3911
21969SOL     OW67580   5.950   2.452   8.325  0.3249 -0.2269  0.1611
21969SOL    HW167581   5.977   2.390   8.257 -2.6394 -2.0313  0.4325
21969SOL    HW267582   5.862   2.479   8.299  0.0849  0.9518  2.0172
21970SOL     OW67583   3.421   0.332   7.393  0.2859 -0.6477  0.2065
21970SOL    HW167584   3.351   0.324   7.458 -0.2254 -0.8585 -0.3604
21970SOL    HW267585   3.497   0.294   7.436  0.6042  1.3963  1.6002
21971SOL     OW67586   8.372   5.684   9.388 -0.3528  0.1187  0.5479
21971SOL    HW167587   8.366   5.780   9.390  1.6667  0.2708  1.9623
21971SOL    HW267588   8.386   5.659   9.479  0.0225 -1.4736  0.0883
21972SOL     OW67589   3.634   7.557   6.122  0.2289 -0.1334 -0.5033
21972SOL    HW167590   3.546   7.518   6.116  0.1611  0.0009 -0.3672
21972SOL    HW267591   3.668   7.549   6.033 -0.7210  1.6859 -1.0818
21973SOL     OW67592   2.579   2.852   6.828 -0.1848 -0.1471  0.0259
21973SOL    HW167593   2.551   2.865   6.737 -1.6973  0.7817  0.5882
21973SOL    HW267594   2.518   2.787   6.863  0.5590 -0.7048  0.3197
21974SOL     OW67595   1.748   0.650   8.777  0.0291 -0.2692  0.2255
21974SOL    HW167596   1.713   0.707   8.709 -0.9116 -0.6496  0.3751
21974SOL    HW267597   1.836   0.683   8.794 -0.0412  0.3446 -0.5802
21975SOL     OW67598   3.869   9.260   6.519  0.6247 -0.6944  0.1050
21975SOL    HW167599   3.822   9.206   6.583 -1.7480  0.5351 -0.4554
21975SOL    HW267600   3.835   9.231   6.434 -1.0719  1.8331 -0.1903
21976SOL     OW67601   3.924   1.133   2.849  0.3100 -0.1465  0.1236
21976SOL    HW167602   3.856   1.151   2.784  0.2311  0.6100  0.4066
21976SOL    HW267603   3.975   1.061   2.811 -0.5122 -0.5787 -0.1919
21977SOL     OW67604   8.345   8.192   5.819 -0.3597 -0.7500  0.2323
21977SOL    HW167605   8.328   8.159   5.907  0.9430 -1.0246  0.3981
21977SOL    HW267606   8.385   8.278   5.833  1.9592 -1.7198  0.0361
21978SOL     OW67607   0.718   3.425   8.239 -0.4368 -0.3997 -0.3120
21978SOL    HW167608   0.654   3.482   8.197  0.4361  1.0552  0.2864
21978SOL    HW267609   0.680   3.406   8.325 -1.6981 -2.4706 -1.2596
21979SOL     OW67610   9.013   4.499   4.461  0.6013 -0.7146 -0.9227
21979SOL    HW167611   9.101   4.519   4.428  0.3174  2.5515 -0.0419
21979SOL    HW267612   9.018   4.516   4.555 -1.2306  0.8211 -1.0357
21980SOL     OW67613   5.372   8.819   8.852 -0.2501  0.4094 -0.4267
21980SOL    HW167614   5.412   8.733   8.863  1.9415  1.4397  0.3062
21980SOL    HW267615   5.435   8.868   8.799 -1.4499  1.5944 -0.8206
21981SOL     OW67616   4.212   3.499   2.015 -0.0262 -0.2080 -0.2759
21981SOL    HW167617   4.120   3.481   1.993 -0.1718 -0.2111  0.3055
21981SOL    HW267618   4.211   3.587   2.053  0.3265  0.0836 -0.9400
21982SOL     OW67619   3.956   5.179   9.007  0.0434 -0.1758  0.5216
21982SOL    HW167620   4.044   5.151   9.030 -0.3145 -0.0260  2.1845
21982SOL    HW267621   3.914   5.099   8.973  0.6520 -0.3596  0.1911
21983SOL     OW67622   4.596   1.791   2.990  0.1994  0.4864 -0.5922
21983SOL    HW167623   4.535   1.852   2.948  0.1897  1.0917  0.2785
21983SOL    HW267624   4.682   1.816   2.956  0.1614  0.7841 -0.4688
21984SOL     OW67625   4.758   1.516   7.722  0.2826  0.0040 -0.1688
21984SOL    HW167626   4.794   1.572   7.653  0.5236  0.1442  0.0681
21984SOL    HW267627   4.793   1.553   7.803  1.4834 -1.2476 -0.0915
21985SOL     OW67628   4.430   8.539   0.438 -0.0307 -1.1123  0.1821
21985SOL    HW167629   4.429   8.526   0.343 -0.6571 -0.6676  0.1208
21985SOL    HW267630   4.366   8.475   0.471  1.2413 -2.2807  0.4539
21986SOL     OW67631   7.382   2.374   0.110  0.2661  0.0645 -0.3470
21986SOL    HW167632   7.322   2.365   0.184  2.1198  1.7349  1.5228
21986SOL    HW267633   7.342   2.441   0.054  0.1682  0.9095  0.6992
21987SOL     OW67634   5.754   5.049   5.037 -0.1321  0.9343  0.4249
21987SOL    HW167635   5.745   4.969   5.090  0.0024  0.6262 -0.0143
21987SOL    HW267636   5.848   5.067   5.037 -0.0772  0.6674 -0.0911
21988SOL     OW67637   7.198   1.506   3.353  0.0116 -0.3526  0.3214
21988SOL    HW167638   7.191   1.415   3.379  0.1450 -0.5493 -0.3070
21988SOL    HW267639   7.130   1.551   3.403  0.9347 -0.5283  1.7725
21989SOL     OW67640   8.122   1.587   3.364 -0.7535  0.2011  0.8203
21989SOL    HW167641   8.058   1.575   3.294 -1.0163 -0.2587  1.1262
21989SOL    HW267642   8.151   1.498   3.385  0.6033  0.4453  0.1385
21990SOL     OW67643   8.600   7.514   1.284 -0.4279  0.0255  0.5712
21990SOL    HW167644   8.675   7.456   1.294 -0.9565 -0.9112 -0.5834
21990SOL    HW267645   8.557   7.513   1.369  0.2448 -0.3159  0.9112
21991SOL     OW67646   0.529   3.929   2.368  0.0660 -0.1429  0.2719
21991SOL    HW167647   0.556   4.021   2.378  1.5652 -0.5256  0.0034
21991SOL    HW267648   0.609   3.879   2.384 -0.4667 -1.3579 -0.7149
21992SOL     OW67649   3.919   7.945   1.474 -0.1764  0.6262  0.2757
21992SOL    HW167650   3.966   7.871   1.513 -1.9209 -0.8700 -0.3440
21992SOL    HW267651   3.968   7.966   1.395 -0.9241 -1.4453 -0.8041
21993SOL     OW67652   2.529   2.706   0.687 -0.0052 -1.0558 -0.5971
21993SOL    HW167653   2.442   2.732   0.656  0.4109 -0.4483 -1.2907
21993SOL    HW267654   2.576   2.680   0.607  0.5065 -1.2192 -0.2463
21994SOL     OW67655   6.901   0.728   2.166  0.2108 -0.1624 -0.5654
21994SOL    HW167656   6.898   0.704   2.073 -0.6931  0.3252 -0.6755
21994SOL    HW267657   6.932   0.649   2.210 -1.5486 -1.1794 -1.0527
21995SOL     OW67658   2.027   4.589   2.438 -0.4965 -0.5480  0.6903
21995SOL    HW167659   2.092   4.642   2.484  1.6648 -2.1629 -0.2760
21995SOL    HW267660   1.945   4.638   2.446  0.3242  0.5266  3.8619
21996SOL     OW67661   6.788   0.672   4.250  0.7944  0.4990 -0.4831
21996SOL    HW167662   6.868   0.627   4.223 -0.0041 -0.7344 -0.8684
21996SOL    HW267663   6.750   0.614   4.317 -0.2809  0.5658 -1.0248
21997SOL     OW67664   4.260   8.097   6.872  0.4016 -0.3030 -0.1658
21997SOL    HW167665   4.263   8.187   6.839 -0.7272 -0.6855 -1.4182
21997SOL    HW267666   4.352   8.073   6.883  0.9492 -0.2456 -3.5248
21998SOL     OW67667   8.765   4.831   3.243 -0.3076 -0.2933 -0.2399
21998SOL    HW167668   8.851   4.806   3.210  0.6876  1.3232  0.9786
21998SOL    HW267669   8.716   4.749   3.247  1.4638 -1.3926 -0.1264
21999SOL     OW67670   4.334   6.063   5.068 -0.0912 -0.2017  0.8033
21999SOL    HW167671   4.370   5.986   5.023  1.6082  0.7573  0.4395
21999SOL    HW267672   4.273   6.027   5.132  0.6270 -1.8576  0.6067
22000SOL     OW67673   1.559   5.006   8.816  0.1722  0.6047 -0.9999
22000SOL    HW167674   1.507   5.001   8.896  2.1327  0.5179  0.3421
22000SOL    HW267675   1.643   5.042   8.845  0.3298  2.3699 -3.3556
22001SOL     OW67676   7.393   8.192   6.205 -0.0050 -0.1696 -0.0998
22001SOL    HW167677   7.486   8.178   6.191  0.2997  0.4962  1.1264
22001SOL    HW267678   7.353   8.175   6.120  1.0754 -1.7159 -0.3382
22002SOL     OW67679   9.231   5.544   1.300  0.0997  0.2138 -0.0801
22002SOL    HW167680   9.199   5.582   1.219 -0.3751  0.4070  0.1946
22002SOL    HW267681   9.154   5.505   1.341  0.5128 -0.7210 -0.1804
22003SOL     OW67682   1.425   4.932   3.037  0.5124 -0.3966  0.3092
22003SOL    HW167683   1.495   4.950   2.975 -0.2410 -0.5026 -0.5832
22003SOL    HW267684   1.440   4.841   3.064  1.6304  0.0577  1.3480
22004SOL     OW67685   0.107   0.468   6.854  0.2112 -0.1943 -0.2174
22004SOL    HW167686   0.025   0.420   6.842  0.3739 -0.5711  0.1833
22004SOL    HW267687   0.086   0.534   6.920  0.2495 -0.3247 -0.0766
22005SOL     OW67688   4.577   8.611   4.087 -0.1616  0.1189  0.0029
22005SOL    HW167689   4.653   8.647   4.040 -1.4398  2.2162 -0.5796
22005SOL    HW267690   4.532   8.557   4.022  1.2000 -1.8296  0.5834
22006SOL     OW67691   7.430   2.675   7.211 -0.0660 -0.0195  0.2034
22006SOL    HW167692   7.488   2.617   7.261  0.5226  0.4024  0.0252
22006SOL    HW267693   7.483   2.702   7.136 -0.6688 -0.0114 -0.2259
22007SOL     OW67694   4.669   5.116   1.881  0.1412  0.1774 -0.2691
22007SOL    HW167695   4.618   5.059   1.938 -0.5293  0.5632 -0.4752
22007SOL    HW267696   4.608   5.184   1.853  0.8320  0.8070 -0.3059
22008SOL     OW67697   9.659   6.348   3.651  0.4256 -0.2495 -0.4944
22008SOL    HW167698   9.682   6.339   3.558 -1.9134  0.2582 -1.1880
22008SOL    HW267699   9.664   6.442   3.669 -1.7766  0.0044 -0.9286
22009SOL     OW67700   5.512   4.195   3.677 -0.3104  0.2353  0.9170
22009SOL    HW167701   5.599   4.187   3.637 -0.7107  0.9548 -0.1345
22009SOL    HW267702   5.504   4.287   3.700 -0.4888  0.0185  1.7733
22010SOL     OW67703   6.501   2.502   5.179 -0.5145 -0.0755  0.2277
22010SOL    HW167704   6.445   2.431   5.211  0.4174 -0.4137  1.1533
22010SOL    HW267705   6.498   2.492   5.084 -1.8712 -0.1902  0.2510
22011SOL     OW67706   3.025   6.136   7.253  0.0568  0.1328 -0.2491
22011SOL    HW167707   2.948   6.131   7.196  0.2682  1.1090 -0.6161
22011SOL    HW267708   2.990   6.167   7.337  0.0822  0.8280 -0.4910
22012SOL     OW67709   5.743   7.839   2.613 -0.2990 -0.2154  0.3822
22012SOL    HW167710   5.658   7.848   2.569  0.3522  0.5174 -0.7842
22012SOL    HW267711   5.800   7.901   2.567  0.8613 -0.6772  1.1641
22013SOL     OW67712   4.452   7.484   9.617 -0.4008  0.2062  0.2230
22013SOL    HW167713   4.470   7.417   9.551 -0.9034  0.2041  0.0808
22013SOL    HW267714   4.478   7.444   9.699 -1.4971 -0.5118  0.2511
22014SOL     OW67715   2.396   0.768   5.880 -0.2127 -0.8566  0.0691
22014SOL    HW167716   2.426   0.843   5.931  0.3933 -1.0469  0.0049
22014SOL    HW267717   2.374   0.804   5.794  2.2604 -1.0612 -0.7186
22015SOL     OW67718   1.730   8.351   1.063  0.3912  0.0032  0.2651
22015SOL    HW167719   1.760   8.306   0.984  0.7675  1.4736 -0.4780
22015SOL    HW267720   1.697   8.435   1.031  0.6080  0.6508  1.6866
22016SOL     OW67721   1.701   5.311   7.894  1.1053  0.0383 -1.1576
22016SOL    HW167722   1.720   5.219   7.876  3.0432 -0.2362  1.6251
22016SOL    HW267723   1.606   5.314   7.906  1.0317 -1.6685 -1.0922
22017SOL     OW67724   6.880   5.107   1.063 -0.4538  0.2774 -0.2341
22017SOL    HW167725   6.842   5.045   1.125 -0.1766  1.0488  0.7199
22017SOL    HW267726   6.974   5.087   1.064 -0.1121  1.7506  1.3240
22018SOL     OW67727   1.036   5.906   4.178  0.5954  0.1072 -0.1864
22018SOL    HW167728   1.120   5.870   4.206  0.6762  0.1642 -0.3507
22018SOL    HW267729   0.994   5.936   4.258  0.5301 -0.3475 -0.0488
22019SOL     OW67730   7.664   8.951   1.707  0.0458 -0.2244 -0.1570
22019SOL    HW167731   7.624   8.893   1.772 -1.4075  1.4845  0.5733
22019SOL    HW267732   7.675   9.034   1.753  0.7614  0.4816 -1.5554
22020SOL     OW67733   9.507   2.546   8.464  0.1421 -0.7397 -0.5673
22020SOL    HW167734   9.415   2.564   8.485  0.0060 -0.1787 -1.5870
22020SOL    HW267735   9.554   2.565   8.545 -0.3928  1.1508 -0.6368
22021SOL     OW67736   4.998   5.176   4.584 -0.4683 -0.1942  0.4030
22021SOL    HW167737   5.092   5.157   4.594 -0.8617 -1.4592  2.1867
22021SOL    HW267738   4.991   5.212   4.496  1.5948 -0.7359 -0.0590
22022SOL     OW67739   6.732   7.639   8.534  0.3822 -0.5659  0.8792
22022SOL    HW167740   6.713   7.556   8.577  0.6135 -1.5451 -0.8379
22022SOL    HW267741   6.827   7.641   8.527  0.3130 -0.8296 -0.3201
22023SOL     OW67742   3.190   9.420   7.466 -0.3149  0.2507  0.1569
22023SOL    HW167743   3.268   9.365   7.468 -1.0123 -0.7465  0.4772
22023SOL    HW267744   3.127   9.371   7.414 -0.1282  1.9157 -1.7666
22024SOL     OW67745   4.503   4.553   7.925 -0.4280  0.2292  0.2641
22024SOL    HW167746   4.447   4.543   8.001 -0.3951  0.5618  0.3356
22024SOL    HW267747   4.590   4.527   7.955 -0.4138  0.3675  0.3418
22025SOL     OW67748   4.070   5.871   2.639  0.0851 -0.4593 -0.4281
22025SOL    HW167749   4.000   5.935   2.656  1.1687  0.5278  0.5952
22025SOL    HW267750   4.054   5.801   2.702  0.6359  0.3264  0.6380
22026SOL     OW67751   1.424   1.354   5.076 -0.2031  0.0795 -0.4796
22026SOL    HW167752   1.350   1.295   5.059 -0.6026  0.7579 -1.1693
22026SOL    HW267753   1.389   1.423   5.132  0.3541 -0.5018  0.6236
22027SOL     OW67754   9.193   6.936   8.358 -0.1579  0.3135 -0.5173
22027SOL    HW167755   9.120   6.981   8.314 -0.5973 -0.0410 -0.1674
22027SOL    HW267756   9.253   7.007   8.382 -1.0632  0.7913  0.4464
22028SOL     OW67757   3.275   5.573   4.410 -0.1167  0.2573  0.1065
22028SOL    HW167758   3.207   5.641   4.417 -0.8156 -0.1659 -1.9715
22028SOL    HW267759   3.343   5.613   4.355 -0.3073 -0.5373 -0.7177
22029SOL     OW67760   6.026   7.124   2.841 -0.5161 -0.5477 -0.2690
22029SOL    HW167761   6.075   7.099   2.763  0.4824 -1.7629  0.6992
22029SOL    HW267762   6.092   7.125   2.911 -1.4526  0.1419  0.6207
22030SOL     OW67763   2.517   8.738   6.497  0.8167  0.6017 -0.2773
22030SOL    HW167764   2.520   8.778   6.584  1.4033  1.5760 -0.7338
22030SOL    HW267765   2.456   8.665   6.507  3.2179 -1.3449  1.8068
22031SOL     OW67766   3.031   8.212   0.001 -0.1129  0.5477 -0.0235
22031SOL    HW167767   3.049   8.205  -0.093  0.8122 -1.0877  0.2219
22031SOL    HW267768   2.967   8.282   0.009  0.6809  1.5189 -1.7510
22032SOL     OW67769   5.959   7.827   6.647 -0.2508 -0.0567  0.5300
22032SOL    HW167770   5.918   7.890   6.588 -0.4063  0.9623  1.6811
22032SOL    HW267771   6.053   7.834   6.629 -0.3158  0.0735  0.2418
22033SOL     OW67772   9.480   4.782   1.993 -0.0373 -0.1930 -0.0209
22033SOL    HW167773   9.520   4.844   2.053  1.7355 -0.8779 -0.4213
22033SOL    HW267774   9.465   4.832   1.913 -0.5335  0.2287  0.3399
22034SOL     OW67775   6.822   5.919   2.147 -0.5231  0.2821 -0.2683
22034SOL    HW167776   6.908   5.960   2.138 -1.7034  2.8859 -0.6078
22034SOL    HW267777   6.787   5.916   2.058 -1.5238  1.0177  0.0867
22035SOL     OW67778   3.125   9.061   7.298  0.0520 -0.1110 -0.0198
22035SOL    HW167779   3.166   9.071   7.212 -0.3015 -0.0110 -0.1814
22035SOL    HW267780   3.100   8.968   7.302  1.2662 -0.4376  0.5319
22036SOL     OW67781   9.206   4.604   3.448 -0.4224  0.1846 -0.2721
22036SOL    HW167782   9.111   4.612   3.445 -0.5707  0.0504  2.1630
22036SOL    HW267783   9.221   4.520   3.491  0.8173  0.1629 -0.7135
22037SOL     OW67784   3.765   7.596   0.480 -0.6022 -0.2298  0.5674
22037SOL    HW167785   3.772   7.598   0.384 -1.0482  0.1614  0.5376
22037SOL    HW267786   3.674   7.570   0.496 -0.7174  0.3708  0.8825
22038SOL     OW67787   1.592   8.813   4.245  0.0487 -0.1689 -0.2162
22038SOL    HW167788   1.506   8.855   4.243  0.3820  0.5537  0.4093
22038SOL    HW267789   1.609   8.795   4.337  1.0636  0.7477 -0.2049
22039SOL     OW67790   3.761   2.472   4.215  0.1810  0.6957 -0.3485
22039SOL    HW167791   3.809   2.411   4.271 -0.9691 -1.2477 -1.3970
22039SOL    HW267792   3.766   2.435   4.127 -1.9036  1.2222 -0.7590
22040SOL     OW67793   2.673   6.014   0.156  0.6461  0.7647 -0.4334
22040SOL    HW167794   2.652   5.963   0.234  0.5934  0.0469 -0.9088
22040SOL    HW267795   2.755   5.976   0.125  1.0419  1.5167 -0.3356
22041SOL     OW67796   9.472   8.004   3.337 -0.4071  0.1014  1.0568
22041SOL    HW167797   9.520   7.929   3.370  1.1984  0.7361  0.2695
22041SOL    HW267798   9.382   7.992   3.369 -0.0612 -1.8503  1.3748
22042SOL     OW67799   3.160   3.653   4.143  0.0427 -0.4527 -0.7151
22042SOL    HW167800   3.208   3.734   4.124  2.1620 -0.4759  3.4355
22042SOL    HW267801   3.069   3.674   4.121  0.7438  2.5192 -1.2401
22043SOL     OW67802   7.128   1.623   8.532  0.3447  0.1644  0.2145
22043SOL    HW167803   7.070   1.548   8.539 -1.6009  1.5027 -0.5512
22043SOL    HW267804   7.214   1.586   8.514 -0.6468 -1.8502 -0.6723
22044SOL     OW67805   8.224   8.338   2.418  0.6994  0.5278  0.1331
22044SOL    HW167806   8.257   8.264   2.368 -1.0625  0.7212 -1.4724
22044SOL    HW267807   8.227   8.310   2.509  1.8108 -0.7765 -0.2799
22045SOL     OW67808   7.280   1.841   0.976  0.2791  0.2530  0.5505
22045SOL    HW167809   7.361   1.801   1.007 -0.5112 -1.5353  0.4187
22045SOL    HW267810   7.249   1.893   1.050  0.8314 -0.1980  1.1039
22046SOL     OW67811   5.856   1.666   0.668  0.2530 -0.4112  0.3244
22046SOL    HW167812   5.815   1.727   0.730  0.6282  1.5030 -1.2009
22046SOL    HW267813   5.783   1.615   0.633 -0.2598  0.0123  0.7562
22047SOL     OW67814   0.624   0.368   7.978  0.5374  0.1444 -0.4282
22047SOL    HW167815   0.577   0.451   7.972  1.9316  1.1138  1.1263
22047SOL    HW267816   0.712   0.388   7.947  0.8964 -0.7623 -0.0278
22048SOL     OW67817   0.711   2.402   1.456  0.0968 -0.4155 -0.1243
22048SOL    HW167818   0.693   2.449   1.375  1.9949 -0.8798 -0.8629
22048SOL    HW267819   0.666   2.454   1.524 -1.6926 -0.1373 -1.4383
22049SOL     OW67820   9.262   5.602   3.753 -0.4383  0.0234 -0.9286
22049SOL    HW167821   9.186   5.562   3.796  0.4301  0.2891  0.9420
22049SOL    HW267822   9.238   5.694   3.745 -0.6016 -0.0243 -0.9930
22050SOL     OW67823   8.825   5.122   2.628 -0.0836 -0.0843 -0.1024
22050SOL    HW167824   8.741   5.122   2.582 -0.0204  1.3601 -0.2762
22050SOL    HW267825   8.866   5.039   2.604 -1.1785 -0.5211 -0.5300
22051SOL     OW67826   3.052   0.286   6.019 -0.4478  0.6543 -0.0191
22051SOL    HW167827   3.040   0.262   6.111 -0.3342  1.6228  0.2617
22051SOL    HW267828   3.116   0.223   5.986 -1.0033 -0.1334  0.3719
22052SOL     OW67829   5.658   2.480   6.983 -0.7525  0.3590 -0.1428
22052SOL    HW167830   5.738   2.506   6.938  0.1726 -1.4178  0.3846
22052SOL    HW267831   5.588   2.529   6.939  0.3056  0.0130 -2.3475
22053SOL     OW67832   5.664   2.617   5.789  0.6000 -0.2964  0.2985
22053SOL    HW167833   5.702   2.692   5.834  0.3030 -0.7002  1.2728
22053SOL    HW267834   5.702   2.541   5.834 -1.2104 -0.7119  1.2488
22054SOL     OW67835   3.926   6.867   9.139  0.4370 -0.5301 -0.1642
22054SOL    HW167836   3.994   6.913   9.089  0.6621  1.3800  1.7210
22054SOL    HW267837   3.846   6.880   9.089  1.3122 -2.3531 -2.1534
22055SOL     OW67838   3.765   0.488   7.148  0.2977 -0.0893  0.5610
22055SOL    HW167839   3.692   0.479   7.210  1.1197  1.0518  1.7435
22055SOL    HW267840   3.812   0.566   7.177 -0.2138  1.5101 -2.5144
22056SOL     OW67841   0.768   3.892   7.122 -0.3148  0.2315  0.1073
22056SOL    HW167842   0.790   3.822   7.183  0.8184 -0.6452 -1.2194
22056SOL    HW267843   0.672   3.891   7.118 -0.3944  0.1227  1.6237
22057SOL     OW67844   0.037   8.878   5.867 -0.3816  0.6681 -0.2674
22057SOL    HW167845   0.027   8.971   5.850  1.5810  0.8885 -0.4211
22057SOL    HW267846   0.096   8.873   5.942 -1.6873 -0.4475  0.7462
22058SOL     OW67847   2.491   7.272   0.861 -0.2753  0.0732 -0.0258
22058SOL    HW167848   2.554   7.327   0.907 -0.6450  0.7371 -0.2949
22058SOL    HW267849   2.511   7.285   0.768 -0.3175 -0.3095 -0.0900
22059SOL     OW67850   3.707   2.827   7.900  0.3259 -0.6583 -0.0796
22059SOL    HW167851   3.662   2.883   7.837  0.2476 -0.1447  0.4255
22059SOL    HW267852   3.641   2.810   7.968  0.0117 -2.2198 -0.7265
22060SOL     OW67853   7.579   8.373   7.570 -0.0615 -0.2503 -0.3297
22060SOL    HW167854   7.657   8.424   7.546 -1.4497  1.7321 -0.9207
22060SOL    HW267855   7.552   8.330   7.490 -1.1833  1.4397 -0.9291
22061SOL     OW67856   0.267   7.693   1.183  0.3352  0.1277  0.7672
22061SOL    HW167857   0.186   7.673   1.137  0.8492 -0.6339  0.1676
22061SOL    HW267858   0.304   7.607   1.207  1.2617  0.4332  0.4922
22062SOL     OW67859   0.364   0.528   1.962  0.2436 -0.0837  0.5326
22062SOL    HW167860   0.359   0.522   1.866  0.1388  0.8731  0.4690
22062SOL    HW267861   0.344   0.439   1.992  0.1059 -0.3577 -0.3277
22063SOL     OW67862   0.607   6.542   8.117 -0.1404  0.2018 -0.1824
22063SOL    HW167863   0.696   6.571   8.097 -0.1686  1.1615  0.9988
22063SOL    HW267864   0.551   6.605   8.071 -0.2024  0.5768  0.4010
22064SOL     OW67865   6.691   3.901   3.632 -0.0982  0.2877 -0.4205
22064SOL    HW167866   6.785   3.883   3.628 -0.0987 -0.0083  0.7401
22064SOL    HW267867   6.666   3.881   3.722 -0.8961  2.2755 -0.1425
22065SOL     OW67868   2.999   4.089   7.212 -0.0126 -0.3453  0.4399
22065SOL    HW167869   3.002   4.002   7.252  0.5492 -0.4293  0.2267
22065SOL    HW267870   3.067   4.138   7.258 -0.6709  0.1437  0.9168
22066SOL     OW67871   9.049   0.774   6.179 -0.5310 -0.2705 -0.3361
22066SOL    HW167872   9.100   0.694   6.168 -0.2593 -0.5384  2.1608
22066SOL    HW267873   8.967   0.745   6.218 -0.9639  0.5501 -0.6094
22067SOL     OW67874   3.621   3.155   9.191 -0.0576 -0.3248 -0.0870
22067SOL    HW167875   3.653   3.123   9.275  0.1182  0.6286  0.2224
22067SOL    HW267876   3.563   3.085   9.159 -0.1123 -0.7074  0.8092
22068SOL     OW67877   6.927   2.444   0.402  0.0126  0.1531 -0.2768
22068SOL    HW167878   6.839   2.407   0.395  0.0050 -0.0542  0.7510
22068SOL    HW267879   6.939   2.494   0.321 -1.5726  1.2852  0.1352
22069SOL     OW67880   5.370   0.426   9.553  0.1722  0.0625  0.3591
22069SOL    HW167881   5.394   0.348   9.503 -0.2547  0.8393 -1.1297
22069SOL    HW267882   5.376   0.398   9.645  0.5144 -1.5599 -0.1112
22070SOL     OW67883   6.930   7.057   7.917  0.6885 -0.4857 -0.4954
22070SOL    HW167884   6.914   7.121   7.986  2.1132 -0.0546 -0.5314
22070SOL    HW267885   6.943   6.975   7.963  1.6344 -0.2006 -0.2352
22071SOL     OW67886   7.542   7.698   4.805 -0.3828  0.2270 -0.0388
22071SOL    HW167887   7.594   7.681   4.727  0.2600  0.2072  0.3911
22071SOL    HW267888   7.472   7.756   4.775 -0.7061 -0.5501 -0.8355
22072SOL     OW67889   1.754   6.916   7.355 -0.3268 -0.2867  0.9081
22072SOL    HW167890   1.658   6.917   7.363 -0.6075 -1.8698 -1.3252
22072SOL    HW267891   1.776   6.998   7.312 -0.9750 -0.8960 -0.6520
22073SOL     OW67892   9.110   5.740   1.875  0.0168 -0.2782 -0.8255
22073SOL    HW167893   9.165   5.711   1.803  0.6606  0.6072 -0.7073
22073SOL    HW267894   9.126   5.676   1.945  1.1528  0.1450 -0.6805
22074SOL     OW67895   3.748   2.432   5.151  0.0127 -0.2471 -0.2137
22074SOL    HW167896   3.656   2.456   5.153 -0.3007 -1.3868 -0.3090
22074SOL    HW267897   3.778   2.447   5.241 -0.6292 -1.2019  0.1724
22075SOL     OW67898   9.456   0.987   4.065  0.0469  0.3862  0.3659
22075SOL    HW167899   9.387   0.930   4.098  1.8143 -0.9272  2.0448
22075SOL    HW267900   9.514   1.000   4.140  1.6747  1.3704 -0.9826
22076SOL     OW67901   5.907   3.854   3.670 -0.0131 -0.1513 -0.1414
22076SOL    HW167902   5.884   3.941   3.636 -1.2946  0.1954  1.4722
22076SOL    HW267903   5.964   3.816   3.603 -0.6026  1.3538 -1.5650
22077SOL     OW67904   3.500   4.412   2.594 -0.0251  0.1077 -0.1007
22077SOL    HW167905   3.512   4.381   2.684 -2.1009 -1.4196 -0.2849
22077SOL    HW267906   3.541   4.344   2.540 -0.7117 -0.0929 -0.3726
22078SOL     OW67907   2.379   6.582   2.306 -0.0221  0.3616  0.4341
22078SOL    HW167908   2.323   6.647   2.263 -1.7947  0.3154  2.5018
22078SOL    HW267909   2.318   6.525   2.354  1.7036 -0.6494  1.5378
22079SOL     OW67910   0.395   9.198   6.868 -0.3204  0.1276  0.4561
22079SOL    HW167911   0.441   9.281   6.878  0.5178 -0.4928  1.9249
22079SOL    HW267912   0.328   9.199   6.936 -1.7766  0.5163 -0.9225
22080SOL     OW67913   5.446   4.760   8.298  0.0857 -0.3527 -0.3871
22080SOL    HW167914   5.353   4.764   8.321  0.2684 -2.2398  0.9490
22080SOL    HW267915   5.465   4.846   8.259 -2.3618 -0.1814 -1.3989
22081SOL     OW67916   7.824   1.544   3.603  0.1413 -0.5643  0.0646
22081SOL    HW167917   7.738   1.523   3.640  0.3476 -0.5812  0.5442
22081SOL    HW267918   7.833   1.486   3.528 -0.2831 -0.5351 -0.0087
22082SOL     OW67919   0.017   2.442   2.247  0.3829 -0.3452 -0.0357
22082SOL    HW167920   0.108   2.425   2.274  0.6360 -0.0661 -0.6919
22082SOL    HW267921   0.016   2.535   2.226  0.1155 -0.4968 -0.6996
22083SOL     OW67922   0.139   8.803   6.838  0.0017 -0.0324  0.3798
22083SOL    HW167923   0.217   8.767   6.797  0.1266  1.9031 -1.2480
22083SOL    HW267924   0.151   8.787   6.932  1.9562 -0.4782  0.0891
22084SOL     OW67925   5.898   9.270   2.799  0.1183  0.2954 -0.1363
22084SOL    HW167926   5.944   9.320   2.866  1.5141 -0.1873 -0.7076
22084SOL    HW267927   5.831   9.222   2.847  1.3309 -0.3335  0.9780
22085SOL     OW67928   7.260   7.938   5.699  0.0869  0.2015 -0.2104
22085SOL    HW167929   7.266   7.856   5.749  0.4026 -1.5715 -2.9787
22085SOL    HW267930   7.345   7.981   5.715  1.7115 -2.0931 -1.9459
22086SOL     OW67931   4.216   2.497   5.956  0.3772 -0.2031 -0.7646
22086SOL    HW167932   4.301   2.518   5.918  1.2048 -2.3092 -0.2193
22086SOL    HW267933   4.232   2.484   6.049 -0.4681 -0.9115 -0.6946
22087SOL     OW67934   4.950   7.183   6.947 -0.2828 -0.4672 -0.8542
22087SOL    HW167935   4.926   7.129   7.022  0.0804 -0.4287 -0.7089
22087SOL    HW267936   4.967   7.120   6.876  0.0027 -0.5388 -0.7238
22088SOL     OW67937   8.538   5.838   4.751 -0.2035  0.3893 -0.2953
22088SOL    HW167938   8.535   5.755   4.703 -1.1625  0.2940 -0.0994
22088SOL    HW267939   8.602   5.823   4.821  3.6095  1.5014 -3.1952
22089SOL     OW67940   6.989   1.397   8.597 -0.2721 -0.0060 -0.2040
22089SOL    HW167941   7.038   1.375   8.676  0.6390 -0.2100 -0.8069
22089SOL    HW267942   6.922   1.329   8.590  0.4482 -0.7211 -0.2807
22090SOL     OW67943   8.548   6.799   0.144  0.2293  1.0399  0.1107
22090SOL    HW167944   8.553   6.845   0.228 -0.8107  1.6775 -0.1662
22090SOL    HW267945   8.601   6.853   0.085  1.9976 -0.0514  0.5947
22091SOL     OW67946   7.158   6.784   2.639  0.0470  0.4376  0.3092
22091SOL    HW167947   7.097   6.772   2.566  0.4798  1.6683 -0.2740
22091SOL    HW267948   7.122   6.857   2.690  1.9591  2.4920 -1.1081
22092SOL     OW67949   7.527   0.110   8.146 -0.0122  0.0654 -0.2221
22092SOL    HW167950   7.436   0.136   8.160 -0.6880 -2.4834  0.6897
22092SOL    HW267951   7.567   0.116   8.233  0.8520  1.5127 -0.6782
22093SOL     OW67952   2.833   9.639   3.848 -0.3782 -0.0654  0.3872
22093SOL    HW167953   2.758   9.615   3.795  0.1321 -0.6455 -0.0784
22093SOL    HW267954   2.906   9.588   3.813  0.4402  1.1378  0.2549
22094SOL     OW67955   7.752   7.312   9.592 -0.6226  0.4773 -0.0708
22094SOL    HW167956   7.818   7.368   9.633 -0.1334 -0.3052  0.2252
22094SOL    HW267957   7.801   7.237   9.560 -1.0307  0.9640 -1.9331
22095SOL     OW67958   8.882   9.439   6.076 -0.0125  0.2663  0.2906
22095SOL    HW167959   8.928   9.510   6.032 -2.3722  0.8861 -1.3746
22095SOL    HW267960   8.816   9.482   6.130 -1.6101 -0.5813 -0.8898
22096SOL     OW67961   3.122   2.702   6.913  0.1778 -0.2081  0.0100
22096SOL    HW167962   3.200   2.754   6.896  0.7802 -0.7349  1.0753
22096SOL    HW267963   3.081   2.692   6.828  0.7260  0.9402 -0.4038
22097SOL     OW67964   4.834   9.536   3.600 -0.1892  0.6205  0.4958
22097SOL    HW167965   4.752   9.552   3.554 -0.4586  1.3452  1.2075
22097SOL    HW267966   4.808   9.518   3.690  0.4219  0.8422  0.7242
22098SOL     OW67967   8.909   5.450   3.513 -0.6658 -0.1567 -0.1027
22098SOL    HW167968   8.864   5.423   3.433 -2.8129 -0.7347  1.2404
22098SOL    HW267969   8.879   5.389   3.580  0.6834  0.6298  1.2917
22099SOL     OW67970   6.327   3.392   5.770  0.3934 -0.2433  0.0225
22099SOL    HW167971   6.346   3.337   5.846 -1.8318 -2.0038 -0.5971
22099SOL    HW267972   6.292   3.331   5.705 -0.9458  1.7313 -1.1838
22100SOL     OW67973   3.227   9.281   2.961  0.4037  0.3187  0.1772
22100SOL    HW167974   3.228   9.269   3.056  0.4943  1.3411  0.3157
22100SOL    HW267975   3.149   9.335   2.945  0.3629  0.1099 -0.3376
22101SOL     OW67976   6.813   6.539   1.029  0.2261 -0.5900 -0.4138
22101SOL    HW167977   6.890   6.484   1.041 -0.2423 -1.1893 -0.0817
22101SOL    HW267978   6.848   6.626   1.007  1.0416 -0.4727  1.1604
22102SOL     OW67979   6.609   9.425   1.202 -0.8111 -0.1459 -0.0875
22102SOL    HW167980   6.616   9.402   1.110 -0.1305  0.6006 -0.2352
22102SOL    HW267981   6.583   9.517   1.201  0.2891  0.1908  0.4469
22103SOL     OW67982   6.047   5.867   0.236 -0.1871 -0.4102  0.1571
22103SOL    HW167983   5.970   5.924   0.234  2.2520  3.2741  1.0040
22103SOL    HW267984   6.057   5.843   0.328  0.0222 -0.3683  0.1450
22104SOL     OW67985   6.403   8.808   3.601  0.0760  0.4025 -0.2357
22104SOL    HW167986   6.496   8.801   3.582  0.4490  1.0169  1.2413
22104SOL    HW267987   6.396   8.879   3.665 -1.5464  1.1985 -1.2390
22105SOL     OW67988   8.289   7.392   3.244  0.5281  0.1949 -0.5513
22105SOL    HW167989   8.261   7.483   3.230  1.0652  0.5417  0.4950
22105SOL    HW267990   8.243   7.366   3.325 -0.5645 -0.8830 -1.4759
22106SOL     OW67991   2.902   8.853   8.327 -0.1537  0.1739  0.4505
22106SOL    HW167992   2.885   8.926   8.267  0.4389  0.0466  0.1196
22106SOL    HW267993   2.817   8.812   8.339 -0.4397  0.7467  0.4049
22107SOL     OW67994   0.440   6.114   7.365 -0.2455  0.1606 -0.2469
22107SOL    HW167995   0.469   6.096   7.275 -0.1788  0.1456 -0.2227
22107SOL    HW267996   0.462   6.034   7.414  0.1864  0.3637 -0.1067
22108SOL     OW67997   5.014   8.131   1.849  0.6382 -0.3335 -0.3023
22108SOL    HW167998   4.928   8.159   1.881  0.5283 -1.6129  0.5733
22108SOL    HW267999   5.011   8.036   1.850  1.6704 -0.4045 -1.3927
22109SOL     OW68000   6.734   6.093   6.026  0.3539 -0.3929 -0.4445
22109SOL    HW168001   6.698   6.182   6.024  1.6006  0.1335 -0.1091
22109SOL    HW268002   6.689   6.047   5.954 -0.4544  0.4316 -0.4835
22110SOL     OW68003   6.986   7.135   5.967  0.4302 -0.3903  0.1543
22110SOL    HW168004   6.925   7.180   5.908 -0.0941 -1.2295  0.0473
22110SOL    HW268005   6.932   7.070   6.012  1.8642 -3.8968 -2.7299
22111SOL     OW68006   4.721   0.972   6.731  0.1769  0.4250  0.0486
22111SOL    HW168007   4.661   0.970   6.657 -0.5462  2.0282  0.5361
22111SOL    HW268008   4.694   0.899   6.787  0.8367 -0.8998 -1.3054
22112SOL     OW68009   5.163   4.572   4.219 -0.0767  0.0775 -0.0962
22112SOL    HW168010   5.087   4.520   4.191 -0.5567  0.8551 -0.2490
22112SOL    HW268011   5.141   4.599   4.308 -1.2135  2.5386 -1.0448
22113SOL     OW68012   5.558   7.717   1.670 -0.0803  0.1484 -0.7033
22113SOL    HW168013   5.485   7.758   1.623 -1.0662  1.2911  1.6424
22113SOL    HW268014   5.634   7.770   1.647 -0.6908  1.1676 -0.4526
22114SOL     OW68015   8.666   7.807   9.081  0.0810  0.4140 -0.1424
22114SOL    HW168016   8.721   7.731   9.062 -1.2195 -0.2338 -1.5029
22114SOL    HW268017   8.580   7.783   9.048 -1.3325  0.9706  2.8346
22115SOL     OW68018   6.990   2.469   1.550  0.5046  0.1437  0.4163
22115SOL    HW168019   6.928   2.424   1.607 -1.0115  1.7209  0.0667
22115SOL    HW268020   7.060   2.499   1.608  0.4653 -0.7925  0.9633
22116SOL     OW68021   5.432   4.921   0.469 -0.2911 -0.3720  0.9731
22116SOL    HW168022   5.391   4.940   0.554 -3.4954  0.3929 -0.5582
22116SOL    HW268023   5.482   5.000   0.448 -2.3585  0.9347  0.6893
22117SOL     OW68024   3.918   0.055   8.542  0.6012 -0.9261  0.5284
22117SOL    HW168025   3.852  -0.013   8.528  0.6412 -1.0480  0.9195
22117SOL    HW268026   4.001   0.008   8.548  0.7520 -0.7552 -0.1544
22118SOL     OW68027   0.378   4.485   2.424  0.2036 -0.2499  0.9381
22118SOL    HW168028   0.444   4.497   2.492  0.5765  1.2680  0.3352
22118SOL    HW268029   0.393   4.557   2.362 -0.1935 -1.5215 -0.7108
22119SOL     OW68030   4.059   5.997   5.950 -0.1804  0.4749  0.3712
22119SOL    HW168031   4.089   6.022   5.863  0.2925  0.1352  0.4329
22119SOL    HW268032   4.125   6.032   6.010 -0.5108  0.7219  0.5981
22120SOL     OW68033   8.107   0.131   4.507  0.3696  0.3812  0.1971
22120SOL    HW168034   8.187   0.096   4.468 -0.9129 -1.9080 -0.6046
22120SOL    HW268035   8.056   0.163   4.432 -0.0077  0.6283  0.5548
22121SOL     OW68036   5.077   1.441   7.730 -0.5085 -0.2642 -0.3535
22121SOL    HW168037   5.065   1.371   7.794  0.2028 -2.1392 -2.1560
22121SOL    HW268038   5.043   1.405   7.648  1.6809  0.7223 -1.7894
22122SOL     OW68039   2.190   7.594   0.245 -0.2034  0.0113  0.6431
22122SOL    HW168040   2.146   7.664   0.294  0.2439  0.8435 -0.1205
22122SOL    HW268041   2.126   7.522   0.243 -1.1253  0.8149  0.4591
22123SOL     OW68042   7.046   4.158   6.770 -0.4942  0.4192  0.1276
22123SOL    HW168043   7.033   4.099   6.696 -1.8783  0.8018  0.0465
22123SOL    HW268044   7.098   4.230   6.734  0.2755 -0.2080 -0.0380
22124SOL     OW68045   6.622   7.704   5.952 -0.0276  0.2677  0.4650
22124SOL    HW168046   6.687   7.634   5.945  0.6140  0.8248  0.7599
22124SOL    HW268047   6.635   7.739   6.041 -0.7986  0.3183  0.5584
22125SOL     OW68048   2.673   0.279   8.357 -0.2715 -0.0757  0.2070
22125SOL    HW168049   2.758   0.245   8.328 -0.4929 -0.2769 -0.2201
22125SOL    HW268050   2.695   0.352   8.415  0.2026 -0.7229  0.8499
22126SOL     OW68051   4.233   5.789   2.126  0.2672  0.1814 -0.5051
22126SOL    HW168052   4.194   5.833   2.201 -3.1491 -0.9573 -1.4391
22126SOL    HW268053   4.262   5.860   2.068 -0.8171  1.1131  0.0742
22127SOL     OW68054   4.504   8.169   1.126 -0.3578 -0.1667 -0.1551
22127SOL    HW168055   4.494   8.076   1.143  0.5099 -0.2398 -0.0200
22127SOL    HW268056   4.420   8.207   1.152 -1.5349 -1.1656 -2.3070
22128SOL     OW68057   2.151   2.455   6.168 -0.0586 -0.1364  0.1961
22128SOL    HW168058   2.088   2.402   6.218  0.3466 -0.6649  0.1608
22128SOL    HW268059   2.152   2.413   6.081  1.2003 -0.8626  0.5378
22129SOL     OW68060   8.619   8.735   7.117 -0.0001  0.6475 -0.0757
22129SOL    HW168061   8.611   8.830   7.105  1.0785  0.7298 -0.2366
22129SOL    HW268062   8.544   8.712   7.171  0.3155  1.7684  0.9017
22130SOL     OW68063   4.733   4.812   2.366  0.0295  0.1816 -0.4535
22130SOL    HW168064   4.660   4.814   2.427  0.4734  1.6000  0.0826
22130SOL    HW268065   4.693   4.796   2.280 -0.7689 -0.2440 -0.0073
22131SOL     OW68066   4.243   2.309   4.145 -0.0925  0.1832  0.5789
22131SOL    HW168067   4.330   2.303   4.106 -0.1965 -1.9448  0.5479
22131SOL    HW268068   4.206   2.221   4.135 -2.0828  0.9097  0.9881
22132SOL     OW68069   0.541   8.524   9.035 -0.8782 -0.0754  0.7126
22132SOL    HW168070   0.500   8.499   8.952 -0.9897 -1.2893  1.1063
22132SOL    HW268071   0.629   8.487   9.031 -0.0195  1.9231  0.1655
22133SOL     OW68072   1.249   7.932   2.221  0.1391 -0.0814  0.0343
22133SOL    HW168073   1.298   8.014   2.219 -1.7260  1.0954 -0.6860
22133SOL    HW268074   1.297   7.873   2.163 -0.1956  1.6187 -2.0831
22134SOL     OW68075   3.193   6.983   6.359  0.5804  0.1874  0.6550
22134SOL    HW168076   3.101   6.977   6.384 -0.0365  1.9426 -0.9529
22134SOL    HW268077   3.211   6.900   6.315 -0.4219  0.0834  0.4272
22135SOL     OW68078   6.743   7.456   7.815 -0.7575 -0.0761 -0.4653
22135SOL    HW168079   6.693   7.388   7.861  2.9355 -2.7300  0.0328
22135SOL    HW268080   6.795   7.408   7.750  1.2820  2.3811 -0.7864
22136SOL     OW68081   8.889   3.483   0.753  0.0591  0.2125 -0.0132
22136SOL    HW168082   8.833   3.430   0.696 -1.5929  1.6929  0.1411
22136SOL    HW268083   8.905   3.563   0.703 -0.8336  1.2416  1.2901
22137SOL     OW68084   8.250   8.878   2.531 -0.0301  0.2991  0.2647
22137SOL    HW168085   8.238   8.859   2.624 -1.5007 -0.5538 -0.0628
22137SOL    HW268086   8.167   8.851   2.490  0.1038  1.8188 -1.1220
22138SOL     OW68087   4.104   5.247   6.158 -0.1748 -0.2041 -0.3170
22138SOL    HW168088   4.129   5.250   6.066  0.3090  0.3601 -0.1723
22138SOL    HW268089   4.185   5.265   6.205 -0.3908 -0.6220  0.2236
22139SOL     OW68090   2.068   2.121   0.727  0.9860 -0.2357 -0.4684
22139SOL    HW168091   2.106   2.058   0.666 -0.3442 -1.4821 -0.0376
22139SOL    HW268092   2.039   2.069   0.801  0.5720  0.9938  0.2571
22140SOL     OW68093   5.378   2.195   2.041 -0.1837  1.0120  0.3851
22140SOL    HW168094   5.350   2.104   2.029 -0.8356  1.2662 -0.0840
22140SOL    HW268095   5.473   2.192   2.028 -0.4818  0.8066 -2.5337
22141SOL     OW68096   5.240   0.796   4.095 -0.7440 -0.3948 -0.3344
22141SOL    HW168097   5.331   0.777   4.072 -0.7414  0.4962 -1.1141
22141SOL    HW268098   5.225   0.884   4.061 -1.7409 -0.3256  0.2634
22142SOL     OW68099   2.061   6.602   8.861 -0.4059 -0.6249  0.1680
22142SOL    HW168100   2.034   6.583   8.771  0.4996 -0.4558 -0.1558
22142SOL    HW268101   2.032   6.526   8.911  0.1749 -1.3074 -0.5001
22143SOL     OW68102   7.513   8.403   2.641 -0.4469 -0.3182 -0.6863
22143SOL    HW168103   7.439   8.463   2.640  0.6146  1.0510 -0.2797
22143SOL    HW268104   7.500   8.350   2.720  0.2919  1.6375  0.8136
22144SOL     OW68105   5.831   1.123   0.902  0.1843 -0.1660  0.5197
22144SOL    HW168106   5.773   1.172   0.960  1.2325 -0.6175  2.0100
22144SOL    HW268107   5.786   1.040   0.887 -0.9232  0.6415 -0.8284
22145SOL     OW68108   4.848   0.385   8.868  0.2101 -0.4656 -0.4436
22145SOL    HW168109   4.854   0.479   8.884 -0.0799 -0.5497  0.1543
22145SOL    HW268110   4.768   0.358   8.912  0.9183 -1.2116  0.4038
22146SOL     OW68111   5.894   7.462   5.532 -0.1165  0.1467 -0.0075
22146SOL    HW168112   5.823   7.484   5.592  1.6003 -1.9162  3.1016
22146SOL    HW268113   5.964   7.524   5.554  0.9216 -1.3273  1.0786
22147SOL     OW68114   5.055   7.206   1.353 -0.0181 -0.4550  0.0428
22147SOL    HW168115   5.009   7.235   1.432 -0.3491 -5.2516  1.8830
22147SOL    HW268116   5.146   7.192   1.382  0.0045 -1.6350 -0.5636
22148SOL     OW68117   4.778   2.868   0.208  0.0918 -0.2526 -0.2636
22148SOL    HW168118   4.743   2.895   0.293 -1.8606 -0.5906 -0.9031
22148SOL    HW268119   4.740   2.931   0.146  2.3342  0.6452 -0.8027
22149SOL     OW68120   6.149   1.854   5.346  0.4040 -0.1825 -0.3191
22149SOL    HW168121   6.123   1.787   5.282  0.8360 -0.9487  0.2836
22149SOL    HW268122   6.077   1.856   5.409 -0.9001  1.8694 -1.7403
22150SOL     OW68123   8.992   6.542   7.560  0.1703  0.3728 -0.1364
22150SOL    HW168124   9.059   6.485   7.521 -0.4812  1.6706 -3.4854
22150SOL    HW268125   9.010   6.539   7.654  1.3972 -3.6800 -0.3136
22151SOL     OW68126   2.774   3.423   7.479 -0.0871  0.0340  0.5652
22151SOL    HW168127   2.712   3.378   7.536  0.4871 -3.7737 -1.4665
22151SOL    HW268128   2.860   3.401   7.515  0.1855 -0.0424 -0.1079
22152SOL     OW68129   0.122   1.969   0.338  0.0377 -0.3476 -0.1088
22152SOL    HW168130   0.210   2.000   0.318 -0.0361  0.0012  0.0965
22152SOL    HW268131   0.131   1.874   0.348  0.6016 -0.2016  1.0032
22153SOL     OW68132   9.632   3.030   1.445  0.0010 -0.1558  0.1247
22153SOL    HW168133   9.710   2.996   1.489  0.2663  0.1152 -0.1346
22153SOL    HW268134   9.586   2.952   1.413  0.7219 -0.2698 -0.6704
22154SOL     OW68135   8.193   4.375   6.596 -0.3990 -0.0925  0.0466
22154SOL    HW168136   8.275   4.425   6.601  0.2425 -1.1021 -0.1592
22154SOL    HW268137   8.124   4.442   6.599  0.4230  0.7614  0.3770
22155SOL     OW68138   8.052   6.771   4.591  0.3327 -0.1809  0.3475
22155SOL    HW168139   8.100   6.835   4.643 -0.0997  0.6331 -0.2384
22155SOL    HW268140   7.997   6.724   4.655  0.5812  0.0914  0.7651
22156SOL     OW68141   0.784   5.132   7.600 -0.0692 -0.2711  0.7703
22156SOL    HW168142   0.880   5.138   7.596 -0.1148  1.3077  1.2661
22156SOL    HW268143   0.756   5.216   7.636 -1.6799 -0.5358  0.2421
22157SOL     OW68144   1.352   4.924   0.426  0.5746  0.3232  0.4765
22157SOL    HW168145   1.262   4.917   0.459 -0.4218 -2.0922 -2.3402
22157SOL    HW268146   1.356   5.009   0.383  0.1490  1.0792  1.8787
22158SOL     OW68147   6.718   5.813   2.926 -0.0720 -0.4495 -0.0228
22158SOL    HW168148   6.764   5.729   2.921  1.1032  0.0763  1.2819
22158SOL    HW268149   6.785   5.878   2.904 -0.3785  0.2773  1.1005
22159SOL     OW68150   2.499   8.187   1.408 -0.3692 -0.4625  0.1323
22159SOL    HW168151   2.537   8.157   1.326 -0.4679 -0.5719  0.1266
22159SOL    HW268152   2.408   8.159   1.404 -0.2361 -0.9516  0.5174
22160SOL     OW68153   7.721   6.701   5.671 -0.3225 -0.4821 -0.1953
22160SOL    HW168154   7.743   6.674   5.760 -3.0420 -2.0198  0.1449
22160SOL    HW268155   7.726   6.620   5.620  0.0007  0.1350 -1.1539
22161SOL     OW68156   0.332   5.554   7.284 -0.3612  0.3519  0.1280
22161SOL    HW168157   0.396   5.625   7.278 -1.2918  1.2730  0.8705
22161SOL    HW268158   0.289   5.566   7.369  0.0906 -1.6557  0.7109
22162SOL     OW68159   2.582   5.569   9.231  0.0144 -0.2025 -0.1533
22162SOL    HW168160   2.570   5.525   9.316  2.0789 -1.3805 -0.3813
22162SOL    HW268161   2.547   5.507   9.167  0.5960 -0.3920 -0.2978
22163SOL     OW68162   5.477   9.311   5.377  0.1097 -0.0497  0.2244
22163SOL    HW168163   5.441   9.399   5.373  1.9192  0.7594  0.5927
22163SOL    HW268164   5.541   9.307   5.305 -0.5566 -1.3762 -0.3391
22164SOL     OW68165   7.475   0.590   4.099 -0.0512  0.0737 -0.0899
22164SOL    HW168166   7.401   0.651   4.100 -0.1010  0.0175  1.0572
22164SOL    HW268167   7.450   0.522   4.037 -1.4565 -0.5223  1.0704
22165SOL     OW68168   9.536   0.820   3.315  0.5804  0.1169  0.1491
22165SOL    HW168169   9.590   0.758   3.265  0.9083  0.0518  0.5721
22165SOL    HW268170   9.453   0.824   3.267  0.5362 -0.6890  0.1327
22166SOL     OW68171   4.692   8.993   6.386 -0.4708 -0.3046  0.0910
22166SOL    HW168172   4.632   8.985   6.459 -2.9849 -2.2631 -2.0100
22166SOL    HW268173   4.715   9.086   6.384 -1.3217  0.0233  2.5208
22167SOL     OW68174   1.513   9.081   1.063  0.1564  0.1876  0.1243
22167SOL    HW168175   1.467   9.164   1.075 -0.9749 -0.3710 -0.1928
22167SOL    HW268176   1.581   9.100   0.998 -1.8450  0.2576 -2.0460
22168SOL     OW68177   8.160   3.827   7.806 -0.1070  0.2283  0.0625
22168SOL    HW168178   8.180   3.755   7.866  0.0640  1.0261  0.9947
22168SOL    HW268179   8.066   3.843   7.819  0.4288  2.1458  2.1663
22169SOL     OW68180   3.559   4.332   2.885  0.3444 -0.0235  0.3354
22169SOL    HW168181   3.641   4.284   2.897  0.1220 -0.5816 -0.3024
22169SOL    HW268182   3.499   4.294   2.949 -0.2502 -1.6132 -1.0856
22170SOL     OW68183   0.681   2.068   3.541  0.6309  0.1747  0.4066
22170SOL    HW168184   0.664   2.001   3.607 -1.3036  0.2539  0.0535
22170SOL    HW268185   0.769   2.048   3.509  0.1568 -2.1765  0.3661
22171SOL     OW68186   7.822   7.286   6.788 -0.3336  0.0186  0.0386
22171SOL    HW168187   7.781   7.202   6.768 -0.9572  0.1990  0.5316
22171SOL    HW268188   7.796   7.344   6.716 -0.2545 -0.0903 -0.0780
22172SOL     OW68189   4.046   1.289   3.408  0.2547 -0.5028 -0.1565
22172SOL    HW168190   4.042   1.363   3.348  0.3666  0.5803  1.1336
22172SOL    HW268191   4.106   1.317   3.478 -0.3830 -1.4652  0.8160
22173SOL     OW68192   0.639   0.823   6.934 -0.0482  0.7582  1.0779
22173SOL    HW168193   0.663   0.749   6.990 -2.5221 -0.2239  0.9804
22173SOL    HW268194   0.554   0.851   6.967 -1.3359  0.5361 -1.7787
22174SOL     OW68195   9.058   6.116   6.582 -0.0162  0.2260  0.4363
22174SOL    HW168196   8.963   6.117   6.589  0.1170  1.3357  3.2507
22174SOL    HW268197   9.077   6.154   6.496 -2.0596  0.7356  0.1714
22175SOL     OW68198   4.937   3.568   8.991  0.1746  0.0054 -0.4170
22175SOL    HW168199   4.999   3.625   9.038 -0.4541 -0.7682  1.4148
22175SOL    HW268200   4.977   3.481   8.995 -0.4611 -0.2813 -0.2810
22176SOL     OW68201   3.495   5.885   7.962  0.4780  0.6227 -0.3774
22176SOL    HW168202   3.477   5.887   8.056 -1.1016  0.3020 -0.6418
22176SOL    HW268203   3.576   5.934   7.951  0.0771  1.6307  1.0301
22177SOL     OW68204   0.128   4.720   0.413  0.0423  0.0015  0.2218
22177SOL    HW168205   0.131   4.774   0.491 -0.1615  0.8959 -0.3745
22177SOL    HW268206   0.160   4.777   0.343  0.6520 -0.9205 -0.2802
22178SOL     OW68207   5.093   7.628   7.061  0.1583  0.3799  0.5026
22178SOL    HW168208   5.108   7.659   6.971 -0.8487 -0.5999 -0.0260
22178SOL    HW268209   5.021   7.682   7.093 -0.5409 -0.3189  0.1421
22179SOL     OW68210   9.073   2.896   8.981  0.0894  0.0052  0.3588
22179SOL    HW168211   9.085   2.838   8.906 -1.0504  2.3376 -1.7835
22179SOL    HW268212   8.978   2.896   8.996 -0.0996  2.1823 -0.5194
22180SOL     OW68213   0.157   5.141   6.927 -0.0505  0.2558 -0.0934
22180SOL    HW168214   0.246   5.160   6.959 -1.1240  0.6984  2.9279
22180SOL    HW268215   0.146   5.047   6.941 -0.6255  0.5002  1.1242
22181SOL     OW68216   8.701   3.031   4.376  0.8047 -0.1780  0.2544
22181SOL    HW168217   8.613   3.002   4.352  0.1954  0.3369  1.7551
22181SOL    HW268218   8.747   3.041   4.293 -0.2234 -1.4699 -0.5030
22182SOL     OW68219   3.756   5.546   2.785  0.3704  0.5305 -0.0236
22182SOL    HW168220   3.781   5.575   2.697  0.0549  1.2148  0.1045
22182SOL    HW268221   3.681   5.489   2.770  1.7199 -1.2224 -0.3732
22183SOL     OW68222   9.500   8.183   5.117 -0.1279  0.0070 -0.1059
22183SOL    HW168223   9.413   8.168   5.154 -1.1865  1.0208 -1.9945
22183SOL    HW268224   9.488   8.259   5.060  1.6913 -0.6620 -1.4577
22184SOL     OW68225   6.941   0.988   4.412 -0.2022 -0.2887 -0.4593
22184SOL    HW168226   6.856   0.981   4.455 -1.0397 -0.1084 -2.0322
22184SOL    HW268227   6.922   0.986   4.319  1.6249 -1.2854 -0.8666
22185SOL     OW68228   7.465   0.627   1.929  0.0318 -0.0227  0.2045
22185SOL    HW168229   7.456   0.542   1.973  0.2792  0.6095  1.5524
22185SOL    HW268230   7.378   0.666   1.934 -0.7777 -1.2078 -2.7446
22186SOL     OW68231   6.323   3.556   7.589  0.1178  0.1629 -0.0073
22186SOL    HW168232   6.241   3.558   7.540 -0.7422  3.0003  1.2636
22186SOL    HW268233   6.375   3.627   7.550  2.2887 -1.9382 -1.1491
22187SOL     OW68234   0.258   7.896   5.283 -0.3853 -0.3252  0.0860
22187SOL    HW168235   0.166   7.870   5.277 -0.6054  0.0968  1.3716
22187SOL    HW268236   0.306   7.813   5.274 -0.9403 -0.7213  0.6797
22188SOL     OW68237   1.301   4.844   7.858  0.4880 -0.3861  0.7532
22188SOL    HW168238   1.313   4.863   7.765  1.1940 -2.9346  0.2483
22188SOL    HW268239   1.236   4.773   7.859  1.7288 -1.5659  2.0313
22189SOL     OW68240   5.675   8.571   3.962  0.5429  0.9025  0.0730
22189SOL    HW168241   5.718   8.501   3.913  3.0308  2.4169 -0.0936
22189SOL    HW268242   5.635   8.526   4.037  0.7130 -0.8728 -0.8380
22190SOL     OW68243   9.254   9.114   6.988 -0.2632  0.4363  0.3410
22190SOL    HW168244   9.170   9.152   6.962  0.2671  1.6326  0.3332
22190SOL    HW268245   9.308   9.118   6.909 -0.6748 -1.8265 -0.1302
22191SOL     OW68246   4.155   1.656   0.626  0.4810  0.0583  0.5465
22191SOL    HW168247   4.242   1.695   0.632 -0.0488  1.2494  0.6451
22191SOL    HW268248   4.167   1.579   0.570  1.4901  0.4869  0.1580
22192SOL     OW68249   9.394   0.861   2.821 -0.3080  0.1771  0.1247
22192SOL    HW168250   9.411   0.774   2.786 -1.4720  1.0543 -3.0193
22192SOL    HW268251   9.342   0.846   2.900 -1.5542 -1.9948 -1.0223
22193SOL     OW68252   2.500   8.387   8.640 -0.9343  0.4758  0.3844
22193SOL    HW168253   2.502   8.349   8.553 -1.5646 -0.5634  0.8088
22193SOL    HW268254   2.407   8.402   8.657 -0.7479  1.6198  0.4880
22194SOL     OW68255   7.079   4.664   8.263 -0.6043  0.2472 -0.1613
22194SOL    HW168256   7.097   4.613   8.184 -0.2457 -1.1258  0.7717
22194SOL    HW268257   6.990   4.640   8.288 -0.4866  0.1746  0.2005
22195SOL     OW68258   3.274   7.218   7.684 -0.1250  0.1292 -0.0569
22195SOL    HW168259   3.322   7.276   7.743  0.2881 -0.4133  0.1475
22195SOL    HW268260   3.188   7.208   7.725  0.2226 -0.3922  0.5543
22196SOL     OW68261   9.389   2.879   0.820 -0.0431 -0.2260 -0.1149
22196SOL    HW168262   9.310   2.833   0.791  0.2069  0.3340 -1.7912
22196SOL    HW268263   9.362   2.927   0.898 -1.1777 -0.5583 -0.2893
22197SOL     OW68264   7.142   2.284   1.428  0.1532 -0.2686 -0.3308
22197SOL    HW168265   7.094   2.358   1.464  0.2348 -0.3588 -0.0363
22197SOL    HW268266   7.153   2.224   1.501  0.8519 -0.1782 -0.3516
22198SOL     OW68267   3.168   5.729   7.775  0.0223 -0.3749 -0.2521
22198SOL    HW168268   3.262   5.707   7.776 -0.2600 -1.6369  0.1569
22198SOL    HW268269   3.158   5.792   7.846  0.7121  0.4698 -0.8825
22199SOL     OW68270   6.637   1.721   7.137  0.1441  0.1385  0.0575
22199SOL    HW168271   6.578   1.766   7.076 -0.2693  0.8012  0.9377
22199SOL    HW268272   6.711   1.781   7.146  0.9028 -0.6163 -0.9163
22200SOL     OW68273   7.165   3.274   0.658 -0.0353 -0.2666 -0.0365
22200SOL    HW168274   7.184   3.180   0.653 -0.7448 -0.3383 -2.0737
22200SOL    HW268275   7.227   3.314   0.598  1.2854  0.8021  1.9244
22201SOL     OW68276   1.564   5.372   8.306 -0.0691 -0.0662  0.0260
22201SOL    HW168277   1.510   5.334   8.375 -0.6129  1.5918  0.5632
22201SOL    HW268278   1.519   5.453   8.282  1.6249  0.8537 -0.2302
22202SOL     OW68279   4.422   9.301   3.436  0.3275  0.0134 -0.0820
22202SOL    HW168280   4.414   9.302   3.532 -1.2243  0.2109 -0.1932
22202SOL    HW268281   4.515   9.285   3.421  0.4661 -0.8896  1.4551
22203SOL     OW68282   4.460   1.107   4.862  0.2279  0.2518  0.4826
22203SOL    HW168283   4.400   1.157   4.918  1.7683  0.1834  2.2916
22203SOL    HW268284   4.452   1.148   4.776 -0.9598  1.4960  1.1416
22204SOL     OW68285   5.703   6.056   7.738 -0.4041 -0.1703  0.7232
22204SOL    HW168286   5.693   6.076   7.645  1.9042 -0.9064  0.2580
22204SOL    HW268287   5.761   6.125   7.771 -1.2524  0.1190  1.6590
22205SOL     OW68288   8.195   5.796   1.080  0.1323  0.3726  0.5924
22205SOL    HW168289   8.153   5.714   1.054 -0.0520 -0.3964  3.0146
22205SOL    HW268290   8.160   5.861   1.019 -1.7110 -0.8971  0.2004
22206SOL     OW68291   2.675   6.708   2.950 -0.5928  0.2456 -0.0427
22206SOL    HW168292   2.758   6.663   2.961 -0.5506  0.0540 -1.0790
22206SOL    HW268293   2.698   6.801   2.941 -0.3892  0.0791 -1.3988
22207SOL     OW68294   6.127   4.400   6.126 -0.5350  0.3367  0.3386
22207SOL    HW168295   6.129   4.377   6.033 -1.4140  0.9478  0.1580
22207SOL    HW268296   6.101   4.319   6.170  1.3792 -0.3932  0.2330
22208SOL     OW68297   4.831   2.086   5.061 -0.2585 -0.1176  0.5643
22208SOL    HW168298   4.779   2.167   5.061  0.0185  0.0718 -0.0079
22208SOL    HW268299   4.813   2.046   5.145 -1.4589 -0.1371  0.3250
22209SOL     OW68300   4.413   5.968   7.665 -0.0153  0.2840 -0.5276
22209SOL    HW168301   4.369   6.016   7.735  1.3974  0.5897  0.1977
22209SOL    HW268302   4.439   6.035   7.602  2.3767  0.6347  0.7135
22210SOL     OW68303   8.177   7.505   5.583  0.7089 -0.3362  0.2996
22210SOL    HW168304   8.179   7.411   5.564  0.0727  0.0935 -2.2797
22210SOL    HW268305   8.265   7.535   5.562  0.3179 -0.0342 -0.9545
22211SOL     OW68306   6.663   7.109   4.971  0.0955  0.2888  0.1837
22211SOL    HW168307   6.572   7.136   4.959  0.0996  0.1211 -0.2289
22211SOL    HW268308   6.706   7.186   5.008 -0.8780 -0.5454  3.4167
22212SOL     OW68309   5.596   0.926   1.937  0.7736  0.4743 -0.2556
22212SOL    HW168310   5.558   0.972   1.862 -0.2633  0.5980  0.3267
22212SOL    HW268311   5.657   0.863   1.898 -0.5971 -0.2678 -1.2896
22213SOL     OW68312   1.874   4.204   4.007 -0.2738 -0.4168 -0.1119
22213SOL    HW168313   1.949   4.152   4.035  0.0866 -1.5586 -2.9184
22213SOL    HW268314   1.809   4.140   3.979 -1.9676  0.5786  1.2554
22214SOL     OW68315   9.255   2.842   4.473 -0.2080 -0.3734  0.5741
22214SOL    HW168316   9.264   2.825   4.567  0.2993  0.2523  0.6477
22214SOL    HW268317   9.170   2.885   4.464 -0.7506 -1.4106  0.5965
22215SOL     OW68318   2.155   5.741   8.911 -0.2013  0.2079 -0.4318
22215SOL    HW168319   2.104   5.810   8.952 -1.6661 -0.9986 -0.1121
22215SOL    HW268320   2.096   5.702   8.847  0.8348 -0.2847 -1.1220
22216SOL     OW68321   1.091   8.456   8.485 -0.1695  0.6912  0.0588
22216SOL    HW168322   1.021   8.404   8.523 -0.4339  2.3093  1.9318
22216SOL    HW268323   1.047   8.532   8.446  0.3088  0.2060 -1.5038
22217SOL     OW68324   3.576   7.859   8.544 -0.1288 -0.2054 -0.0837
22217SOL    HW168325   3.669   7.844   8.526  0.6909  0.5169  2.9399
22217SOL    HW268326   3.567   7.954   8.542  0.0223 -0.0523  2.6570
22218SOL     OW68327   6.701   7.057   0.081 -0.4958 -0.0699 -0.0898
22218SOL    HW168328   6.735   7.009   0.156 -2.6844 -1.6713 -0.0137
22218SOL    HW268329   6.691   7.147   0.111 -1.9780 -0.8113  1.8138
22219SOL     OW68330   1.208   1.968   7.794  0.4277 -0.2256 -0.4533
22219SOL    HW168331   1.153   1.996   7.721  2.3004 -0.2003 -1.9499
22219SOL    HW268332   1.233   1.878   7.772  2.4060  0.3607 -0.7796
22220SOL     OW68333   9.016   4.105   8.263  0.3276  0.4533  0.2649
22220SOL    HW168334   9.101   4.134   8.229  0.1668 -0.5850 -1.0700
22220SOL    HW268335   9.037   4.038   8.327  0.5231  0.4878  0.2365
22221SOL     OW68336   9.649   3.676   6.404 -0.0477 -0.6179 -0.3085
22221SOL    HW168337   9.586   3.724   6.351  1.1902 -0.5546 -1.7744
22221SOL    HW268338   9.595   3.616   6.457 -1.4030  0.3309 -0.5681
22222SOL     OW68339   3.973   7.729   2.380 -0.0425  0.3947 -0.6864
22222SOL    HW168340   3.878   7.734   2.381 -0.1466 -0.2362 -2.7635
22222SOL    HW268341   3.992   7.636   2.392  0.4019  0.6668  0.9825
22223SOL     OW68342   3.221   7.267   4.721  0.2733 -0.1590  0.1095
22223SOL    HW168343   3.130   7.297   4.712 -0.3349 -2.2345 -1.6106
22223SOL    HW268344   3.245   7.289   4.811 -2.2353 -0.2985  0.8801
22224SOL     OW68345   2.656   1.386   1.436 -0.4794 -0.0935 -0.1016
22224SOL    HW168346   2.626   1.471   1.404  1.1382  0.5359 -0.0280
22224SOL    HW268347   2.629   1.324   1.367 -1.6648  0.4548 -0.1557
22225SOL     OW68348   6.146   8.092   6.331 -0.3625  0.4887  0.7664
22225SOL    HW168349   6.070   8.069   6.278 -0.0319  0.2772  0.3829
22225SOL    HW268350   6.110   8.146   6.402 -0.4611  3.1032 -1.1444
22226SOL     OW68351   2.271   6.773   4.026  0.4962  0.3303  0.4235
22226SOL    HW168352   2.260   6.817   4.110 -1.4429  1.1489 -0.2024
22226SOL    HW268353   2.245   6.682   4.043  0.9573  0.2822  0.8923
22227SOL     OW68354   7.426   7.947   0.196 -0.0457 -0.7274 -0.2307
22227SOL    HW168355   7.418   7.901   0.112  1.4023  1.2346 -1.5234
22227SOL    HW268356   7.520   7.953   0.211 -0.2744 -0.4376  1.2126
22228SOL     OW68357   7.982   4.170   2.343  0.1396  0.0207 -0.0160
22228SOL    HW168358   7.967   4.098   2.405 -1.9760  0.8871  0.5622
22228SOL    HW268359   7.941   4.141   2.262  1.4995 -0.4395 -0.5606
22229SOL     OW68360   7.453   2.393   2.801  0.2816 -0.7898 -0.4667
22229SOL    HW168361   7.406   2.311   2.789 -0.8945  0.0717 -2.1493
22229SOL    HW268362   7.385   2.459   2.815  1.1430  0.0824 -0.2439
22230SOL     OW68363   2.642   2.384   3.221  0.2686 -0.1915 -0.3204
22230SOL    HW168364   2.612   2.428   3.301  1.8002 -0.3736  0.4060
22230SOL    HW268365   2.734   2.410   3.213  0.4841 -1.1842 -1.3258
22231SOL     OW68366   5.191   4.008   8.016  0.0704 -0.1234  0.0051
22231SOL    HW168367   5.254   3.957   8.066 -0.0756 -1.1040 -0.7807
22231SOL    HW268368   5.165   3.951   7.944  0.9084  1.5309 -1.7078
22232SOL     OW68369   7.369   3.434   7.883 -0.5941 -0.1172  0.0757
22232SOL    HW168370   7.445   3.403   7.833 -0.6821 -0.8144  0.3672
22232SOL    HW268371   7.389   3.526   7.901  0.1106 -0.2503  0.0182
22233SOL     OW68372   3.365   1.582   2.327  0.7985 -0.2581  0.1442
22233SOL    HW168373   3.382   1.653   2.264  0.3428  0.4897  0.8356
22233SOL    HW268374   3.445   1.530   2.326  1.5438  0.8468  0.3447
22234SOL     OW68375   0.097   9.473   0.804 -0.2920 -0.1864 -0.6772
22234SOL    HW168376   0.170   9.521   0.764 -0.0180  0.4729  0.5447
22234SOL    HW268377   0.024   9.536   0.803 -0.5019 -0.4311 -0.8309
22235SOL     OW68378   6.916   5.279   0.805 -0.6012  0.1381  0.3474
22235SOL    HW168379   6.990   5.229   0.768 -0.4779 -0.1004  0.9120
22235SOL    HW268380   6.922   5.364   0.763 -0.7093 -0.2596 -0.5047
22236SOL     OW68381   8.254   7.474   4.671  0.2443 -0.0560  0.4763
22236SOL    HW168382   8.176   7.520   4.702 -0.8197 -1.6235  0.2718
22236SOL    HW268383   8.323   7.541   4.669 -1.0683  1.3564  0.7269
22237SOL     OW68384   3.423   5.456   9.635 -0.1222 -0.0792 -0.2705
22237SOL    HW168385   3.354   5.476   9.572  0.4357 -0.3611 -0.9920
22237SOL    HW268386   3.399   5.371   9.672  1.2393 -1.5888 -2.6014
22238SOL     OW68387   2.888   6.252   1.160  0.1421  0.5016 -0.6149
22238SOL    HW168388   2.980   6.270   1.144  0.7238 -0.7835  0.9983
22238SOL    HW268389   2.872   6.166   1.122  0.6555 -0.9905  2.2274
22239SOL     OW68390   3.247   0.535   0.753 -0.3254  0.2241 -0.2957
22239SOL    HW168391   3.183   0.533   0.682  0.0333  1.3398 -0.6648
22239SOL    HW268392   3.331   0.550   0.709  0.1921 -1.0631  0.1945
22240SOL     OW68393   6.830   0.652   2.622 -0.0614 -0.2329  0.1990
22240SOL    HW168394   6.761   0.604   2.577 -0.5927 -0.7578  1.5220
22240SOL    HW268395   6.807   0.744   2.610 -1.2680 -0.4087  1.0269
22241SOL     OW68396   5.476   1.936   6.936  0.1410 -0.0162 -0.1418
22241SOL    HW168397   5.540   1.873   6.970  1.0195  1.7357  1.6354
22241SOL    HW268398   5.414   1.948   7.007 -0.4757  0.5347 -0.7644
22242SOL     OW68399   6.853   5.719   6.943 -0.6577 -0.3528 -0.3711
22242SOL    HW168400   6.922   5.767   6.989 -0.8291 -0.3494 -0.1169
22242SOL    HW268401   6.829   5.777   6.871  0.1639 -0.7044 -0.9471
22243SOL     OW68402   3.662   0.787   0.326 -0.0342  0.0329  0.3399
22243SOL    HW168403   3.686   0.757   0.414 -1.1649 -1.2511  0.2501
22243SOL    HW268404   3.735   0.761   0.270 -0.0739 -0.7050  0.6220
22244SOL     OW68405   1.331   5.798   8.660  0.0014 -0.1452 -0.0104
22244SOL    HW168406   1.327   5.808   8.565  2.3764  0.4239 -0.1183
22244SOL    HW268407   1.385   5.871   8.689 -0.3934 -0.5096  1.7622
22245SOL     OW68408   7.102   4.297   8.602  0.7000  0.3046  0.2804
22245SOL    HW168409   7.103   4.388   8.570 -4.6393  0.4905 -0.2684
22245SOL    HW268410   7.097   4.306   8.697 -0.9349  0.7435  0.1850
22246SOL     OW68411   7.771   4.835   1.589 -0.0232 -0.1830  0.6742
22246SOL    HW168412   7.828   4.808   1.517  0.0108  0.2577  0.5326
22246SOL    HW268413   7.804   4.921   1.614 -1.5032  0.7127 -0.3442
22247SOL     OW68414   2.585   2.316   0.326 -0.3557 -0.2089  0.0493
22247SOL    HW168415   2.627   2.398   0.301 -0.2755 -0.3105 -0.1515
22247SOL    HW268416   2.566   2.272   0.243  1.9808 -1.5829  0.1368
22248SOL     OW68417   8.238   6.470   9.193 -0.0011 -0.1558 -0.1812
22248SOL    HW168418   8.150   6.480   9.231  0.2084 -0.6728  0.4727
22248SOL    HW268419   8.223   6.438   9.105 -0.4823  0.1843 -0.2267
22249SOL     OW68420   8.533   4.040   5.450 -0.4275 -0.1771  0.1064
22249SOL    HW168421   8.466   4.082   5.396 -1.0474 -0.3634  0.7157
22249SOL    HW268422   8.561   4.108   5.511  0.7074  0.2139 -0.8162
22250SOL     OW68423   1.526   3.222   0.305 -0.6342  1.1103  0.5790
22250SOL    HW168424   1.481   3.150   0.348 -2.6228  0.9513 -1.5385
22250SOL    HW268425   1.601   3.241   0.361 -2.6377  0.5456  3.6956
22251SOL     OW68426   6.814   9.302   0.522  0.8146  0.2355 -0.3737
22251SOL    HW168427   6.905   9.333   0.519  1.1618 -0.7789 -2.2218
22251SOL    HW268428   6.814   9.226   0.464 -1.2912  0.3733 -0.6019
22252SOL     OW68429   4.085   5.936   1.346 -0.4824 -0.4482  0.1591
22252SOL    HW168430   4.095   6.020   1.391 -1.7266  0.5577 -1.3094
22252SOL    HW268431   4.072   5.960   1.254 -0.7682 -2.2686 -0.3158
22253SOL     OW68432   4.218   8.767   7.195  0.1825 -0.2983  0.7750
22253SOL    HW168433   4.176   8.729   7.273 -0.5164  1.0194  1.0767
22253SOL    HW268434   4.294   8.711   7.179 -0.6660 -1.6585  1.3288
22254SOL     OW68435   2.598   3.050   7.590  0.2333 -0.1576 -0.3248
22254SOL    HW168436   2.551   2.997   7.525  2.2619 -1.1715 -1.0194
22254SOL    HW268437   2.532   3.113   7.621 -1.3906 -1.0926 -1.7238
22255SOL     OW68438   3.547   4.233   9.637  0.2147  0.3297 -0.5013
22255SOL    HW168439   3.488   4.158   9.634 -2.2979  2.1888 -0.9948
22255SOL    HW268440   3.590   4.234   9.552  0.9003 -0.9798 -0.1874
22256SOL     OW68441   5.145   2.538   7.647  0.4887 -0.1009 -0.3578
22256SOL    HW168442   5.114   2.448   7.657  2.3402 -0.6361  1.2537
22256SOL    HW268443   5.206   2.534   7.574  0.8324 -0.2427 -0.0660
22257SOL     OW68444   5.092   5.572   5.789 -0.6838 -0.5262  0.4632
22257SOL    HW168445   5.057   5.615   5.711  0.3391  0.7437  0.6828
22257SOL    HW268446   5.109   5.482   5.761  0.2354  0.0596 -0.9749
22258SOL     OW68447   3.349   1.938   6.461  0.1808  0.2731 -0.3141
22258SOL    HW168448   3.387   1.851   6.460 -0.7719 -0.1480 -0.2747
22258SOL    HW268449   3.413   1.991   6.510  0.7437 -0.3982 -0.3067
22259SOL     OW68450   3.695   6.892   6.991 -0.5030 -1.1163 -0.1863
22259SOL    HW168451   3.709   6.805   7.028  1.2217 -1.6575 -1.9357
22259SOL    HW268452   3.772   6.942   7.019 -2.3253  0.5141  2.3555
22260SOL     OW68453   1.293   0.448   3.619 -0.3851 -0.2008 -0.0960
22260SOL    HW168454   1.211   0.472   3.661 -0.2948  0.5972 -0.3687
22260SOL    HW268455   1.352   0.522   3.636 -0.0398 -0.3137 -0.7698
22261SOL     OW68456   6.979   0.834   5.053  0.3146  0.7558 -0.5288
22261SOL    HW168457   6.962   0.926   5.034 -0.3225  1.2387  2.1182
22261SOL    HW268458   6.911   0.809   5.115  0.7332 -1.4131 -0.8562
22262SOL     OW68459   4.450   4.390   7.536  0.1437 -0.0317 -0.2250
22262SOL    HW168460   4.378   4.328   7.535  0.9270 -0.9688 -0.4963
22262SOL    HW268461   4.457   4.421   7.446 -0.0728  0.2538 -0.1463
22263SOL     OW68462   3.945   6.569   5.162  0.6030 -0.0184 -0.1373
22263SOL    HW168463   3.872   6.510   5.180  1.8070 -2.1043 -1.6370
22263SOL    HW268464   3.907   6.642   5.113 -0.4610 -1.2279 -1.1757
22264SOL     OW68465   5.767   8.482   1.116  0.5218 -0.0288  0.4392
22264SOL    HW168466   5.785   8.437   1.199  0.1379  0.9059  1.0482
22264SOL    HW268467   5.673   8.469   1.103  0.3774  0.7340  0.7074
22265SOL     OW68468   4.583   6.508   5.298  0.1832 -0.1994 -0.6324
22265SOL    HW168469   4.541   6.590   5.324 -0.7415 -0.7229 -0.4510
22265SOL    HW268470   4.575   6.506   5.203 -1.8404 -1.1284 -0.4927
22266SOL     OW68471   4.921   5.811   4.239  0.0521 -0.2644  0.0778
22266SOL    HW168472   4.978   5.744   4.199  2.2117  1.3025  0.3291
22266SOL    HW268473   4.851   5.824   4.175  1.5438 -0.2623 -1.6538
22267SOL     OW68474   6.812   7.784   0.252 -0.6057 -0.3214 -0.2142
22267SOL    HW168475   6.852   7.856   0.203 -1.4646 -0.1204 -0.6576
22267SOL    HW268476   6.841   7.796   0.342  0.4629 -0.2999 -0.5477
22268SOL     OW68477   8.573   5.023   9.318 -0.5427  0.6288  0.2215
22268SOL    HW168478   8.551   4.992   9.405 -0.7273  0.7150  0.2066
22268SOL    HW268479   8.553   4.948   9.260  1.3028 -0.0771  0.4470
22269SOL     OW68480   5.452   4.971   0.084  0.1596 -0.0216  0.0903
22269SOL    HW168481   5.507   4.955   0.161 -0.4382 -0.5021  0.4236
22269SOL    HW268482   5.366   4.936   0.108 -0.1749  0.3095 -0.5963
22270SOL     OW68483   6.022   6.085   9.608 -0.4598 -0.3101  0.2790
22270SOL    HW168484   6.019   6.148   9.680 -0.3614 -0.2904  0.2654
22270SOL    HW268485   6.073   6.012   9.642  0.0072 -0.0919  0.0626
22271SOL     OW68486   0.484   8.359   5.082  0.4627 -0.5189 -0.1995
22271SOL    HW168487   0.473   8.398   5.169  0.8791 -1.1360  0.1336
22271SOL    HW268488   0.467   8.266   5.095 -0.8735 -0.4236 -1.0589
22272SOL     OW68489   4.274   0.279   3.346 -0.1014  0.1928  0.6585
22272SOL    HW168490   4.181   0.291   3.366  0.0521  1.5032  0.6637
22272SOL    HW268491   4.319   0.335   3.409  0.6875 -0.1848  0.4402
22273SOL     OW68492   7.274   7.930   3.753 -0.5326  0.0943  0.3253
22273SOL    HW168493   7.202   7.974   3.798 -0.9585 -1.9015  1.7200
22273SOL    HW268494   7.233   7.854   3.710  0.6145 -0.7105  0.6000
22274SOL     OW68495   5.968   8.090   3.046 -0.3096  0.3397  0.0440
22274SOL    HW168496   5.996   8.112   3.135  0.2251 -0.2953  0.0439
22274SOL    HW268497   6.041   8.039   3.011 -1.1216 -0.6347 -0.2567
22275SOL     OW68498   6.531   9.560   9.351  0.0424 -0.2941  0.5998
22275SOL    HW168499   6.602   9.602   9.399  1.4117  0.4599 -1.8961
22275SOL    HW268500   6.541   9.467   9.370  2.1118 -0.2710 -0.0926
22276SOL     OW68501   3.005   8.853   0.969  0.4286  0.2658  0.0674
22276SOL    HW168502   3.032   8.785   1.031 -0.1093  0.5444  0.6199
22276SOL    HW268503   3.055   8.930   0.996  1.1014  0.0795 -0.6105
22277SOL     OW68504   3.037   3.122   1.212 -0.5038  0.3912 -0.0506
22277SOL    HW168505   2.984   3.161   1.282 -0.0447  0.7617  0.0938
22277SOL    HW268506   3.107   3.076   1.258 -0.5207  0.1635 -0.2511
22278SOL     OW68507   7.972   0.231   8.837  0.2539 -0.1891 -0.4716
22278SOL    HW168508   7.981   0.253   8.744 -1.8343  1.3416 -0.3684
22278SOL    HW268509   7.878   0.227   8.852  0.5511 -0.3250  1.6152
22279SOL     OW68510   0.579   9.067   1.105 -0.0661  0.4956  0.1211
22279SOL    HW168511   0.518   9.083   1.033 -0.7917  1.1380  0.8604
22279SOL    HW268512   0.593   9.153   1.145 -1.1459 -0.0821  1.8826
22280SOL     OW68513   6.347   0.350   3.440  0.6191 -0.1919  0.3533
22280SOL    HW168514   6.347   0.254   3.439 -0.1492 -0.2170  0.9696
22280SOL    HW268515   6.333   0.375   3.349 -0.3057 -0.7063  0.3323
22281SOL     OW68516   8.634   3.686   4.241 -0.1199  0.0540 -0.1412
22281SOL    HW168517   8.655   3.643   4.158  1.0329  1.5688 -0.6707
22281SOL    HW268518   8.560   3.636   4.275  0.9591 -2.1615 -0.8425
22282SOL     OW68519   0.650   7.571   2.825  0.2308 -0.2554 -0.3685
22282SOL    HW168520   0.727   7.624   2.843  1.0783 -0.8590 -2.0188
22282SOL    HW268521   0.653   7.501   2.890  1.1791 -0.3829 -0.5446
22283SOL     OW68522   2.412   0.133   0.582 -0.6709 -0.0929 -0.0391
22283SOL    HW168523   2.367   0.070   0.527 -0.1389  0.5322 -1.2235
22283SOL    HW268524   2.344   0.194   0.611 -0.7119  0.4736 -1.2922
22284SOL     OW68525   4.981   8.903   5.496 -0.5617  0.1791 -0.7400
22284SOL    HW168526   4.923   8.912   5.571 -1.0265  1.0931 -1.1967
22284SOL    HW268527   4.993   8.808   5.486 -0.2043  0.0463  0.6885
22285SOL     OW68528   3.185   2.356   8.205  0.8582  0.3359  0.2958
22285SOL    HW168529   3.250   2.409   8.159  1.2155 -0.9258 -0.7201
22285SOL    HW268530   3.236   2.294   8.256  0.4462 -0.0659  0.2250
22286SOL     OW68531   8.948   6.251   7.455  0.1390 -0.2543 -0.1703
22286SOL    HW168532   9.010   6.239   7.383 -1.5232 -0.4561 -1.6490
22286SOL    HW268533   8.882   6.311   7.420 -1.9169 -2.0786  0.3396
22287SOL     OW68534   3.072   7.911   3.818 -0.0256 -0.0686  0.1390
22287SOL    HW168535   3.043   7.890   3.907  5.2546 -1.1841  1.9999
22287SOL    HW268536   3.115   7.997   3.827 -0.3620  0.3069 -1.6115
22288SOL     OW68537   0.885   8.803   1.470  0.2069 -0.1316  0.4632
22288SOL    HW168538   0.932   8.855   1.405 -0.0429  1.1431  1.2593
22288SOL    HW268539   0.794   8.804   1.441  0.5030 -1.9628 -0.6683
22289SOL     OW68540   0.165   3.271   5.520 -0.0193  0.1360  0.1066
22289SOL    HW168541   0.088   3.260   5.577  0.1413 -2.0844 -0.0134
22289SOL    HW268542   0.132   3.252   5.432  0.3870  0.5755 -0.1426
22290SOL     OW68543   0.956   0.809   2.447  0.0980 -0.7483 -0.8975
22290SOL    HW168544   0.917   0.764   2.372  0.5160 -0.7015 -1.1463
22290SOL    HW268545   0.900   0.786   2.521 -2.4984  2.0209 -1.7625
22291SOL     OW68546   3.535   6.968   7.784 -0.6543 -0.0877  0.3558
22291SOL    HW168547   3.490   6.897   7.828 -0.1042 -0.4536  0.3466
22291SOL    HW268548   3.520   7.045   7.840  0.3768 -0.6251  1.4286
22292SOL     OW68549   5.461   6.550   6.917 -0.2745  0.0606  0.0472
22292SOL    HW168550   5.409   6.596   6.851  0.5082 -1.2198 -1.5425
22292SOL    HW268551   5.397   6.517   6.980 -0.9904  1.7631  0.2466
22293SOL     OW68552   1.919   5.760   4.058  0.6949  0.0380  0.2369
22293SOL    HW168553   2.010   5.750   4.087  1.7543  0.1621 -2.6461
22293SOL    HW268554   1.900   5.678   4.013  0.0823  0.7638 -0.8645
22294SOL     OW68555   1.317   5.212   5.529 -0.5828 -0.5098 -0.1776
22294SOL    HW168556   1.394   5.171   5.489  0.0640  1.0398 -0.5939
22294SOL    HW268557   1.344   5.230   5.619 -1.1688 -1.7123  0.2701
22295SOL     OW68558   6.322   9.308   9.129  0.0767  0.4039  0.5363
22295SOL    HW168559   6.328   9.393   9.085  1.2494  0.6603  1.1677
22295SOL    HW268560   6.353   9.245   9.064 -0.4258  0.4921  0.2017
22296SOL     OW68561   6.307   2.615   7.782 -0.4522  0.0533 -0.1361
22296SOL    HW168562   6.294   2.709   7.789 -1.3436 -0.1637  2.1352
22296SOL    HW268563   6.236   2.584   7.727 -0.1805  0.6864 -0.8560
22297SOL     OW68564   6.749   3.925   8.093  0.5920  0.0396  0.3858
22297SOL    HW168565   6.672   3.912   8.038 -0.4902 -1.9797  2.1914
22297SOL    HW268566   6.722   3.991   8.156  0.4192 -0.4158  0.8026
22298SOL     OW68567   1.218   3.006   4.203  0.2562  0.4945  0.4244
22298SOL    HW168568   1.301   2.958   4.194 -0.4154 -0.6191 -0.0835
22298SOL    HW268569   1.155   2.939   4.227 -0.7586  1.0848 -0.4922
22299SOL     OW68570   3.640   8.630   5.003 -0.1408 -0.2899 -0.7258
22299SOL    HW168571   3.625   8.550   5.054 -1.5508  0.4540  0.0654
22299SOL    HW268572   3.554   8.653   4.969  0.3811  0.5160 -1.5272
22300SOL     OW68573   3.138   3.809   5.645  0.2170 -0.2722  0.4270
22300SOL    HW168574   3.133   3.827   5.552  2.5615 -0.1752  0.2732
22300SOL    HW268575   3.047   3.803   5.673 -0.5535 -1.4538 -2.0698
22301SOL     OW68576   0.901   7.499   0.754  0.1561  0.3425 -0.1469
22301SOL    HW168577   0.902   7.572   0.816 -0.9788  0.9731 -0.8310
22301SOL    HW268578   0.991   7.493   0.722  0.6776  0.2320  1.2908
22302SOL     OW68579   5.547   1.105   5.669  0.3845  0.3969 -0.3148
22302SOL    HW168580   5.573   1.093   5.577 -0.1884  1.2865 -0.6044
22302SOL    HW268581   5.529   1.198   5.677  3.1637  0.9247  1.4525
22303SOL     OW68582   4.711   6.107   7.462  0.0737  0.3520 -0.5091
22303SOL    HW168583   4.727   6.163   7.538  0.3945  0.9169 -0.9754
22303SOL    HW268584   4.624   6.132   7.431 -0.2626 -0.2208 -0.0543
22304SOL     OW68585   9.307   3.854   8.631 -0.4235  0.3771 -0.1078
22304SOL    HW168586   9.336   3.765   8.653  0.7431  0.7979  0.1091
22304SOL    HW268587   9.212   3.852   8.645 -0.1879 -0.3302  1.6482
22305SOL     OW68588   1.308   0.359   8.927  0.4716  0.6634 -0.2562
22305SOL    HW168589   1.353   0.355   9.011 -1.6687  0.2975  0.9455
22305SOL    HW268590   1.351   0.430   8.880  1.4312  1.1833  1.3324
22306SOL     OW68591   3.150   8.371   6.726  0.2910 -0.3976  0.1979
22306SOL    HW168592   3.097   8.450   6.718  0.5713 -0.2889 -0.7624
22306SOL    HW268593   3.238   8.402   6.745  0.5912 -0.4087 -1.0839
22307SOL     OW68594   2.866   1.601   8.608 -0.0107 -0.2533  0.1612
22307SOL    HW168595   2.933   1.668   8.593 -1.0873  1.2097  1.4968
22307SOL    HW268596   2.784   1.644   8.583 -0.5486 -1.8580 -1.0466
22308SOL     OW68597   0.672   8.915   0.784  0.1077  0.1812 -0.0673
22308SOL    HW168598   0.700   8.849   0.846 -2.2117  1.0943  2.1656
22308SOL    HW268599   0.576   8.914   0.789 -0.0684  2.5368 -1.1846
22309SOL     OW68600   6.808   2.518   5.223 -0.1271  0.7708  0.2801
22309SOL    HW168601   6.841   2.504   5.312  0.0508  2.8597  0.6037
22309SOL    HW268602   6.863   2.462   5.168 -0.6064 -0.9892  1.5127
22310SOL     OW68603   2.382   4.838   8.059 -0.0561 -0.4915  0.3246
22310SOL    HW168604   2.363   4.755   8.104 -1.6047 -0.7703 -0.7728
22310SOL    HW268605   2.391   4.902   8.130 -0.1814 -1.3344  1.1219
22311SOL     OW68606   2.077   0.518   8.191 -0.0365 -0.2710 -0.7353
22311SOL    HW168607   2.060   0.612   8.197  0.8160 -0.1194 -0.4660
22311SOL    HW268608   1.991   0.478   8.192 -0.4707  0.5626 -1.9647
22312SOL     OW68609   8.441   3.173   2.716 -0.4221  0.0260 -0.4142
22312SOL    HW168610   8.408   3.098   2.765  0.2229  0.2017  0.2948
22312SOL    HW268611   8.507   3.212   2.772 -1.1076  1.4453 -0.5474
22313SOL     OW68612   4.328   6.800   5.974 -0.4462 -0.0488  0.5433
22313SOL    HW168613   4.399   6.766   6.029  0.8993  0.0078 -1.0701
22313SOL    HW268614   4.285   6.722   5.939  1.5464 -0.2413 -1.7830
22314SOL     OW68615   0.136   1.267   0.730  0.5296 -0.3025 -0.0058
22314SOL    HW168616   0.227   1.245   0.750  0.7949  1.0203  0.3160
22314SOL    HW268617   0.092   1.263   0.815  0.8548  1.5991  0.2835
22315SOL     OW68618   9.476   3.268   7.735  0.4857 -0.0178  0.2800
22315SOL    HW168619   9.515   3.334   7.792 -0.7242 -0.1180  1.2818
22315SOL    HW268620   9.451   3.197   7.794 -1.2467  0.0846 -0.2664
22316SOL     OW68621   7.893   4.125   3.411  0.7233 -0.0578 -0.3060
22316SOL    HW168622   7.801   4.114   3.435 -0.2141  2.6041 -2.2082
22316SOL    HW268623   7.908   4.058   3.344  0.7891 -1.6749  1.2292
22317SOL     OW68624   5.411   5.374   3.540  0.5425  0.3432 -0.7349
22317SOL    HW168625   5.489   5.428   3.556  0.4040  0.2446  0.3093
22317SOL    HW268626   5.387   5.394   3.450  1.3102  0.9799 -0.8132
22318SOL     OW68627   1.073   1.026   2.338 -0.5506 -0.1738 -0.3503
22318SOL    HW168628   1.022   0.948   2.362 -1.7522  0.0681 -1.8934
22318SOL    HW268629   1.033   1.055   2.255 -0.9124  2.7397  0.7334
22319SOL     OW68630   7.847   6.482   7.894  0.1546  0.0780 -0.2708
22319SOL    HW168631   7.764   6.436   7.906 -0.2927  0.8920 -0.2091
22319SOL    HW268632   7.850   6.504   7.801  1.0635 -1.3615 -0.6158
22320SOL     OW68633   5.082   3.999   8.349 -0.3336 -0.7909 -0.4433
22320SOL    HW168634   5.065   3.988   8.255 -2.2667 -0.3716 -0.1989
22320SOL    HW268635   4.996   3.986   8.390  0.4198 -0.6660  1.2428
22321SOL     OW68636   8.634   2.133   5.687 -0.3380  0.3230  0.4971
22321SOL    HW168637   8.674   2.155   5.771  0.4691 -0.8457  0.4438
22321SOL    HW268638   8.540   2.127   5.706  0.0064 -1.8461  1.7862
22322SOL     OW68639   6.753   5.310   5.219 -0.0201  0.4972  0.1327
22322SOL    HW168640   6.797   5.293   5.136 -2.6111  0.1710 -1.2925
22322SOL    HW268641   6.712   5.227   5.243 -0.5112  0.9543  0.9532
22323SOL     OW68642   3.292   0.253   1.148 -0.3519  0.1240  0.6127
22323SOL    HW168643   3.283   0.278   1.240 -1.6531  0.1972  0.4849
22323SOL    HW268644   3.293   0.157   1.150 -1.3533  0.1092  0.6313
22324SOL     OW68645   9.541   2.566   2.472 -0.5998  0.3393  0.1239
22324SOL    HW168646   9.488   2.624   2.527 -1.9478  0.2452 -1.0405
22324SOL    HW268647   9.483   2.495   2.447  1.1450 -1.8603  1.8869
22325SOL     OW68648   2.965   7.204   0.783  0.4534 -0.0777  0.4471
22325SOL    HW168649   2.967   7.159   0.867 -3.2216  0.0936  0.7603
22325SOL    HW268650   2.928   7.290   0.802  3.9645  1.9134 -0.7236
22326SOL     OW68651   6.944   1.042   9.602 -0.8190  0.5854  0.2859
22326SOL    HW168652   6.948   1.076   9.512  0.6291  2.5889  1.0424
22326SOL    HW268653   6.859   1.070   9.634 -0.8846  0.8341 -0.0983
22327SOL     OW68654   2.405   0.388   5.226 -0.2970 -0.4901  0.0777
22327SOL    HW168655   2.410   0.410   5.133  2.5465 -2.1211 -0.2619
22327SOL    HW268656   2.444   0.463   5.270  1.1539 -0.9459 -0.3546
22328SOL     OW68657   2.019   2.394   0.294  0.1757 -0.1537 -0.1656
22328SOL    HW168658   1.975   2.375   0.377 -0.1050 -0.8494 -0.4671
22328SOL    HW268659   2.047   2.309   0.262  1.6472  0.2544 -0.0484
22329SOL     OW68660   4.778   1.190   5.873  0.6114  0.0920 -0.0623
22329SOL    HW168661   4.769   1.102   5.909 -1.4514 -0.0846 -0.8410
22329SOL    HW268662   4.737   1.185   5.786 -3.4394  2.6052  1.3792
22330SOL     OW68663   8.746   4.989   0.351 -0.2067  0.4809 -0.6424
22330SOL    HW168664   8.687   5.044   0.404  0.3869  0.5455 -0.0341
22330SOL    HW268665   8.770   5.045   0.277 -1.3628  0.2513 -1.2157
22331SOL     OW68666   2.598   8.352   7.769  0.0657 -0.2845 -0.2868
22331SOL    HW168667   2.663   8.303   7.718  0.9783  0.0007  0.5786
22331SOL    HW268668   2.649   8.408   7.826 -0.9253  1.8042 -1.3051
22332SOL     OW68669   7.372   6.074   9.192  0.2258  0.1477  0.0562
22332SOL    HW168670   7.405   6.136   9.126 -0.3656  1.0367  0.5718
22332SOL    HW268671   7.298   6.031   9.149  0.6102 -0.1851 -0.2880
22333SOL     OW68672   1.966   2.361   3.388  0.1974  0.4969  0.2152
22333SOL    HW168673   1.875   2.370   3.418  0.1324 -0.5305  0.3637
22333SOL    HW268674   1.961   2.373   3.293 -0.0905  0.4574  0.2236
22334SOL     OW68675   2.401   4.169   3.274  0.3911  0.1491 -0.0830
22334SOL    HW168676   2.438   4.127   3.197  0.4756  1.0941 -0.5692
22334SOL    HW268677   2.477   4.198   3.325  0.4069  2.4854 -1.2970
22335SOL     OW68678   0.485   7.773   0.670  0.1183 -0.6996  0.0346
22335SOL    HW168679   0.456   7.865   0.670 -2.2142 -1.3216  1.8300
22335SOL    HW268680   0.526   7.762   0.756 -1.5932 -1.8241  0.7540
22336SOL     OW68681   7.062   0.549   7.953  0.7163  0.0308  0.7462
22336SOL    HW168682   6.977   0.510   7.973  1.2794 -3.0265 -1.9271
22336SOL    HW268683   7.060   0.635   7.996 -4.3278  0.8502 -0.4525
22337SOL     OW68684   6.061   7.054   9.355 -0.2667  0.3944 -0.1932
22337SOL    HW168685   6.147   7.092   9.372  1.3009 -2.6697 -0.6063
22337SOL    HW268686   6.019   7.048   9.441  0.5311  0.6100  0.2137
22338SOL     OW68687   2.366   7.565   1.032  0.3135  0.0717  0.6024
22338SOL    HW168688   2.318   7.629   1.085 -0.9221 -0.8323  0.6364
22338SOL    HW268689   2.410   7.509   1.096 -0.4628 -0.4808  0.6726
22339SOL     OW68690   4.292   7.246   8.425  0.6360  0.8837 -0.7104
22339SOL    HW168691   4.320   7.329   8.387  0.2912  1.5571  0.4516
22339SOL    HW268692   4.330   7.246   8.513  0.8460 -0.3103 -0.7892
22340SOL     OW68693   6.400   7.468   5.550  0.3140  0.2105 -0.1839
22340SOL    HW168694   6.415   7.375   5.535 -0.3653  0.1322 -0.3973
22340SOL    HW268695   6.356   7.471   5.635 -1.2711  0.1887 -0.9762
22341SOL     OW68696   1.866   5.996   8.382  0.0220 -0.1417 -0.4305
22341SOL    HW168697   1.849   6.049   8.460  1.0515 -0.0047 -0.2844
22341SOL    HW268698   1.884   6.061   8.313 -1.4264 -0.2442 -0.9368
22342SOL     OW68699   7.465   8.534   6.271 -0.1849 -0.2651 -0.1711
22342SOL    HW168700   7.432   8.446   6.255 -0.5227  0.0889 -1.5943
22342SOL    HW268701   7.405   8.591   6.224  0.7469  0.6268 -0.3244
22343SOL     OW68702   1.695   8.366   8.911  0.7158  0.0873  0.3353
22343SOL    HW168703   1.613   8.407   8.939  0.0296 -1.7932  1.2585
22343SOL    HW268704   1.675   8.328   8.826  0.5591 -0.5249  0.6404
22344SOL     OW68705   9.436   6.464   4.585 -0.3759  0.0275 -0.0049
22344SOL    HW168706   9.351   6.507   4.572 -0.4064 -0.3621 -1.2138
22344SOL    HW268707   9.496   6.512   4.527  0.0437 -0.2251  0.2191
22345SOL     OW68708   7.353   1.090   7.552  0.6124  0.8401 -0.0970
22345SOL    HW168709   7.287   1.117   7.616  0.3939 -1.3221  0.6523
22345SOL    HW268710   7.319   1.009   7.514  2.5473 -0.0253 -0.1074
22346SOL     OW68711   4.082   5.688   7.988  0.1529 -0.2793 -0.4941
22346SOL    HW168712   4.077   5.779   7.959  0.2252  0.9752  2.9359
22346SOL    HW268713   3.993   5.654   7.976  0.0030  0.3728 -1.3553
22347SOL     OW68714   1.549   5.469   2.379 -0.3529 -0.5908  0.3919
22347SOL    HW168715   1.621   5.497   2.324 -2.1822  0.0793 -1.8330
22347SOL    HW268716   1.486   5.541   2.377 -0.9073 -0.9038  2.7078
22348SOL     OW68717   5.164   2.685   4.331  0.1621 -0.7246  0.0027
22348SOL    HW168718   5.102   2.686   4.404  0.1483  2.3609  0.0846
22348SOL    HW268719   5.179   2.592   4.313 -1.2229 -1.5732  2.7172
22349SOL     OW68720   5.696   5.488   6.021  0.1359  0.2165  0.5917
22349SOL    HW168721   5.659   5.400   6.011 -0.6299  0.8091 -3.1428
22349SOL    HW268722   5.651   5.541   5.955  3.2130  2.5186  0.1064
22350SOL     OW68723   4.144   0.136   2.944 -0.1692  0.1156  0.5446
22350SOL    HW168724   4.205   0.204   2.974 -0.4556  0.5138  0.2504
22350SOL    HW268725   4.180   0.054   2.978  0.7084  0.3058  0.0894
22351SOL     OW68726   1.040   2.356   7.596 -0.1823 -0.4304  0.1558
22351SOL    HW168727   0.987   2.411   7.654  0.8993 -0.2236  0.9735
22351SOL    HW268728   1.000   2.367   7.509 -1.7479 -0.6543  0.8208
22352SOL     OW68729   5.413   2.971   4.735  0.1937  0.1614 -0.2216
22352SOL    HW168730   5.488   2.934   4.781  0.4959  0.1290 -0.7425
22352SOL    HW268731   5.382   2.901   4.678  0.0695  0.3372 -0.3711
22353SOL     OW68732   5.953   6.780   2.075 -0.2342 -0.0033 -0.1997
22353SOL    HW168733   5.874   6.741   2.038 -0.1063  1.1590 -1.8287
22353SOL    HW268734   5.979   6.846   2.010  1.9535 -0.2227  0.3921
22354SOL     OW68735   5.490   4.425   4.602  0.3985  0.5692  0.1482
22354SOL    HW168736   5.510   4.355   4.665  1.3851 -0.0480 -0.8029
22354SOL    HW268737   5.528   4.504   4.641 -1.7684  0.8870  1.8123
22355SOL     OW68738   1.437   1.535   7.683  0.5902  0.3840 -0.3012
22355SOL    HW168739   1.504   1.509   7.746  0.5693 -1.0818 -0.8653
22355SOL    HW268740   1.467   1.500   7.599 -0.7665 -0.1298 -0.5985
22356SOL     OW68741   0.349   2.743   0.988 -0.5387  0.0126  0.1099
22356SOL    HW168742   0.423   2.799   1.009  0.2718 -0.2887 -1.7192
22356SOL    HW268743   0.308   2.785   0.912 -1.7836 -0.2504  0.6101
22357SOL     OW68744   9.542   6.489   7.787  0.3678  0.2354  0.3233
22357SOL    HW168745   9.585   6.570   7.817 -0.5477  1.8516 -2.3517
22357SOL    HW268746   9.472   6.520   7.730 -2.5884 -2.3833  2.2001
22358SOL     OW68747   2.782   8.207   6.820  0.3441 -0.0980 -0.2024
22358SOL    HW168748   2.725   8.222   6.896 -0.1583  0.6622 -0.7131
22358SOL    HW268749   2.736   8.140   6.769 -1.5075  2.3127 -1.9406
22359SOL     OW68750   4.178   8.937   7.866  0.2102 -0.7052  0.1388
22359SOL    HW168751   4.133   8.985   7.935 -1.0282  0.1190 -1.1750
22359SOL    HW268752   4.268   8.928   7.897  0.2251  1.5357  0.9220
22360SOL     OW68753   1.564   7.275   4.501  0.3364 -0.2448  0.6753
22360SOL    HW168754   1.496   7.327   4.457  0.6359 -0.2600  0.1865
22360SOL    HW268755   1.592   7.330   4.574 -0.2010 -0.2405  0.8855
22361SOL     OW68756   6.322   0.231   6.637  0.0133  0.1525 -0.0798
22361SOL    HW168757   6.400   0.284   6.618 -0.1814  0.0824 -1.1823
22361SOL    HW268758   6.315   0.231   6.732  0.2623  1.7445 -0.0405
22362SOL     OW68759   7.414   7.954   5.037  0.0876 -0.1367 -0.4400
22362SOL    HW168760   7.438   8.002   5.116  0.7016 -0.3741 -0.4823
22362SOL    HW268761   7.322   7.978   5.022 -0.5949 -1.4525  1.3294
22363SOL     OW68762   9.532   6.346   0.070  0.0782  0.0806 -0.2950
22363SOL    HW168763   9.466   6.383   0.129  0.1355 -0.7135  0.2843
22363SOL    HW268764   9.539   6.410  -0.001 -3.2231 -0.9847 -1.7817
22364SOL     OW68765   9.391   6.031   5.464  0.3175  0.5163  0.0166
22364SOL    HW168766   9.472   6.067   5.429  1.0262  0.1096  1.1712
22364SOL    HW268767   9.344   5.998   5.388  1.5855  0.0811 -0.6017
22365SOL     OW68768   3.773   8.288   8.540  0.4663 -0.4493 -0.4348
22365SOL    HW168769   3.812   8.219   8.593  0.2027  0.3760  0.8826
22365SOL    HW268770   3.809   8.369   8.577 -0.9778  0.2252 -0.4563
22366SOL     OW68771   4.574   8.238   4.027  0.3332 -0.3138 -0.1091
22366SOL    HW168772   4.662   8.274   4.031 -0.3177  1.1900  1.9075
22366SOL    HW268773   4.565   8.185   4.106 -0.4891 -0.6635 -0.4181
22367SOL     OW68774   6.149   0.865   9.138 -0.2221  0.0177  0.4871
22367SOL    HW168775   6.088   0.853   9.211  0.2395 -2.1081  0.6151
22367SOL    HW268776   6.234   0.878   9.181  0.4277 -3.2717  0.5182
22368SOL     OW68777   6.533   9.140   3.742  0.1814 -0.8552 -0.0241
22368SOL    HW168778   6.458   9.082   3.749  0.2083 -0.8113  0.7634
22368SOL    HW268779   6.526   9.198   3.818 -0.1678  0.5627 -1.0842
22369SOL     OW68780   0.531   5.458   7.883 -0.2610 -0.1249 -0.6073
22369SOL    HW168781   0.572   5.389   7.934  1.3685  0.7637 -0.6529
22369SOL    HW268782   0.492   5.516   7.948  0.1218 -0.0273 -0.4632
22370SOL     OW68783   6.096   8.512   3.442  0.1159  0.2282  0.0663
22370SOL    HW168784   6.097   8.508   3.537  0.4042  1.2183  0.1156
22370SOL    HW268785   6.177   8.558   3.419  0.2251 -0.3187 -0.6745
22371SOL     OW68786   1.643   3.120   9.167 -0.6112 -0.6578 -0.1946
22371SOL    HW168787   1.592   3.185   9.215  0.1830 -0.3210  0.2143
22371SOL    HW268788   1.583   3.088   9.099 -1.7286 -1.0830  0.9592
22372SOL     OW68789   9.210   2.058   0.194 -0.5626 -0.3513  0.1894
22372SOL    HW168790   9.289   2.076   0.142 -0.7402  1.4168  0.4709
22372SOL    HW268791   9.154   2.007   0.135  0.3392 -0.7068 -0.3864
22373SOL     OW68792   0.384   6.700   6.956  0.4405 -0.5770  0.2390
22373SOL    HW168793   0.465   6.732   6.996 -0.3382 -0.3656  1.6771
22373SOL    HW268794   0.383   6.606   6.975  0.3866 -0.5967  0.1398
22374SOL     OW68795   8.370   4.591   5.773  0.1196  0.1245  0.1831
22374SOL    HW168796   8.425   4.579   5.850 -0.8787  0.8678  1.0407
22374SOL    HW268797   8.429   4.625   5.706  0.3436  3.1202  1.7489
22375SOL     OW68798   4.648   1.430   6.645 -0.0084  0.0146  0.9693
22375SOL    HW168799   4.563   1.387   6.639 -0.0356  0.1701  0.2079
22375SOL    HW268800   4.691   1.412   6.561 -0.1695  1.7753  0.4833
22376SOL     OW68801   6.371   0.829   3.660 -0.0509  0.2321 -0.0002
22376SOL    HW168802   6.423   0.843   3.739 -0.1471  0.0922  0.0878
22376SOL    HW268803   6.399   0.742   3.629  2.7460  1.7323 -2.1777
22377SOL     OW68804   3.850   8.263   0.913  0.3226 -0.4925  0.1206
22377SOL    HW168805   3.943   8.270   0.894  0.3234  0.2720  0.3499
22377SOL    HW268806   3.843   8.191   0.976  1.1360  1.2687  2.3687
22378SOL     OW68807   3.949   7.822   8.011  0.1412 -0.1218 -0.4849
22378SOL    HW168808   3.971   7.797   7.921  0.5702 -0.6094 -0.2527
22378SOL    HW268809   3.987   7.909   8.022  1.0953 -0.5358 -0.4144
22379SOL     OW68810   4.850   8.414   3.252 -0.3504 -0.1332 -0.3353
22379SOL    HW168811   4.889   8.338   3.294  1.2527 -1.2232 -3.4582
22379SOL    HW268812   4.923   8.473   3.236 -1.2805  1.2637  0.3370
22380SOL     OW68813   3.320   2.515   5.278 -0.0221  0.2195 -0.2415
22380SOL    HW168814   3.348   2.510   5.187 -0.1913  0.7683 -0.3313
22380SOL    HW268815   3.301   2.425   5.303 -0.3988  0.1111 -0.8894
22381SOL     OW68816   2.292   3.203   5.354 -0.4396  0.0643 -0.0133
22381SOL    HW168817   2.354   3.236   5.418  0.8703 -0.1959 -1.1186
22381SOL    HW268818   2.337   3.130   5.311 -2.0353 -1.0765  0.1177
22382SOL     OW68819   3.393   4.088   7.090  0.0791 -0.5703  0.3044
22382SOL    HW168820   3.414   4.051   7.004 -1.7005  0.6737 -0.7380
22382SOL    HW268821   3.318   4.037   7.120  0.3054 -0.5929  0.8357
22383SOL     OW68822   1.141   8.853   6.537  0.0414  0.0278 -0.0749
22383SOL    HW168823   1.155   8.914   6.610 -3.1233  0.1755  0.5587
22383SOL    HW268824   1.186   8.773   6.564  1.0067  0.8627  0.8845
22384SOL     OW68825   7.432   6.957   4.928  0.4531  0.1476 -0.0231
22384SOL    HW168826   7.362   7.014   4.957  1.0746 -0.2395  2.4690
22384SOL    HW268827   7.509   7.014   4.921  0.8230 -0.1116  1.4325
22385SOL     OW68828   3.263   8.883   5.020  0.0541  0.3525 -0.4511
22385SOL    HW168829   3.307   8.951   5.072 -1.8483  0.0838  1.7190
22385SOL    HW268830   3.180   8.924   4.995  0.1464 -0.1941 -1.6694
22386SOL     OW68831   5.903   4.310   0.625 -0.5693 -0.1921 -0.3502
22386SOL    HW168832   5.892   4.381   0.688  0.2456 -0.5733  0.2315
22386SOL    HW268833   5.877   4.348   0.541  0.7398  1.0926 -0.2118
22387SOL     OW68834   3.978   1.500   8.979 -0.0767 -0.5872  0.4644
22387SOL    HW168835   3.998   1.409   9.000  0.4107 -0.0132  2.7464
22387SOL    HW268836   3.888   1.512   9.007 -0.4035 -0.5416 -0.5610
22388SOL     OW68837   3.735   9.541   8.458  0.3770  0.4900 -0.2319
22388SOL    HW168838   3.681   9.468   8.487  0.7199  0.1583 -0.4261
22388SOL    HW268839   3.673   9.607   8.428  0.0850  0.0883 -0.5021
22389SOL     OW68840   6.736   9.510   0.205  0.0652 -0.4159 -0.3815
22389SOL    HW168841   6.642   9.494   0.198 -0.5205  1.6548  1.4741
22389SOL    HW268842   6.764   9.464   0.284 -0.0231  1.1107  0.5941
22390SOL     OW68843   4.740   2.992   6.911 -0.3916 -0.0212  0.0287
22390SOL    HW168844   4.701   2.990   6.998 -0.5637  0.7463 -0.0267
22390SOL    HW268845   4.717   3.078   6.876 -0.5272 -0.4119 -0.8681
22391SOL     OW68846   1.151   1.104   7.059 -0.8622  0.5388 -0.0683
22391SOL    HW168847   1.139   1.196   7.034 -1.3908  0.4960  0.0223
22391SOL    HW268848   1.240   1.084   7.031 -1.1648  0.7187 -1.2150
22392SOL     OW68849   4.309   3.523   4.882 -0.3365  0.1881 -0.3331
22392SOL    HW168850   4.340   3.541   4.793  0.5414  0.7584  0.0740
22392SOL    HW268851   4.385   3.485   4.926 -0.4074  0.9789  0.4970
22393SOL     OW68852   4.935   2.902   2.885  0.4783 -0.1623  0.0201
22393SOL    HW168853   4.964   2.812   2.900 -0.4734 -0.7910 -1.5908
22393SOL    HW268854   5.003   2.956   2.924  0.8723 -1.5680  1.3965
22394SOL     OW68855   4.179   1.270   1.403 -0.1834  0.0554 -0.3418
22394SOL    HW168856   4.243   1.287   1.333 -0.3316  1.2625 -0.2056
22394SOL    HW268857   4.094   1.278   1.360 -0.2753 -1.1107 -0.4231
22395SOL     OW68858   3.156   5.189   9.298 -0.0644  0.1405 -0.2760
22395SOL    HW168859   3.120   5.108   9.332 -1.8648  1.3810  0.9622
22395SOL    HW268860   3.251   5.175   9.295 -0.3324 -1.9524 -0.0749
22396SOL     OW68861   5.189   1.367   1.564 -0.0996 -0.3928 -0.6399
22396SOL    HW168862   5.280   1.374   1.591  0.6196  0.4308 -3.0238
22396SOL    HW268863   5.146   1.442   1.606  0.3748 -0.5795  0.2025
22397SOL     OW68864   1.380   5.682   3.598  0.0843 -0.0750 -0.3369
22397SOL    HW168865   1.375   5.697   3.504  0.4664  0.2166 -0.3092
22397SOL    HW268866   1.300   5.633   3.618 -1.1382  1.7992 -0.4376
22398SOL     OW68867   5.282   7.656   9.424 -0.4646 -0.2097  0.8776
22398SOL    HW168868   5.255   7.574   9.467 -0.2429 -0.6562  0.1878
22398SOL    HW268869   5.254   7.645   9.333 -0.0103  0.2830  0.6747
22399SOL     OW68870   1.425   8.058   0.686  0.5316 -0.5226  0.0724
22399SOL    HW168871   1.346   8.007   0.671 -0.4485 -0.1741  3.3557
22399SOL    HW268872   1.396   8.133   0.738  2.9514 -0.1791  1.0542
22400SOL     OW68873   1.735   8.430   2.977  0.0636  0.0868  0.1812
22400SOL    HW168874   1.716   8.519   3.009  0.8365  0.2660  0.1755
22400SOL    HW268875   1.677   8.374   3.028  0.6521  0.4582  1.2934
22401SOL     OW68876   6.541   4.084   1.714 -0.4204  0.5191 -0.0417
22401SOL    HW168877   6.606   4.114   1.778 -2.3533  3.6941  0.6492
22401SOL    HW268878   6.490   4.019   1.762 -0.2553  0.9856  0.7996
22402SOL     OW68879   2.351   3.173   8.345 -0.1204  0.6361  0.2337
22402SOL    HW168880   2.271   3.167   8.293  0.3265  0.0950 -0.3985
22402SOL    HW268881   2.337   3.249   8.402 -1.3810  0.1157  0.6500
22403SOL     OW68882   5.423   9.576   8.119 -0.1203 -0.2491  0.2156
22403SOL    HW168883   5.451   9.588   8.028 -1.7576  0.6361 -0.2020
22403SOL    HW268884   5.341   9.623   8.125  0.3837  0.4476  2.4072
22404SOL     OW68885   5.678   5.040   5.522  0.0624 -0.5872 -0.0548
22404SOL    HW168886   5.753   5.086   5.482 -0.9010 -0.0288 -1.2813
22404SOL    HW268887   5.715   4.959   5.555  1.1367 -0.5636 -1.1137
22405SOL     OW68888   0.933   6.162   1.791  0.6124  0.3001  0.0443
22405SOL    HW168889   0.940   6.257   1.793 -0.5964  0.4547 -1.0050
22405SOL    HW268890   1.022   6.130   1.800  1.1309  1.5625 -0.4347
22406SOL     OW68891   2.108   5.225   5.355 -0.0965 -0.2000  0.1278
22406SOL    HW168892   2.153   5.220   5.271 -0.6310 -0.7656 -0.1281
22406SOL    HW268893   2.168   5.183   5.418 -0.9518 -2.4675 -0.5012
22407SOL     OW68894   4.540   9.364   1.119 -0.3390 -0.1188  0.2199
22407SOL    HW168895   4.621   9.318   1.140  1.7337  1.6472 -3.1008
22407SOL    HW268896   4.483   9.297   1.081 -0.2495 -1.2260  1.9160
22408SOL     OW68897   6.318   4.840   7.868 -0.1279 -0.1074  0.2847
22408SOL    HW168898   6.407   4.875   7.859  0.0457 -0.5057  0.4597
22408SOL    HW268899   6.330   4.748   7.888 -0.6065 -0.6650 -1.7962
22409SOL     OW68900   0.177   3.377   8.766  0.5127 -0.3431  0.3386
22409SOL    HW168901   0.251   3.371   8.826  0.7954 -2.6404 -0.1713
22409SOL    HW268902   0.104   3.339   8.813 -0.6380  2.5637  1.1140
22410SOL     OW68903   1.477   0.462   1.440  0.0967  0.5270 -0.8320
22410SOL    HW168904   1.393   0.505   1.458  1.3599  2.7228  0.2438
22410SOL    HW268905   1.460   0.410   1.362 -3.0798 -1.6715  1.0385
22411SOL     OW68906   5.180   4.309   0.832  0.3007  0.0779  0.0566
22411SOL    HW168907   5.148   4.268   0.752  0.7482  0.5892 -0.3920
22411SOL    HW268908   5.272   4.282   0.837 -0.3798 -2.3296  1.9235
22412SOL     OW68909   1.701   9.006   1.690 -0.3152  0.1828 -0.1621
22412SOL    HW168910   1.736   8.950   1.759  1.2449  0.0112 -1.0442
22412SOL    HW268911   1.692   9.092   1.731  3.2800  0.8130 -0.3724
22413SOL     OW68912   7.565   4.806   6.892  0.5652  0.0025  0.0060
22413SOL    HW168913   7.623   4.879   6.911 -0.0244  0.9265 -1.6358
22413SOL    HW268914   7.480   4.846   6.875 -0.4855 -1.2862  1.8309
22414SOL     OW68915   5.635   1.548   4.458  0.1325 -0.1823 -0.0865
22414SOL    HW168916   5.653   1.455   4.448  0.7578 -0.2052  1.1182
22414SOL    HW268917   5.662   1.569   4.547  0.0283  1.1627 -0.3426
22415SOL     OW68918   1.608   3.541   4.297  0.3219  0.7117 -0.3042
22415SOL    HW168919   1.528   3.514   4.343  0.5035  1.9768  0.8230
22415SOL    HW268920   1.582   3.544   4.205 -1.1707  1.7787  0.0997
22416SOL     OW68921   3.091   0.385   6.929  0.1635  0.2038  0.5020
22416SOL    HW168922   3.086   0.458   6.867 -0.5388  0.7997  1.2435
22416SOL    HW268923   3.019   0.400   6.990 -0.7335 -1.7444 -0.0115
22417SOL     OW68924   4.030   6.409   1.366 -0.0002  0.1569 -0.0877
22417SOL    HW168925   3.950   6.392   1.316  0.8684 -0.0731 -1.4432
22417SOL    HW268926   4.013   6.492   1.410 -0.5761  0.6790 -1.2420
22418SOL     OW68927   5.764   1.252   4.960  0.3608 -0.0928  0.1258
22418SOL    HW168928   5.725   1.184   5.014  0.3259 -1.7211 -1.8482
22418SOL    HW268929   5.736   1.334   5.001  1.2877 -1.1794  3.1911
22419SOL     OW68930   8.374   1.025   5.604 -0.8819  0.0398 -0.1920
22419SOL    HW168931   8.414   0.975   5.534 -1.5466  0.8794 -1.2189
22419SOL    HW268932   8.446   1.048   5.663 -0.4156 -1.1972 -0.2711
22420SOL     OW68933   5.944   2.128   0.617 -0.5158  1.0757  0.5184
22420SOL    HW168934   5.985   2.169   0.541 -1.7876 -0.1140 -0.8676
22420SOL    HW268935   5.928   2.038   0.590  1.1431 -0.1011  3.0493
22421SOL     OW68936   8.441   8.640   7.954  0.8025 -0.0319 -0.0167
22421SOL    HW168937   8.357   8.641   8.001  0.4560 -0.8809 -0.5964
22421SOL    HW268938   8.492   8.572   7.997  0.9718  0.0854 -0.0343
22422SOL     OW68939   0.295   7.790   1.508 -1.0696 -0.2023 -0.0644
22422SOL    HW168940   0.352   7.734   1.454 -0.7973 -0.4697  0.4950
22422SOL    HW268941   0.307   7.757   1.597  1.3854  2.5733  0.7764
22423SOL     OW68942   7.959   3.051   8.263  0.0567  0.2087 -0.1392
22423SOL    HW168943   8.051   3.025   8.268  0.3911  1.4449  0.5315
22423SOL    HW268944   7.958   3.119   8.195 -0.4849 -0.2582 -0.6072
22424SOL     OW68945   2.116   0.674   6.457 -0.9591 -0.1193  0.2162
22424SOL    HW168946   2.106   0.769   6.458 -0.2649 -0.0282 -0.3640
22424SOL    HW268947   2.211   0.660   6.454 -1.0708 -0.8054 -0.8613
22425SOL     OW68948   4.081   6.619   6.654 -0.4955  0.4620  0.6144
22425SOL    HW168949   4.146   6.598   6.721  0.0141  1.5223  0.4649
22425SOL    HW268950   4.000   6.579   6.686  0.3372 -1.4608  0.4818
22426SOL     OW68951   3.199   3.231   3.817 -0.4277 -0.3803  0.4819
22426SOL    HW168952   3.168   3.206   3.730  0.0670 -1.1343  0.5057
22426SOL    HW268953   3.137   3.297   3.847  0.2913  1.0713 -1.0786
22427SOL     OW68954   4.924   0.687   3.908  0.1007  0.0514  0.0912
22427SOL    HW168955   4.971   0.610   3.938 -1.8588 -1.1229  0.3279
22427SOL    HW268956   4.898   0.732   3.989 -0.0440  0.1465 -0.0086
22428SOL     OW68957   6.018   0.681   0.153  0.9600  0.2400  0.2606
22428SOL    HW168958   6.056   0.721   0.075  0.6762  2.8021  1.3462
22428SOL    HW268959   6.073   0.712   0.225 -0.6888  0.5919  1.4179
22429SOL     OW68960   3.824   1.509   4.918  0.2692  0.1142  0.2517
22429SOL    HW168961   3.799   1.417   4.909  0.1461  0.1370  0.3590
22429SOL    HW268962   3.861   1.515   5.006 -1.4107  0.5511  0.9675
22430SOL     OW68963   8.719   5.842   1.516 -0.3346 -0.5574 -0.2022
22430SOL    HW168964   8.813   5.824   1.524  0.0380  0.6046 -1.6354
22430SOL    HW268965   8.713   5.921   1.463 -2.1413 -0.7913 -0.4361
22431SOL     OW68966   1.479   5.940   4.571  0.8633 -0.3380  0.3907
22431SOL    HW168967   1.449   5.878   4.505 -1.4982 -1.6617  2.5425
22431SOL    HW268968   1.538   5.889   4.627 -1.2077 -0.8996  2.2594
22432SOL     OW68969   2.758   7.172   5.054 -0.3352 -0.2860 -0.1630
22432SOL    HW168970   2.754   7.268   5.044  0.3186 -0.1645  0.6450
22432SOL    HW268971   2.684   7.140   5.003 -0.4983  0.6457 -0.5412
22433SOL     OW68972   5.179   5.228   9.089 -0.3931  0.1471 -0.2951
22433SOL    HW168973   5.244   5.238   9.020 -0.6520 -0.5380 -0.6475
22433SOL    HW268974   5.131   5.312   9.088 -0.9997 -0.1788 -1.5935
22434SOL     OW68975   6.749   9.586   9.521  0.2458 -0.2096 -0.2236
22434SOL    HW168976   6.761   9.674   9.486 -1.8108  0.1582 -0.1083
22434SOL    HW268977   6.729   9.599   9.614  1.6157 -0.9386  0.2085
22435SOL     OW68978   2.790   4.370   9.547  0.5560 -0.0089 -0.1810
22435SOL    HW168979   2.845   4.446   9.569  0.6293 -0.1180  0.0165
22435SOL    HW268980   2.762   4.336   9.632 -0.8345  0.7800 -0.3041
22436SOL     OW68981   7.100   6.326   7.673  0.2630  0.6880 -0.1223
22436SOL    HW168982   7.125   6.273   7.748 -1.5046  1.6285  1.2129
22436SOL    HW268983   7.039   6.391   7.709 -1.1989  0.7329 -2.4987
22437SOL     OW68984   2.678   7.697   7.964 -0.2958  0.4163  0.2492
22437SOL    HW168985   2.610   7.736   7.909 -0.5843 -1.3842 -0.7574
22437SOL    HW268986   2.634   7.678   8.047 -1.1714 -0.9506 -0.4710
22438SOL     OW68987   7.105   9.101   7.458 -0.1314 -0.2987  0.2108
22438SOL    HW168988   7.092   9.194   7.478  2.1501  0.2382 -0.4892
22438SOL    HW268989   7.100   9.057   7.543 -1.8650  0.3295  0.4818
22439SOL     OW68990   5.442   1.702   4.335 -0.3467 -0.0965  0.1831
22439SOL    HW168991   5.396   1.626   4.299  1.4044 -0.7419 -0.8680
22439SOL    HW268992   5.521   1.664   4.374 -0.7097  0.9434  1.9898
22440SOL     OW68993   3.051   6.173   0.061 -0.1976  0.0985  0.1224
22440SOL    HW168994   3.118   6.126   0.011 -0.7750 -1.5834  0.8799
22440SOL    HW268995   3.016   6.236  -0.002  1.2729  0.2270 -0.6320
22441SOL     OW68996   3.532   9.190   9.317  0.1615  0.3829  0.6333
22441SOL    HW168997   3.443   9.218   9.295  0.2593  0.4529  0.3331
22441SOL    HW268998   3.589   9.242   9.260  0.2638 -1.8469 -1.4412
22442SOL     OW68999   4.942   5.828   2.934 -0.4214  0.6604  0.1772
22442SOL    HW169000   4.923   5.897   2.870 -0.1326  0.6450  0.0763
22442SOL    HW269001   4.950   5.874   3.018 -0.9140  0.6672  0.2244
22443SOL     OW69002   2.682   5.206   4.490 -0.8973 -0.2053 -0.4224
22443SOL    HW169003   2.730   5.165   4.562 -0.5178 -0.4817 -0.8233
22443SOL    HW269004   2.672   5.136   4.425 -2.7525 -0.4628  0.0649
22444SOL     OW69005   4.367   0.134   2.073 -0.0264  0.2662 -0.0690
22444SOL    HW169006   4.380   0.198   2.143  1.5008 -1.3125  1.1680
22444SOL    HW269007   4.453   0.126   2.031 -0.6069  0.2218 -1.2897
22445SOL     OW69008   1.925   9.164   9.462 -0.0613 -0.4083 -0.0174
22445SOL    HW169009   1.926   9.106   9.386  1.7385 -2.2325  1.2952
22445SOL    HW269010   1.978   9.239   9.435 -1.9258  0.4704 -1.5249
22446SOL     OW69011   5.569   1.947   4.750  0.0595  0.5975 -0.7437
22446SOL    HW169012   5.500   1.926   4.688 -0.3333  0.5060 -0.2869
22446SOL    HW269013   5.647   1.904   4.716 -0.1162  0.6686 -1.2432
22447SOL     OW69014   0.058   8.435   1.618 -0.0346  0.3148  0.4165
22447SOL    HW169015   0.103   8.386   1.550 -0.2039 -0.6759  0.9796
22447SOL    HW269016  -0.001   8.370   1.658 -1.0723  1.2673  0.4768
22448SOL     OW69017   4.661   8.471   1.566 -0.3364  0.6638  0.2600
22448SOL    HW169018   4.605   8.429   1.632  1.0982 -1.3280  0.2991
22448SOL    HW269019   4.749   8.462   1.602  0.3203  0.8947 -1.2521
22449SOL     OW69020   4.493   8.863   9.309 -0.0650  0.2292 -0.0230
22449SOL    HW169021   4.476   8.808   9.232  0.0426 -0.2013  0.2615
22449SOL    HW269022   4.583   8.895   9.296 -0.4777  1.1907 -0.7066
22450SOL     OW69023   7.947   1.953   1.641  0.0818  0.2832  0.0403
22450SOL    HW169024   7.905   2.000   1.714 -0.9539  0.8043 -0.8580
22450SOL    HW269025   7.876   1.902   1.603  0.0908  1.5873 -1.8525
22451SOL     OW69026   2.400   3.781   3.130  0.4648  0.0169 -0.2920
22451SOL    HW169027   2.485   3.743   3.152  0.3549  0.2288  0.5062
22451SOL    HW269028   2.420   3.848   3.064  0.6835 -1.2519 -1.5674
22452SOL     OW69029   3.853   3.033   3.701 -0.0028  0.2591  0.4340
22452SOL    HW169030   3.864   3.063   3.611 -0.2737 -3.9800 -1.2607
22452SOL    HW269031   3.766   3.064   3.726 -1.5686 -1.4702 -2.3006
22453SOL     OW69032   3.334   2.275   4.066  0.9237  1.0100  0.1846
22453SOL    HW169033   3.316   2.323   3.985 -0.9379 -0.7877 -0.5670
22453SOL    HW269034   3.303   2.333   4.135  1.3448  2.0450 -0.4703
22454SOL     OW69035   4.691   1.767   4.392  0.0639  0.2461  0.3756
22454SOL    HW169036   4.627   1.741   4.458 -0.0253  1.1834  0.6765
22454SOL    HW269037   4.746   1.832   4.436  1.4629 -0.7975  0.2358
22455SOL     OW69038   7.501   8.100   9.270  0.5285 -0.2202  0.4208
22455SOL    HW169039   7.551   8.179   9.252 -0.7872  0.2565 -1.5051
22455SOL    HW269040   7.546   8.031   9.222 -0.4511  0.1653 -1.1268
22456SOL     OW69041   8.194   1.762   3.798 -0.0317  0.1576 -0.2633
22456SOL    HW169042   8.183   1.734   3.707 -1.7089 -2.0300  0.5145
22456SOL    HW269043   8.284   1.739   3.819 -0.1580 -1.0379 -0.8828
22457SOL     OW69044   3.529   9.446   3.331 -0.2204 -0.6425  0.0801
22457SOL    HW169045   3.594   9.430   3.263  0.3265 -0.0289  0.4467
22457SOL    HW269046   3.516   9.541   3.329 -0.1213 -0.6066  0.8985
22458SOL     OW69047   3.346   0.526   9.441 -0.2716 -0.7996 -0.0137
22458SOL    HW169048   3.361   0.579   9.519 -2.1362 -0.8212  0.4097
22458SOL    HW269049   3.420   0.465   9.439  1.6689  1.3979 -0.2323
22459SOL     OW69050   0.570   8.326   2.609  0.4944 -0.1784 -0.3232
22459SOL    HW169051   0.603   8.396   2.552  0.1814  0.3951  0.1885
22459SOL    HW269052   0.648   8.286   2.647  0.6384  0.8797  0.5385
22460SOL     OW69053   0.181   2.629   8.392  0.0049  0.2339 -0.1886
22460SOL    HW169054   0.218   2.645   8.478  1.3667  0.8361 -0.8613
22460SOL    HW269055   0.140   2.543   8.398  0.4662  0.0898  0.9244
22461SOL     OW69056   2.580   8.789   1.739 -0.0746 -1.1293  0.2010
22461SOL    HW169057   2.543   8.865   1.692  0.5712 -0.6802  0.4053
22461SOL    HW269058   2.525   8.715   1.711  0.1724 -0.8461 -1.1351
22462SOL     OW69059   5.908   4.547   5.239  0.3091 -0.4220 -0.3382
22462SOL    HW169060   5.996   4.510   5.247  0.6228  0.2724 -0.4990
22462SOL    HW269061   5.860   4.484   5.184  0.5239 -1.0998  0.2306
22463SOL     OW69062   4.435   2.702   1.403 -0.2664  0.1881 -1.0931
22463SOL    HW169063   4.498   2.759   1.359  0.2318 -1.5443 -2.7617
22463SOL    HW269064   4.370   2.762   1.441  0.3499  1.8648 -2.5739
22464SOL     OW69065   0.366   8.244   6.353 -0.3595 -1.0602 -0.3239
22464SOL    HW169066   0.413   8.327   6.339 -1.2629 -0.6593 -1.1065
22464SOL    HW269067   0.360   8.206   6.266 -3.1860 -0.1380 -0.6213
22465SOL     OW69068   7.249   5.566   9.444 -0.5440 -0.1304  0.3137
22465SOL    HW169069   7.305   5.488   9.441 -1.0554 -0.5181  0.5422
22465SOL    HW269070   7.192   5.558   9.368 -0.1573  0.3676 -0.0319
22466SOL     OW69071   2.765   4.913   2.376  0.4552 -0.3476  0.7946
22466SOL    HW169072   2.792   4.941   2.464  4.2877  0.2216 -0.3501
22466SOL    HW269073   2.820   4.836   2.358  0.9334  0.4725 -1.5961
22467SOL     OW69074   6.710   3.015   3.780 -0.1290 -0.0282 -0.0372
22467SOL    HW169075   6.633   3.022   3.837 -1.6222 -1.4284 -1.7419
22467SOL    HW269076   6.761   3.094   3.798 -2.2948  1.2996  0.6861
22468SOL     OW69077   6.154   1.277   5.418 -0.6649  0.3380 -0.0253
22468SOL    HW169078   6.153   1.350   5.356  1.1139  0.6382  0.2533
22468SOL    HW269079   6.075   1.290   5.471  0.4853  3.1609  1.2205
22469SOL     OW69080   1.362   3.082   5.082  0.4893  0.8933 -1.0194
22469SOL    HW169081   1.362   3.021   5.008  1.8508  1.3015 -1.3931
22469SOL    HW269082   1.301   3.043   5.145  0.6156 -0.3603 -1.6290
22470SOL     OW69083   2.755   1.730   8.151 -0.2112 -0.7645 -0.3823
22470SOL    HW169084   2.835   1.780   8.135 -1.1327  0.2547 -2.0749
22470SOL    HW269085   2.762   1.654   8.094 -1.5003  0.5924 -2.4674
22471SOL     OW69086   7.213   1.348   6.420  0.3950 -0.4232 -0.1771
22471SOL    HW169087   7.134   1.308   6.457 -0.2980  1.5132  0.5982
22471SOL    HW269088   7.272   1.358   6.494  0.6201 -0.1918 -0.3860
22472SOL     OW69089   4.853   2.075   3.868 -0.5396 -0.3312 -0.3109
22472SOL    HW169090   4.771   2.046   3.909 -0.9536 -1.0924 -1.6121
22472SOL    HW269091   4.901   2.117   3.939 -2.7626  1.7002  0.1316
22473SOL     OW69092   0.715   6.129   2.734 -0.3896  0.2546  0.2179
22473SOL    HW169093   0.651   6.198   2.747  0.0181  0.6674  0.0431
22473SOL    HW269094   0.751   6.145   2.647 -2.8901 -2.3036 -1.4931
22474SOL     OW69095   2.796   8.045   9.448  0.5630  0.5702  0.1446
22474SOL    HW169096   2.750   8.101   9.386  0.8497 -1.2194 -1.7730
22474SOL    HW269097   2.887   8.073   9.443  0.8820 -0.6497 -1.5596
22475SOL     OW69098   6.062   2.498   0.460  0.2009 -0.1851 -0.1961
22475SOL    HW169099   5.967   2.490   0.471  0.2605 -0.9511 -0.2205
22475SOL    HW269100   6.087   2.568   0.521 -0.1549 -1.0492  0.9802
22476SOL     OW69101   8.246   6.647   6.719  0.6267  0.4150 -0.0880
22476SOL    HW169102   8.184   6.639   6.791  0.6213  1.1212 -0.0098
22476SOL    HW269103   8.287   6.561   6.714 -0.2646 -0.0201 -0.0640
22477SOL     OW69104   6.288   0.384   3.831  0.0524 -0.2541 -0.4803
22477SOL    HW169105   6.279   0.316   3.763 -0.3995 -0.5286 -0.1510
22477SOL    HW269106   6.359   0.439   3.800 -0.4725 -0.0862 -1.4407
22478SOL     OW69107   0.145   7.055   4.897  0.2123  0.1131  0.3606
22478SOL    HW169108   0.058   7.017   4.886 -0.5671  1.8677  0.1085
22478SOL    HW269109   0.172   7.079   4.809 -0.1839  1.8760  0.6808
22479SOL     OW69110   0.423   7.995   9.217  0.1629 -0.3275  0.2306
22479SOL    HW169111   0.330   7.972   9.214 -0.0416  0.5174 -0.2064
22479SOL    HW269112   0.468   7.912   9.213 -0.5519 -0.6655 -1.2854
22480SOL     OW69113   4.895   9.490   4.610  0.0287  0.4798  0.3832
22480SOL    HW169114   4.907   9.524   4.699  1.7362  2.0701 -0.3833
22480SOL    HW269115   4.818   9.537   4.577  0.3821  1.1446  0.4763
22481SOL     OW69116   5.995   8.051   3.306 -0.3052  0.2983  0.2311
22481SOL    HW169117   6.061   8.119   3.321 -0.0480 -0.0930  0.9154
22481SOL    HW269118   6.038   7.969   3.333 -0.8056 -0.0672 -0.0494
22482SOL     OW69119   4.447   7.701   1.656 -0.5739  0.2152  0.2391
22482SOL    HW169120   4.438   7.761   1.582 -0.4327  0.0745  0.1076
22482SOL    HW269121   4.404   7.621   1.627 -0.8436  0.2823  0.4496
22483SOL     OW69122   5.134   7.315   8.478  0.0882  0.2554 -0.6777
22483SOL    HW169123   5.111   7.407   8.486  0.2408  0.2155  0.2733
22483SOL    HW269124   5.122   7.279   8.565 -0.0321 -0.6446 -1.0564
22484SOL     OW69125   6.708   5.517   8.944  0.1007  0.2382 -0.4325
22484SOL    HW169126   6.625   5.496   8.902  0.3911 -0.6351 -0.5949
22484SOL    HW269127   6.734   5.601   8.906 -1.4282  1.2875  0.7178
22485SOL     OW69128   0.958   2.003   0.556  0.2646 -0.0456 -0.0198
22485SOL    HW169129   0.926   1.914   0.571  1.9280 -0.3496  2.1041
22485SOL    HW269130   1.026   1.992   0.489  1.8229 -0.7439  1.5981
22486SOL     OW69131   1.376   2.774   2.772 -0.0364 -0.3663 -0.1892
22486SOL    HW169132   1.441   2.808   2.834 -0.1310  0.0299 -0.3056
22486SOL    HW269133   1.401   2.812   2.688 -1.0737  0.7169 -0.0442
22487SOL     OW69134   3.095   1.223   8.507 -0.1143 -0.2727 -0.0552
22487SOL    HW169135   3.182   1.192   8.533 -0.0415 -1.0447 -1.1582
22487SOL    HW269136   3.068   1.165   8.436 -1.3742  0.1991 -0.0046
22488SOL     OW69137   9.059   9.198   7.365 -0.3316 -0.1968 -0.5660
22488SOL    HW169138   9.114   9.158   7.432 -0.6256 -1.1254 -0.8620
22488SOL    HW269139   8.974   9.211   7.408 -0.8739 -1.8587 -1.0599
22489SOL     OW69140   9.027   2.667   5.976  0.0463  0.4608  0.0575
22489SOL    HW169141   9.082   2.625   5.910 -2.6169 -1.2845 -1.2542
22489SOL    HW269142   9.035   2.611   6.053  2.3620  1.9337  0.9950
22490SOL     OW69143   0.792   8.894   3.495 -0.0079 -0.2327 -0.0627
22490SOL    HW169144   0.866   8.836   3.516  0.9263  0.6668 -0.7893
22490SOL    HW269145   0.822   8.981   3.522 -2.1020 -0.2643  2.7861
22491SOL     OW69146   4.600   2.829   9.523 -0.1187 -0.2816 -0.4991
22491SOL    HW169147   4.671   2.890   9.539 -1.0100  1.3430 -2.3420
22491SOL    HW269148   4.595   2.822   9.427  0.3656 -3.8140 -0.4161
22492SOL     OW69149   2.427   3.465   1.322  0.6014  0.4704 -0.0965
22492SOL    HW169150   2.379   3.399   1.371  1.2283  0.2540  0.2461
22492SOL    HW269151   2.365   3.537   1.310  0.8705  1.2055  2.3909
22493SOL     OW69152   7.401   4.195   8.800 -0.2027  0.1876 -0.4744
22493SOL    HW169153   7.490   4.229   8.791 -0.3937  0.8579  0.0242
22493SOL    HW269154   7.373   4.177   8.711  1.2462 -2.2859 -0.5230
22494SOL     OW69155   9.225   6.958   9.386 -0.2351  0.1885  0.1929
22494SOL    HW169156   9.279   6.966   9.307 -0.8177 -0.2179 -0.2536
22494SOL    HW269157   9.289   6.948   9.457  0.2905  0.1943 -0.2684
22495SOL     OW69158   7.587   2.518   1.434  0.9629 -0.1554 -0.4415
22495SOL    HW169159   7.527   2.590   1.416 -0.4628 -1.2177 -0.1298
22495SOL    HW269160   7.610   2.483   1.348 -0.1918 -0.7463 -0.5428
22496SOL     OW69161   4.045   7.405   4.410 -0.1645 -0.0939  0.4239
22496SOL    HW169162   4.041   7.362   4.495 -2.5886  1.6326  1.2924
22496SOL    HW269163   4.131   7.446   4.408  0.2759 -0.9026  1.6288
22497SOL     OW69164   8.783   1.059   1.335  0.2645  0.1777  0.1804
22497SOL    HW169165   8.864   1.042   1.286  0.8297  0.0273  1.1255
22497SOL    HW269166   8.742   0.973   1.344  1.1236 -0.1264  1.5623
22498SOL     OW69167   9.101   4.200   7.971  0.5169  0.4728  0.5570
22498SOL    HW169168   9.112   4.171   7.880 -1.0060  0.4590  0.3598
22498SOL    HW269169   9.189   4.227   7.997  0.9720  0.5724 -0.9488
22499SOL     OW69170   5.141   7.173   4.252 -0.2023 -0.7072 -0.1068
22499SOL    HW169171   5.118   7.251   4.201 -1.5400 -2.4808 -2.4058
22499SOL    HW269172   5.225   7.194   4.292 -0.6162  1.9563 -0.4643
22500SOL     OW69173   5.265   7.612   9.143 -0.3255  0.0468 -0.3032
22500SOL    HW169174   5.326   7.659   9.086  0.7439 -1.3264 -0.3403
22500SOL    HW269175   5.203   7.571   9.084  0.1394 -0.4915 -0.4264
22501SOL     OW69176   1.904   7.292   8.943  0.3765  0.4158 -0.3631
22501SOL    HW169177   1.949   7.210   8.966  0.3985  0.3248 -0.7290
22501SOL    HW269178   1.958   7.360   8.983 -1.7419  0.1144  3.4620
22502SOL     OW69179   1.125   3.369   5.164 -0.1833  0.2432  0.2963
22502SOL    HW169180   1.110   3.290   5.112  4.2665  0.7579 -2.3049
22502SOL    HW269181   1.167   3.338   5.244  0.0086 -0.1747  0.0372
22503SOL     OW69182   3.125   8.503   9.409 -0.2437  0.1052 -0.1126
22503SOL    HW169183   3.207   8.550   9.396 -0.3144  0.2586 -0.0052
22503SOL    HW269184   3.090   8.490   9.320 -0.0278 -0.0946 -0.1678
22504SOL     OW69185   7.292   8.221   9.398 -0.3152  0.0236  0.3626
22504SOL    HW169186   7.289   8.233   9.303  1.1740  2.0190  0.5084
22504SOL    HW269187   7.369   8.165   9.412 -0.5714 -0.3218  0.3973
22505SOL     OW69188   2.918   3.364   7.068  0.0804  0.0511 -0.1574
22505SOL    HW169189   2.986   3.428   7.091 -0.2433  0.5385 -0.5191
22505SOL    HW269190   2.841   3.417   7.050  0.1426 -0.3292 -1.7193
22506SOL     OW69191   0.374   4.461   6.120  0.0033  0.3263 -0.1951
22506SOL    HW169192   0.389   4.531   6.056 -2.2609 -1.2163 -2.6001
22506SOL    HW269193   0.422   4.386   6.084 -0.3236 -0.2540  0.5643
22507SOL     OW69194   4.300   7.786   3.718  0.5959 -0.3405  0.1446
22507SOL    HW169195   4.259   7.746   3.641  2.3139 -1.4232 -0.2632
22507SOL    HW269196   4.333   7.870   3.686  0.5810 -0.4200 -0.0823
22508SOL     OW69197   9.302   4.551   5.335 -0.0685 -0.7894 -0.5065
22508SOL    HW169198   9.233   4.485   5.333 -0.0064 -0.8674 -2.2570
22508SOL    HW269199   9.373   4.512   5.385  0.1776 -2.3076 -1.9525
22509SOL     OW69200   4.328   5.989   4.710  0.4119 -0.1475  0.5979
22509SOL    HW169201   4.339   5.939   4.790 -0.4159  0.3848  1.0546
22509SOL    HW269202   4.413   5.983   4.666  0.7784 -0.6897  1.3655
22510SOL     OW69203   3.545   8.198   7.454  0.0393  0.5341  0.4210
22510SOL    HW169204   3.464   8.237   7.488 -1.4527 -0.1923 -2.0020
22510SOL    HW269205   3.614   8.260   7.478 -1.6104  2.4578  0.4412
22511SOL     OW69206   1.792   5.524   8.353  0.6342 -0.1567 -0.3074
22511SOL    HW169207   1.745   5.567   8.425  0.8303  1.7443 -1.2637
22511SOL    HW269208   1.725   5.470   8.310  0.0825  0.1197  0.1918
22512SOL     OW69209   6.350   8.855   6.411  0.4669 -0.1267  0.4072
22512SOL    HW169210   6.363   8.899   6.496  0.6556  2.0396 -0.6695
22512SOL    HW269211   6.431   8.873   6.363  0.6393 -1.9243 -0.0288
22513SOL     OW69212   2.883   1.615   0.502 -0.0533 -0.4623  0.2085
22513SOL    HW169213   2.893   1.690   0.561 -1.2351 -0.0714 -0.0406
22513SOL    HW269214   2.966   1.609   0.455  0.1716  0.4938  0.4697
22514SOL     OW69215   8.844   9.237   7.531 -0.4251 -0.0418 -0.0418
22514SOL    HW169216   8.866   9.168   7.593  1.2014 -1.2782 -1.8548
22514SOL    HW269217   8.830   9.315   7.584  0.0493 -1.2295  1.8989
22515SOL     OW69218   8.520   2.177   1.502  0.0650  0.1559  0.1926
22515SOL    HW169219   8.492   2.118   1.431 -0.5191  2.6598 -1.8022
22515SOL    HW269220   8.456   2.248   1.500 -0.1779  0.1793  3.5632
22516SOL     OW69221   5.935   5.595   6.323 -0.0834 -0.1813 -0.2325
22516SOL    HW169222   5.942   5.624   6.414  0.2206  0.3631 -0.4326
22516SOL    HW269223   5.990   5.516   6.319 -0.6440 -0.6109  0.2210
22517SOL     OW69224   4.436   9.377   0.119 -0.0929  0.0270  0.1532
22517SOL    HW169225   4.357   9.330   0.144  0.6717 -1.4463 -0.0721
22517SOL    HW269226   4.405   9.460   0.082 -1.6521 -1.2640 -1.6404
22518SOL     OW69227   7.509   5.889   7.876  0.3599  0.5623  0.1531
22518SOL    HW169228   7.513   5.848   7.962 -0.9825 -2.0293 -0.9001
22518SOL    HW269229   7.523   5.816   7.814 -1.2446  1.8323 -1.8504
22519SOL     OW69230   2.872   9.065   1.859 -0.7523  0.3928 -0.4045
22519SOL    HW169231   2.815   9.006   1.908 -1.7487  0.8555 -0.9795
22519SOL    HW269232   2.952   9.070   1.911 -0.5126 -1.6830 -0.4811
22520SOL     OW69233   2.723   3.566   6.958 -0.1387 -0.6216  0.1526
22520SOL    HW169234   2.705   3.660   6.964 -2.7670 -1.0949  0.7153
22520SOL    HW269235   2.746   3.552   6.866  0.2852  0.5641  0.0647
22521SOL     OW69236   2.719   1.316   4.730  0.0678 -0.1041 -0.0044
22521SOL    HW169237   2.740   1.342   4.640 -0.2161 -0.1904 -0.0948
22521SOL    HW269238   2.782   1.364   4.783  1.6205 -1.6426 -0.3764
22522SOL     OW69239   4.532   9.371   6.732  0.6539 -0.6974  0.3887
22522SOL    HW169240   4.494   9.327   6.808 -0.8771 -1.7509 -0.9087
22522SOL    HW269241   4.476   9.447   6.717  1.3774 -0.0844  0.7150
22523SOL     OW69242   0.707   4.281   4.134  0.5894  0.0442  0.2047
22523SOL    HW169243   0.736   4.368   4.163  1.8828 -0.6196  1.0278
22523SOL    HW269244   0.759   4.264   4.055 -1.6499  1.1157 -1.5930
22524SOL     OW69245   7.038   1.688   5.861  0.2648 -0.2226  0.5006
22524SOL    HW169246   7.022   1.603   5.902 -1.1419 -0.0713  0.3052
22524SOL    HW269247   7.074   1.666   5.774 -2.8484 -0.7636 -0.7685
22525SOL     OW69248   7.829   4.537   2.359 -0.3823 -0.0190  0.3068
22525SOL    HW169249   7.824   4.609   2.422 -1.0619  0.4131 -0.2244
22525SOL    HW269250   7.853   4.579   2.277 -1.0043 -0.3636 -0.0598
22526SOL     OW69251   8.458   5.526   4.303 -0.0388  0.0183  0.2460
22526SOL    HW169252   8.535   5.477   4.331 -0.0763 -0.3710 -0.2934
22526SOL    HW269253   8.384   5.476   4.338 -0.0727 -0.2423 -0.1826
22527SOL     OW69254   4.224   1.711   0.240  0.3055  0.3786  0.0895
22527SOL    HW169255   4.267   1.781   0.290 -0.0382 -0.2732  1.3387
22527SOL    HW269256   4.297   1.660   0.204  0.5916  2.1196 -2.0157
22528SOL     OW69257   8.810   6.332   8.484 -0.3808  0.3093 -0.6065
22528SOL    HW169258   8.754   6.259   8.457  0.2687  0.1470 -1.5722
22528SOL    HW269259   8.890   6.292   8.516 -1.6886  0.4036  3.2807
22529SOL     OW69260   6.813   8.952   9.213  0.7199  0.7663  0.3701
22529SOL    HW169261   6.777   8.897   9.143  1.4598  0.5216  0.1668
22529SOL    HW269262   6.785   9.040   9.192  1.1570  0.7337 -0.3993
22530SOL     OW69263   7.393   0.212   1.289  0.1448  0.3279 -0.0307
22530SOL    HW169264   7.405   0.303   1.262 -0.1322  1.0667  2.1522
22530SOL    HW269265   7.480   0.173   1.280 -0.0694  0.2973 -2.5481
22531SOL     OW69266   5.466   7.414   6.885  0.2705 -0.8407 -0.2920
22531SOL    HW169267   5.457   7.344   6.820 -0.7849 -1.4975  0.5360
22531SOL    HW269268   5.378   7.428   6.918  0.1396  2.0016 -1.5222
22532SOL     OW69269   1.767   3.735   2.101 -0.5338 -0.4207 -0.2692
22532SOL    HW169270   1.822   3.786   2.160 -1.4995  0.0896  0.2143
22532SOL    HW269271   1.824   3.664   2.070  0.3879  0.1032  0.1971
22533SOL     OW69272   6.614   8.166   5.328  0.3407 -0.2458 -0.0174
22533SOL    HW169273   6.633   8.082   5.370 -1.7295  0.0713  1.7703
22533SOL    HW269274   6.593   8.224   5.401 -1.9976  0.7500 -1.3859
22534SOL     OW69275   1.770   6.993   5.664  0.0416 -0.0799 -0.5295
22534SOL    HW169276   1.704   7.001   5.733 -0.1361  0.1985 -0.7237
22534SOL    HW269277   1.727   6.943   5.595 -0.3341  0.9437 -1.0742
22535SOL     OW69278   8.654   4.176   3.205 -0.3381 -0.1215 -0.0187
22535SOL    HW169279   8.613   4.251   3.162  0.9493  0.0044 -1.1072
22535SOL    HW269280   8.673   4.206   3.294 -3.5684 -0.5755  0.9439
22536SOL     OW69281   4.744   7.786   3.060 -0.2805  0.6318 -0.1107
22536SOL    HW169282   4.718   7.694   3.061 -2.0364  1.0585  1.6099
22536SOL    HW269283   4.829   7.788   3.104  0.1900 -0.2365 -0.9515
22537SOL     OW69284   1.805   6.830   5.049  0.1083 -0.5071  0.0227
22537SOL    HW169285   1.709   6.829   5.053  0.1039  1.0364  1.0895
22537SOL    HW269286   1.828   6.921   5.031  1.3978 -0.8018  0.0401
22538SOL     OW69287   0.989   7.206   8.898  0.4065  0.1560 -0.2771
22538SOL    HW169288   0.938   7.286   8.912  0.2748  0.2534 -1.2814
22538SOL    HW269289   1.002   7.171   8.986  0.5036  1.3018  0.1859
22539SOL     OW69290   2.621   2.362   8.967 -0.3491 -0.0262 -0.0501
22539SOL    HW169291   2.670   2.371   9.049 -1.3562 -0.2818  0.5936
22539SOL    HW269292   2.683   2.319   8.907  0.3583  0.0600  0.5989
22540SOL     OW69293   5.905   8.996   8.591  0.1612  0.0823  0.3202
22540SOL    HW169294   5.852   9.054   8.537 -1.6535 -1.0793  0.7657
22540SOL    HW269295   5.940   9.052   8.660 -0.2345  0.9359 -0.1638
22541SOL     OW69296   6.350   1.687   8.309  0.1643 -0.5024 -0.3373
22541SOL    HW169297   6.442   1.706   8.329 -0.2632  1.9665 -0.3408
22541SOL    HW269298   6.353   1.613   8.249  2.0477 -1.5087  0.9171
22542SOL     OW69299   7.446   2.809   5.914  0.4699  0.0067  0.1505
22542SOL    HW169300   7.449   2.765   5.999  0.7318 -0.7170 -0.2262
22542SOL    HW269301   7.461   2.901   5.934  1.8095 -0.3261  0.7744
22543SOL     OW69302   9.335   4.557   1.964  0.0251 -0.0325 -0.6833
22543SOL    HW169303   9.397   4.630   1.960 -0.1627  0.0773 -2.2051
22543SOL    HW269304   9.390   4.479   1.961  0.1452  0.0611 -0.9918
22544SOL     OW69305   3.788   7.797   7.378  0.1998  0.8479  0.0247
22544SOL    HW169306   3.883   7.802   7.368  0.3204  0.0593  0.6858
22544SOL    HW269307   3.775   7.747   7.459 -0.7806 -0.5877 -0.9694
22545SOL     OW69308   5.770   9.333   8.620 -0.4148  0.1481  0.1084
22545SOL    HW169309   5.819   9.341   8.538  1.1581  0.5794  1.0550
22545SOL    HW269310   5.698   9.273   8.598 -0.6930  1.1008 -1.8591
22546SOL     OW69311   0.857   7.714   3.991  0.3051  0.4142 -0.2441
22546SOL    HW169312   0.883   7.719   4.083  0.3880  2.0778 -0.3283
22546SOL    HW269313   0.872   7.802   3.957 -0.1695 -0.0518 -1.7409
22547SOL     OW69314   0.782   1.383   5.997 -0.5377  0.1566 -0.1579
22547SOL    HW169315   0.751   1.452   5.938  0.4896 -0.0574 -0.9797
22547SOL    HW269316   0.706   1.325   6.009 -1.4438  1.4496  0.6256
22548SOL     OW69317   7.862   8.688   1.332 -0.2946 -0.2035 -0.4795
22548SOL    HW169318   7.802   8.622   1.297  0.1013 -1.5944  1.3028
22548SOL    HW269319   7.834   8.700   1.423  0.4451  1.1545 -0.4067
22549SOL     OW69320   6.586   2.694   5.927 -0.0095 -0.5515 -0.0161
22549SOL    HW169321   6.638   2.735   5.997  0.5982 -0.6927 -0.3716
22549SOL    HW269322   6.573   2.604   5.957 -0.6117 -0.3327  0.3748
22550SOL     OW69323   9.219   4.302   8.644  0.5598  0.3166 -0.0267
22550SOL    HW169324   9.260   4.259   8.569 -0.1313  1.5931 -1.1853
22550SOL    HW269325   9.135   4.257   8.654  2.0686 -2.2157  2.2704
22551SOL     OW69326   9.101   0.524   1.893 -0.2849  0.6183 -0.0165
22551SOL    HW169327   9.158   0.499   1.966 -0.0481  0.5451 -0.2249
22551SOL    HW269328   9.158   0.569   1.831 -0.7711  1.9866  0.4898
22552SOL     OW69329   9.559   7.422   5.326  0.2691 -0.5914  0.1065
22552SOL    HW169330   9.588   7.398   5.413  1.4491  0.6886  0.0929
22552SOL    HW269331   9.535   7.515   5.333  0.8438 -0.3316 -1.0169
22553SOL     OW69332   2.241   9.318   1.577  0.0326  1.2966  0.1320
22553SOL    HW169333   2.225   9.238   1.526 -0.8180  0.6920  1.3178
22553SOL    HW269334   2.176   9.380   1.544  0.0336  1.1830 -0.0879
22554SOL     OW69335   8.295   5.490   5.353 -0.5325 -0.0545 -0.3753
22554SOL    HW169336   8.202   5.507   5.365 -0.3993 -0.0425  0.7066
22554SOL    HW269337   8.307   5.488   5.258 -1.3794  1.3184 -0.5358
22555SOL     OW69338   7.886   3.594   9.192 -0.4837  0.1839 -0.2895
22555SOL    HW169339   7.828   3.518   9.199  0.6767 -0.9317 -2.0274
22555SOL    HW269340   7.829   3.664   9.159 -1.3744 -0.1747  0.4435
22556SOL     OW69341   3.288   5.581   8.122  0.1446 -0.3184 -0.6145
22556SOL    HW169342   3.234   5.545   8.052 -1.0859 -2.4658  1.2611
22556SOL    HW269343   3.238   5.562   8.202  1.4999  1.9392  0.8708
22557SOL     OW69344   6.455   1.920   6.998  0.1261  0.3669 -0.2195
22557SOL    HW169345   6.462   1.962   6.913 -0.6871 -1.3112 -1.1735
22557SOL    HW269346   6.409   1.838   6.980  1.0033 -0.5840  1.6540
22558SOL     OW69347   0.047   1.828   2.112  0.0618 -0.2268 -0.3265
22558SOL    HW169348   0.010   1.808   2.198 -0.7485 -0.0206 -0.6110
22558SOL    HW269349   0.139   1.848   2.129 -0.4042  1.2184  0.7012
22559SOL     OW69350   5.995   0.061   6.228  0.5566  0.8947  0.0821
22559SOL    HW169351   6.077   0.097   6.262  0.3405  0.6769  0.8475
22559SOL    HW269352   5.926   0.114   6.270  0.3027  2.0036 -1.5968
22560SOL     OW69353   8.375   5.985   9.339  0.6371  0.2168  0.3362
22560SOL    HW169354   8.294   6.034   9.322  1.0428  0.8293  0.1413
22560SOL    HW269355   8.423   5.989   9.256 -0.1378 -2.1086 -0.3126
22561SOL     OW69356   9.606   7.259   6.821 -0.6382  0.1996  0.5668
22561SOL    HW169357   9.569   7.306   6.746 -0.4587  1.7672  1.4080
22561SOL    HW269358   9.689   7.305   6.839 -0.0022 -1.0338  0.8722
22562SOL     OW69359   9.197   8.873   6.577  0.1470 -0.1867 -0.5576
22562SOL    HW169360   9.240   8.952   6.545  3.3763 -0.7964  1.8004
22562SOL    HW269361   9.119   8.904   6.623  1.3492  1.6503  0.3156
22563SOL     OW69362   6.668   9.327   1.787 -0.5595  0.4899  0.4229
22563SOL    HW169363   6.708   9.243   1.810 -0.1738  0.5443 -0.0440
22563SOL    HW269364   6.603   9.342   1.857  1.6171  1.4023  2.3867
22564SOL     OW69365   3.886   5.992   9.460  0.1621  0.3733  0.0824
22564SOL    HW169366   3.814   6.043   9.496 -0.4330 -0.0034 -0.5416
22564SOL    HW269367   3.889   5.913   9.514  2.8549  2.1563  2.8463
22565SOL     OW69368   1.073   1.686   2.535 -0.2861 -0.1921 -0.3621
22565SOL    HW169369   1.149   1.730   2.572 -2.1088  0.3561  3.1630
22565SOL    HW269370   1.093   1.593   2.544  0.8193 -0.1098 -1.6054
22566SOL     OW69371   4.751   0.702   5.256 -0.5461  0.1176 -0.2383
22566SOL    HW169372   4.745   0.622   5.204 -1.8768 -0.2886  0.4846
22566SOL    HW269373   4.777   0.770   5.194 -0.1068 -0.7300 -1.0037
22567SOL     OW69374   7.865   0.436   5.747  0.0654 -0.4541  0.6275
22567SOL    HW169375   7.876   0.531   5.748 -1.2569 -0.2818  1.0503
22567SOL    HW269376   7.947   0.402   5.711  0.4626  0.8536  0.2629
22568SOL     OW69377   4.267   2.083   2.663 -0.1269  0.4804  0.0839
22568SOL    HW169378   4.179   2.047   2.665 -0.0276  0.2667  1.3250
22568SOL    HW269379   4.324   2.010   2.685  0.1550  1.1258  1.6288
22569SOL     OW69380   7.386   4.337   7.722 -0.4962  0.5168 -0.0941
22569SOL    HW169381   7.388   4.293   7.637 -1.5572 -0.4767  0.3772
22569SOL    HW269382   7.296   4.367   7.732 -0.7790 -0.6847  1.3020
22570SOL     OW69383   1.987   2.473   8.407 -0.0894 -0.4831  0.7078
22570SOL    HW169384   1.995   2.479   8.503 -1.2413  2.3033  0.7202
22570SOL    HW269385   2.073   2.498   8.374 -0.2076  0.3959  1.0348
22571SOL     OW69386   7.316   6.692   1.683 -0.1237  0.1819  0.1126
22571SOL    HW169387   7.227   6.667   1.707 -0.0138 -0.8522 -0.5149
22571SOL    HW269388   7.372   6.621   1.714  0.2742 -0.0442 -1.0596
22572SOL     OW69389   9.049   9.111   8.321  0.1549  0.3239 -0.0312
22572SOL    HW169390   9.140   9.119   8.350  0.9134  0.1455 -2.1305
22572SOL    HW269391   9.047   9.158   8.238 -1.6484  0.1907 -0.0917
22573SOL     OW69392   4.921   0.010   0.241 -0.0978 -0.5030  0.2072
22573SOL    HW169393   4.916   0.104   0.226 -1.2966 -0.6687 -0.6097
22573SOL    HW269394   4.959  -0.025   0.160  1.0401 -0.6643  0.7945
22574SOL     OW69395   9.149   6.011   2.140 -0.6286  0.2216 -0.2918
22574SOL    HW169396   9.056   6.036   2.146 -0.8503 -0.6138 -0.0558
22574SOL    HW269397   9.155   5.962   2.059 -1.0668 -2.2908  1.0747
22575SOL     OW69398   1.445   8.325   2.735  0.2363 -0.0052 -0.3444
22575SOL    HW169399   1.374   8.287   2.683 -0.4527  2.5174 -1.4038
22575SOL    HW269400   1.520   8.325   2.675  0.9413 -1.7943  0.4622
22576SOL     OW69401   8.591   7.740   3.685  0.1005 -0.1504 -0.0167
22576SOL    HW169402   8.639   7.713   3.763 -1.5474  1.3737  1.6223
22576SOL    HW269403   8.499   7.724   3.705 -0.2986 -3.5385 -3.2877
22577SOL     OW69404   2.351   2.489   5.864 -0.3358 -0.0939 -0.2887
22577SOL    HW169405   2.267   2.533   5.856 -2.2180 -2.8931  2.0208
22577SOL    HW269406   2.336   2.401   5.828  1.8713 -0.4192 -0.5540
22578SOL     OW69407   7.018   8.450   2.700  0.1662  0.7005  0.7137
22578SOL    HW169408   7.040   8.361   2.729 -0.4190  0.1864 -0.3674
22578SOL    HW269409   6.923   8.456   2.709  0.1315  0.9946  0.1985
22579SOL     OW69410   0.976   3.926   6.963 -0.1635  0.2455 -0.1418
22579SOL    HW169411   0.908   3.916   7.029 -0.5115 -0.0382 -0.5370
22579SOL    HW269412   1.011   3.838   6.951 -0.3363  0.2319 -0.5759
22580SOL     OW69413   0.635   8.859   0.354 -0.0639  0.0643 -0.0086
22580SOL    HW169414   0.704   8.830   0.414 -1.2000  0.8275  1.7467
22580SOL    HW269415   0.562   8.800   0.372 -1.7837  2.6553  2.3173
22581SOL     OW69416   3.905   5.746   5.491  0.3523 -0.0346  0.2811
22581SOL    HW169417   3.843   5.794   5.545  0.8280  1.0731 -0.1370
22581SOL    HW269418   3.988   5.751   5.539  0.6625  0.5322 -0.3062
22582SOL     OW69419   1.500   2.913   1.159 -0.0675 -0.4407  0.4076
22582SOL    HW169420   1.582   2.866   1.146  0.7402  1.4319 -2.3404
22582SOL    HW269421   1.435   2.845   1.178  1.7828 -2.1425  0.9245
22583SOL     OW69422   1.308   9.320   0.158  0.1189  0.2534  0.3452
22583SOL    HW169423   1.279   9.229   0.165  1.4809 -0.5973 -2.9256
22583SOL    HW269424   1.401   9.317   0.179  0.1850  0.8772  0.1493
22584SOL     OW69425   7.108   4.570   8.553 -0.3430  0.2593  1.0736
22584SOL    HW169426   7.150   4.635   8.497  0.1251 -1.1774 -0.3056
22584SOL    HW269427   7.113   4.608   8.641  4.4897  0.0099  1.2029
22585SOL     OW69428   5.795   7.440   4.365 -0.2696  0.1280 -0.0028
22585SOL    HW169429   5.821   7.514   4.309 -1.5261  2.2507  2.0484
22585SOL    HW269430   5.825   7.464   4.453 -1.1260 -1.6188  0.8216
22586SOL     OW69431   8.325   8.685   0.619  0.3214 -0.0708  0.3699
22586SOL    HW169432   8.301   8.593   0.622  1.3163 -0.4081 -1.1686
22586SOL    HW269433   8.291   8.721   0.701 -0.0445 -1.7973  1.0167
22587SOL     OW69434   2.975   6.023   6.678  0.3397  0.0861  0.3400
22587SOL    HW169435   2.957   6.035   6.585  1.5996 -0.5874 -0.0158
22587SOL    HW269436   3.010   6.108   6.706  0.9161 -0.0174 -0.0483
22588SOL     OW69437   7.162   7.172   4.546 -0.1494  0.2869 -0.3028
22588SOL    HW169438   7.076   7.147   4.511 -0.3059  1.3371 -0.6932
22588SOL    HW269439   7.215   7.190   4.468 -0.3088  2.0157 -0.0336
22589SOL     OW69440   2.993   3.030   6.825  0.2922 -0.3096 -0.1605
22589SOL    HW169441   3.027   3.114   6.795 -0.4391 -0.3318 -1.0871
22589SOL    HW269442   3.072   2.980   6.849  0.7267  0.6379  0.4309
22590SOL     OW69443   6.093   1.668   9.435 -0.0396  0.0927 -0.1832
22590SOL    HW169444   6.038   1.663   9.357  2.2704  0.2807 -1.9342
22590SOL    HW269445   6.111   1.577   9.457 -1.7096  0.0050  0.9470
22591SOL     OW69446   4.162   5.755   8.511 -0.7549  0.1443  0.0994
22591SOL    HW169447   4.128   5.801   8.435  0.0767  1.1738  0.3151
22591SOL    HW269448   4.099   5.685   8.528 -1.6440  0.7226 -0.7264
22592SOL     OW69449   0.995   0.199   3.673  0.4662 -0.2453 -0.1755
22592SOL    HW169450   0.989   0.269   3.738  0.2419 -0.1425 -0.3058
22592SOL    HW269451   1.039   0.127   3.719  1.6015  0.3222 -0.3300
22593SOL     OW69452   2.857   5.913   6.905  0.3427 -0.1098  0.5209
22593SOL    HW169453   2.894   5.956   6.828  0.4520  0.4311  0.8660
22593SOL    HW269454   2.763   5.930   6.899  0.2280 -0.8653  0.0241
22594SOL     OW69455   7.095   4.680   9.052  0.2005 -0.2074  0.6545
22594SOL    HW169456   7.014   4.721   9.082  0.7090  1.2265  0.1276
22594SOL    HW269457   7.154   4.753   9.034  0.0349 -0.8833 -3.5463
22595SOL     OW69458   6.316   1.087   0.399  0.2864  0.4652  0.2342
22595SOL    HW169459   6.338   1.142   0.474  1.2224 -0.2934  0.5430
22595SOL    HW269460   6.261   1.018   0.435 -0.0919  0.6586  0.0312
22596SOL     OW69461   3.990   0.381   9.147  0.5223 -0.0053 -0.0411
22596SOL    HW169462   4.078   0.418   9.155  0.4999  0.1949 -0.6546
22596SOL    HW269463   3.989   0.339   9.061 -0.2501  0.7389 -0.4129
22597SOL     OW69464   9.431   1.107   1.100 -0.6284  0.4625  0.2003
22597SOL    HW169465   9.380   1.027   1.088 -2.3700  1.4226  0.7639
22597SOL    HW269466   9.366   1.173   1.125  1.1713  1.2690  3.2549
22598SOL     OW69467   4.525   6.705   0.969 -0.1265  0.4248  0.4910
22598SOL    HW169468   4.585   6.757   0.916 -0.3742 -1.4747 -1.8188
22598SOL    HW269469   4.576   6.629   0.998 -1.0716 -0.6751 -0.6074
22599SOL     OW69470   4.079   5.839   3.233  0.6200 -0.3829  0.2997
22599SOL    HW169471   4.056   5.932   3.244 -1.6193 -0.6167 -1.5869
22599SOL    HW269472   4.170   5.841   3.203  1.3897  1.0165  2.4833
22600SOL     OW69473   0.388   8.152   0.021  0.6420  0.5902 -0.1503
22600SOL    HW169474   0.420   8.185  -0.063 -0.0863 -2.5091 -1.8182
22600SOL    HW269475   0.462   8.101   0.056 -0.0239 -0.6500 -0.4842
22601SOL     OW69476   8.583   7.650   2.070 -0.0520 -0.4940  0.1190
22601SOL    HW169477   8.601   7.701   1.991  0.2624 -1.0771 -0.1976
22601SOL    HW269478   8.583   7.559   2.039 -0.0968 -0.7153  0.7637
22602SOL     OW69479   8.393   0.786   3.361 -0.1200 -0.1318 -0.1656
22602SOL    HW169480   8.339   0.865   3.355  0.1021  0.0534  0.2367
22602SOL    HW269481   8.483   0.818   3.364 -0.0884 -0.1200  3.5899
22603SOL     OW69482   7.532   9.350   8.140  0.1683  0.2882 -0.3391
22603SOL    HW169483   7.556   9.402   8.063 -2.4415  0.9062 -0.8611
22603SOL    HW269484   7.615   9.320   8.176  1.6021  1.8919 -2.0704
22604SOL     OW69485   0.940   5.703   4.629 -0.8569 -0.2415 -0.1290
22604SOL    HW169486   0.887   5.782   4.623 -0.1939  0.2678  0.6083
22604SOL    HW269487   0.953   5.689   4.723 -1.1155 -1.3312 -0.2347
22605SOL     OW69488   3.552   7.977   3.477  0.3684  0.3145 -0.1527
22605SOL    HW169489   3.645   7.954   3.484 -0.0644 -1.4945  0.3558
22605SOL    HW269490   3.550   8.072   3.488  2.0799  0.2979  0.7089
22606SOL     OW69491   1.107   9.087   4.570 -0.3402 -0.1967 -0.2844
22606SOL    HW169492   1.121   8.993   4.566 -1.6674 -0.3752 -1.4056
22606SOL    HW269493   1.156   9.122   4.496 -0.8994 -0.1508 -0.6338
22607SOL     OW69494   5.884   2.826   7.267  0.0712  0.4064 -0.1751
22607SOL    HW169495   5.952   2.845   7.331 -0.9461  0.4734  0.9352
22607SOL    HW269496   5.926   2.768   7.203  0.3284 -2.4874  2.3582
22608SOL     OW69497   1.365   0.424   7.176 -0.3600  0.1500  0.1586
22608SOL    HW169498   1.359   0.499   7.235  0.6409 -0.3629  0.9454
22608SOL    HW269499   1.454   0.427   7.141 -1.3758  1.3665 -2.6638
22609SOL     OW69500   9.044   8.633   6.574 -0.3559  0.6926  0.2861
22609SOL    HW169501   8.953   8.655   6.553 -0.3175  1.1200  0.5518
22609SOL    HW269502   9.093   8.713   6.556  0.2479 -0.0259 -1.4753
22610SOL     OW69503   7.694   7.230   5.865  0.3299  0.2622 -0.0173
22610SOL    HW169504   7.762   7.283   5.908  0.4074  0.6954 -0.6623
22610SOL    HW269505   7.612   7.260   5.905  0.5599 -0.7175  1.2301
22611SOL     OW69506   9.628   3.244   3.084  0.0267 -0.1770  0.1782
22611SOL    HW169507   9.711   3.251   3.131  0.5929 -0.6534 -0.7241
22611SOL    HW269508   9.592   3.333   3.085  0.5278  0.0256  0.6145
22612SOL     OW69509   4.974   1.138   8.111 -0.4088 -0.2727  0.2516
22612SOL    HW169510   5.058   1.144   8.067  0.1044  1.8978  1.4017
22612SOL    HW269511   4.911   1.174   8.049 -0.4249 -1.3274 -0.3699
22613SOL     OW69512   1.454   4.551   3.674  0.0942 -0.8045  0.4833
22613SOL    HW169513   1.466   4.640   3.641 -0.0766 -1.7288 -2.3715
22613SOL    HW269514   1.520   4.541   3.742  0.8453  1.1656  0.1004
22614SOL     OW69515   3.417   0.816   8.404  0.2408 -0.2586 -0.3197
22614SOL    HW169516   3.437   0.896   8.357 -1.0850  1.0514  1.2161
22614SOL    HW269517   3.330   0.830   8.440  0.8283 -1.4987  1.7898
22615SOL     OW69518   2.875   7.706   5.030 -0.1771  0.5700 -0.4038
22615SOL    HW169519   2.904   7.793   5.055 -1.9922  1.2542 -0.5240
22615SOL    HW269520   2.852   7.714   4.937 -0.8165  0.0965 -0.2938
22616SOL     OW69521   3.639   1.254   9.505  0.1673  0.3644  0.4803
22616SOL    HW169522   3.700   1.193   9.463 -0.3204  0.5951 -0.5756
22616SOL    HW269523   3.607   1.309   9.434 -1.6528 -0.0610  0.9221
22617SOL     OW69524   0.440   2.832   4.610  0.1316 -0.0106 -0.3474
22617SOL    HW169525   0.429   2.789   4.694  1.5930 -0.5106 -0.3749
22617SOL    HW269526   0.469   2.921   4.631  1.9977 -0.5860 -0.2785
22618SOL     OW69527   0.387   1.255   2.598  0.0504  0.5531 -0.3288
22618SOL    HW169528   0.438   1.192   2.650  0.6058 -0.1427 -1.6712
22618SOL    HW269529   0.447   1.329   2.587  1.0222 -0.4496 -2.2900
22619SOL     OW69530   8.913   6.697   3.479 -0.0459  0.3350  0.7348
22619SOL    HW169531   8.977   6.702   3.408 -1.3121 -2.9456 -0.8922
22619SOL    HW269532   8.948   6.630   3.538 -0.3787  0.9915  1.7040
22620SOL     OW69533   8.555   5.379   3.922 -0.5551  0.2400 -0.1720
22620SOL    HW169534   8.551   5.436   3.999 -1.1037  0.5970 -0.4645
22620SOL    HW269535   8.591   5.434   3.853  0.9345 -0.3682  0.0741
22621SOL     OW69536   8.091   1.034   0.184  0.0667 -0.0441 -0.1649
22621SOL    HW169537   7.999   1.032   0.211 -0.5386  0.6579 -1.9905
22621SOL    HW269538   8.134   0.968   0.238 -1.4384 -0.1416  0.9695
22622SOL     OW69539   4.355   2.859   7.424 -0.0031  0.3307 -0.4733
22622SOL    HW169540   4.367   2.829   7.515 -1.7636 -0.6994 -0.5294
22622SOL    HW269541   4.434   2.908   7.404  0.7829 -0.1134  1.3573
22623SOL     OW69542   7.672   1.652   0.870  0.0279  0.2916  0.3272
22623SOL    HW169543   7.690   1.709   0.795 -0.9604 -0.1837 -0.2942
22623SOL    HW269544   7.742   1.587   0.869  0.6665  0.9649  0.5140
22624SOL     OW69545   0.546   4.276   6.833  1.0090 -0.1059 -0.1358
22624SOL    HW169546   0.635   4.250   6.810  0.8441 -1.3083  0.4979
22624SOL    HW269547   0.493   4.197   6.819 -0.0520  0.7264 -0.9681
22625SOL     OW69548   1.877   3.931   3.966  0.5802 -0.1969  0.3173
22625SOL    HW169549   1.958   3.964   4.005  0.2031 -0.2265  1.1407
22625SOL    HW269550   1.857   3.852   4.016  0.7551 -0.9553 -0.7663
22626SOL     OW69551   4.137   4.313   8.178 -0.2899 -0.2790  0.2419
22626SOL    HW169552   4.117   4.225   8.146  0.0732 -0.9968  1.9002
22626SOL    HW269553   4.054   4.361   8.170 -1.2018 -1.5275  1.6538
22627SOL     OW69554   1.958   5.844   2.650 -0.0075  0.5750 -0.4217
22627SOL    HW169555   1.919   5.778   2.707 -0.5282  1.5274  0.3610
22627SOL    HW269556   2.049   5.851   2.680 -0.1105  0.6247 -0.1165
22628SOL     OW69557   1.594   9.394   8.985 -0.1228 -0.0771  0.0430
22628SOL    HW169558   1.622   9.484   9.004 -2.3204  0.4936  1.0048
22628SOL    HW269559   1.508   9.387   9.027  1.2180 -3.6468  2.7188
22629SOL     OW69560   2.122   3.082   8.753 -0.4634 -0.1597  0.9054
22629SOL    HW169561   2.112   3.089   8.848 -1.2703 -0.5594  0.8554
22629SOL    HW269562   2.035   3.057   8.721 -0.0424 -0.6727  0.1267
22630SOL     OW69563   6.801   0.543   7.746  0.0965 -0.3882  0.1821
22630SOL    HW169564   6.784   0.524   7.653 -0.1156 -1.3223  0.3953
22630SOL    HW269565   6.749   0.621   7.764 -0.5032 -0.6659 -0.2910
22631SOL     OW69566   9.034   0.478   1.488 -0.1634  0.1845 -0.3484
22631SOL    HW169567   8.947   0.453   1.518  0.3920 -0.7487  0.5294
22631SOL    HW269568   9.023   0.569   1.458 -0.8672  1.1001  2.3604
22632SOL     OW69569   6.418   2.445   1.884  0.1047  0.1773  0.7624
22632SOL    HW169570   6.487   2.506   1.908  0.7955 -0.7320  1.1609
22632SOL    HW269571   6.407   2.456   1.790  0.1588  0.9676  0.8446
22633SOL     OW69572   1.928   5.804   8.102 -0.0288  0.0717  0.2955
22633SOL    HW169573   1.848   5.753   8.086  0.9548 -1.0349 -1.4720
22633SOL    HW269574   1.896   5.891   8.126 -1.7990 -0.2008 -0.8222
22634SOL     OW69575   9.003   8.272   5.868  0.2077  0.1136 -0.1191
22634SOL    HW169576   8.986   8.361   5.837  0.5587  0.1056 -0.3409
22634SOL    HW269577   8.939   8.218   5.821 -0.4428  0.3256  0.5032
22635SOL     OW69578   0.710   2.651   7.198 -0.0799  0.6956 -0.0713
22635SOL    HW169579   0.693   2.725   7.256 -0.4125  1.1913 -0.7810
22635SOL    HW269580   0.713   2.575   7.256  0.3622  1.2723  0.6761
22636SOL     OW69581   6.971   3.670   4.806 -0.2748  0.0216 -0.0292
22636SOL    HW169582   7.058   3.634   4.826  0.9555  2.0914 -1.3046
22636SOL    HW269583   6.961   3.744   4.864 -0.6568  0.5320 -0.7290
22637SOL     OW69584   5.362   4.568   3.410 -0.3312 -0.0094 -0.5659
22637SOL    HW169585   5.452   4.537   3.421 -0.8096 -1.2277  0.1465
22637SOL    HW269586   5.344   4.618   3.490 -0.5809 -0.5445 -0.2833
22638SOL     OW69587   6.791   8.065   5.850  0.3904  0.1696  0.0564
22638SOL    HW169588   6.728   8.103   5.789 -0.1099  0.2637  0.6138
22638SOL    HW269589   6.865   8.038   5.796 -0.6426 -1.0701 -0.7940
22639SOL     OW69590   0.100   1.209   6.013 -0.4477 -0.0426 -0.7041
22639SOL    HW169591   0.138   1.129   6.050  1.6529  1.2802  0.1931
22639SOL    HW269592   0.083   1.188   5.921  1.1971 -1.1814 -0.7854
22640SOL     OW69593   5.089   3.160   8.430 -0.5416  0.5821 -0.4368
22640SOL    HW169594   5.158   3.203   8.480  0.5744 -2.3227  0.7896
22640SOL    HW269595   5.014   3.158   8.489 -0.1488 -0.2968  0.0546
22641SOL     OW69596   1.398   7.654   7.745 -0.2580 -0.0906 -0.2200
22641SOL    HW169597   1.459   7.724   7.768 -2.3362  1.7505  0.0051
22641SOL    HW269598   1.311   7.692   7.758 -1.5036 -2.8727  0.2940
22642SOL     OW69599   4.728   9.124   5.115  0.0091 -0.1340 -0.4677
22642SOL    HW169600   4.768   9.192   5.169 -0.4065  0.4476 -0.8926
22642SOL    HW269601   4.652   9.166   5.075 -0.9123 -1.1593  0.1511
22643SOL     OW69602   9.394   1.474   5.101 -0.3480  0.1899  0.0902
22643SOL    HW169603   9.489   1.483   5.109 -0.4907  0.6718  1.5114
22643SOL    HW269604   9.367   1.427   5.180 -1.2457 -0.4259 -0.5519
22644SOL     OW69605   0.248   5.214   1.273 -0.1268  0.2292  0.1445
22644SOL    HW169606   0.269   5.306   1.294 -2.0296  0.4357  1.3626
22644SOL    HW269607   0.200   5.183   1.349 -0.6363 -1.4080 -0.8051
22645SOL     OW69608   3.074   7.354   4.120  0.2544  0.9624 -0.3282
22645SOL    HW169609   3.158   7.383   4.086  1.3109 -0.1310  1.2333
22645SOL    HW269610   3.038   7.432   4.163  1.1423  1.0842  0.2230
22646SOL     OW69611   6.599   8.197   6.727  0.1672  0.8334 -0.8601
22646SOL    HW169612   6.504   8.189   6.715 -0.2373 -3.3940  2.6888
22646SOL    HW269613   6.636   8.133   6.666  0.5179  0.6381 -0.4421
22647SOL     OW69614   6.542   6.684   4.995 -0.0503 -0.2654 -0.1852
22647SOL    HW169615   6.521   6.731   5.076  1.5104 -1.1852  0.8151
22647SOL    HW269616   6.467   6.700   4.938 -1.6567 -0.3324  1.7702
22648SOL     OW69617   3.230   5.653   3.783  0.0058 -0.3664  0.4287
22648SOL    HW169618   3.184   5.708   3.846  0.6876  0.9178 -0.1607
22648SOL    HW269619   3.305   5.619   3.832 -0.6340 -1.1282  0.9093
22649SOL     OW69620   7.482   9.137   0.414 -0.2473 -0.4094  0.3582
22649SOL    HW169621   7.444   9.050   0.423 -1.6568  0.2845  1.6014
22649SOL    HW269622   7.572   9.127   0.447 -0.6644 -1.2231  1.3190
22650SOL     OW69623   2.762   4.018   4.193 -0.6022  0.3055 -0.7501
22650SOL    HW169624   2.779   4.103   4.232 -1.1896 -0.2747  0.8623
22650SOL    HW269625   2.753   4.036   4.100 -1.8173  2.1943 -0.3310
22651SOL     OW69626   4.418   4.344   9.057  0.1778 -0.0722 -0.4258
22651SOL    HW169627   4.331   4.348   9.017  0.2903  0.6038 -0.6077
22651SOL    HW269628   4.404   4.371   9.147  0.1945 -0.0115 -0.4414
22652SOL     OW69629   6.950   4.425   5.605  0.1599 -0.5975 -0.0737
22652SOL    HW169630   7.040   4.413   5.636  0.9899  0.4164 -1.9556
22652SOL    HW269631   6.930   4.345   5.556  0.8461  0.0683 -1.4696
22653SOL     OW69632   5.206   0.050   8.130 -0.5339 -0.5698  0.2694
22653SOL    HW169633   5.113   0.029   8.130 -0.8057  0.4821  1.5417
22653SOL    HW269634   5.208   0.146   8.126  0.4758 -0.5595  0.7959
22654SOL     OW69635   3.628   9.601   4.458 -0.1329 -0.1720  0.2865
22654SOL    HW169636   3.614   9.603   4.364 -0.7331  0.0047  0.3761
22654SOL    HW269637   3.657   9.689   4.481 -0.2648 -0.1335  0.3076
22655SOL     OW69638   0.661   7.008   0.095  0.0015 -1.0485  0.0336
22655SOL    HW169639   0.679   6.951   0.170  1.3571 -1.3265 -0.4608
22655SOL    HW269640   0.596   6.959   0.044 -1.4798 -0.5317  1.3409
22656SOL     OW69641   2.410   2.764   5.463  0.0271  0.1502  0.4237
22656SOL    HW169642   2.477   2.716   5.512  0.0165 -0.8097 -0.4720
22656SOL    HW269643   2.382   2.704   5.394  0.0710  1.4610 -0.8004
22657SOL     OW69644   1.786   9.075   2.320 -0.3374 -0.3772 -0.1315
22657SOL    HW169645   1.779   8.998   2.377  0.6888  0.9737  1.9083
22657SOL    HW269646   1.880   9.090   2.311 -0.5100  0.1596 -1.2133
22658SOL     OW69647   1.034   5.749   2.349 -0.8251  0.1628 -0.8445
22658SOL    HW169648   1.073   5.835   2.358  0.3605 -0.4096 -0.2961
22658SOL    HW269649   1.014   5.723   2.439  2.0582 -1.5450 -0.5716
22659SOL     OW69650   6.798   8.227   7.501  0.5697 -0.2999 -0.0632
22659SOL    HW169651   6.860   8.282   7.453  1.8898 -0.8907  0.9154
22659SOL    HW269652   6.829   8.138   7.486 -1.4814 -0.8607 -1.5533
22660SOL     OW69653   3.741   4.627   4.669  0.1216 -0.1581  0.6097
22660SOL    HW169654   3.688   4.705   4.653  0.5855 -0.1626 -1.2288
22660SOL    HW269655   3.810   4.631   4.602  0.8432 -1.5351  1.2294
22661SOL     OW69656   2.377   8.245   2.768 -0.0175  0.4222 -0.1928
22661SOL    HW169657   2.463   8.227   2.731 -0.4334 -1.0507 -0.4882
22661SOL    HW269658   2.329   8.290   2.698 -0.1168 -0.4916 -0.7224
22662SOL     OW69659   3.457   8.400   1.294  0.2078 -0.1061 -0.0282
22662SOL    HW169660   3.488   8.478   1.339 -3.0086 -0.6790  3.7029
22662SOL    HW269661   3.478   8.328   1.353 -0.7704 -1.5092 -1.3102
22663SOL     OW69662   3.192   3.362   7.322  0.6357 -0.3382  0.2421
22663SOL    HW169663   3.260   3.348   7.257 -0.8811  0.3189 -1.5975
22663SOL    HW269664   3.145   3.279   7.327  0.4938 -0.2649  0.1564
22664SOL     OW69665   3.318   4.182   5.947 -0.1187  0.3729  0.0025
22664SOL    HW169666   3.347   4.206   5.859  1.6130  1.2824  0.7529
22664SOL    HW269667   3.353   4.252   6.003  2.0191 -1.9933  1.8577
22665SOL     OW69668   9.616   5.126   4.616  0.0968  0.3432  0.0702
22665SOL    HW169669   9.580   5.065   4.680 -0.6413  0.5071 -0.1890
22665SOL    HW269670   9.641   5.203   4.668  0.2058  0.1754  0.2673
22666SOL     OW69671   9.113   8.721   9.166 -0.3540  0.5121  0.6659
22666SOL    HW169672   9.194   8.761   9.197 -0.7795 -0.3085  2.9833
22666SOL    HW269673   9.136   8.630   9.150 -0.0547  0.9762 -1.9735
22667SOL     OW69674   5.771   3.196   6.034 -0.2604  0.0696 -0.4697
22667SOL    HW169675   5.712   3.123   6.014 -0.7114  0.2110  0.2827
22667SOL    HW269676   5.805   3.176   6.122 -0.2294  0.6637 -0.3403
22668SOL     OW69677   5.598   2.209   2.928 -0.0417 -0.3180  0.3598
22668SOL    HW169678   5.525   2.177   2.980  0.4328  1.3486  2.1576
22668SOL    HW269679   5.676   2.172   2.970  0.3550  1.1007  0.9241
22669SOL     OW69680   6.900   3.139   1.600 -0.2212  0.0518 -0.0882
22669SOL    HW169681   6.819   3.090   1.590 -1.7502  2.5565 -0.9880
22669SOL    HW269682   6.882   3.203   1.669  0.2627  1.8503 -1.5251
22670SOL     OW69683   7.747   8.194   0.913  0.6423 -0.1551 -0.2356
22670SOL    HW169684   7.721   8.108   0.945 -1.4708  0.3811 -0.3450
22670SOL    HW269685   7.738   8.188   0.818  1.4708 -0.0889 -0.3294
22671SOL     OW69686   0.991   9.260   9.196 -0.2666 -0.2119 -0.2871
22671SOL    HW169687   0.930   9.206   9.247  0.9423 -1.4681 -0.0878
22671SOL    HW269688   0.965   9.247   9.105 -1.6381  1.0214 -0.1014
22672SOL     OW69689   0.230   4.069   3.876  0.5525 -0.7057 -0.0944
22672SOL    HW169690   0.150   4.048   3.925  0.7755 -2.0883 -0.2740
22672SOL    HW269691   0.201   4.083   3.786  0.3711  0.0600  0.0720
22673SOL     OW69692   5.632   0.842   5.250 -0.4411  0.3044  0.2407
22673SOL    HW169693   5.661   0.897   5.323  2.0379 -0.5106 -0.0364
22673SOL    HW269694   5.576   0.776   5.291 -0.3355  0.7606  1.1534
22674SOL     OW69695   3.150   5.833   1.556  0.0969 -0.0252 -0.1485
22674SOL    HW169696   3.161   5.741   1.579 -0.7077  0.1051  0.8125
22674SOL    HW269697   3.203   5.845   1.477  2.7056 -0.5914  1.4015
22675SOL     OW69698   8.505   7.268   0.953 -0.1007  0.1232 -0.2097
22675SOL    HW169699   8.476   7.326   0.883  0.2771  2.4633  1.4352
22675SOL    HW269700   8.424   7.242   0.997 -0.2086  0.4685 -0.1973
22676SOL     OW69701   8.953   6.986   5.376  0.2483 -0.0143  0.5287
22676SOL    HW169702   8.936   7.016   5.287  0.1247 -0.0314  0.5473
22676SOL    HW269703   8.920   7.056   5.432 -1.9660 -1.0863  0.6402
22677SOL     OW69704   8.047   2.987   2.257 -0.1489  0.6004 -0.3593
22677SOL    HW169705   7.974   3.037   2.221 -1.0860 -0.5814 -0.1513
22677SOL    HW269706   8.028   2.981   2.351 -0.9494 -1.5140 -0.5962
22678SOL     OW69707   4.042   7.360   4.923 -0.3859 -0.3681  0.2459
22678SOL    HW169708   4.043   7.418   4.999 -0.7480 -0.0868  0.0368
22678SOL    HW269709   3.973   7.296   4.942  0.4489 -1.1518  0.7771
22679SOL     OW69710   0.578   3.212   4.916  0.0063  0.4089 -0.3412
22679SOL    HW169711   0.607   3.264   4.991 -0.4499 -1.4939  1.2263
22679SOL    HW269712   0.499   3.257   4.885 -0.1234  0.9142  0.6702
22680SOL     OW69713   3.841   6.252   0.676  0.0759  0.2343  0.4979
22680SOL    HW169714   3.886   6.289   0.601 -1.6097 -0.5422 -0.9665
22680SOL    HW269715   3.789   6.324   0.711  0.6538  0.5236  0.7722
22681SOL     OW69716   5.330   5.709   7.047  0.5581 -0.3218 -0.1968
22681SOL    HW169717   5.271   5.783   7.042  0.4897 -0.3731 -0.1420
22681SOL    HW269718   5.416   5.745   7.022  0.2443 -0.5653 -1.6918
22682SOL     OW69719   8.637   8.058   0.082 -0.0401  0.4315  0.2901
22682SOL    HW169720   8.663   8.142   0.121  0.0537  0.0582  1.0420
22682SOL    HW269721   8.602   8.007   0.154  0.4018 -0.3817 -0.0478
22683SOL     OW69722   5.432   8.128   4.627  0.6760  0.0711  0.8071
22683SOL    HW169723   5.388   8.205   4.592  0.5940 -0.6669 -0.7795
22683SOL    HW269724   5.462   8.155   4.714 -1.8228  0.9765  1.4582
22684SOL     OW69725   4.723   0.026   6.505 -0.1586 -0.2587  0.6081
22684SOL    HW169726   4.657  -0.006   6.443 -1.0663  1.8927  0.3620
22684SOL    HW269727   4.689   0.110   6.534  3.1160  1.6899 -0.6483
22685SOL     OW69728   5.284   0.097   1.446 -0.1723  0.0770 -0.4167
22685SOL    HW169729   5.259   0.041   1.372 -0.3779 -0.5269  0.0992
22685SOL    HW269730   5.296   0.183   1.407 -0.5733 -0.1664 -1.1105
22686SOL     OW69731   1.709   8.132   3.936 -0.3110  0.5815  0.2541
22686SOL    HW169732   1.739   8.070   3.869  0.4009 -0.8330  1.8117
22686SOL    HW269733   1.614   8.122   3.939 -0.1210 -1.3919  1.3057
22687SOL     OW69734   0.770   6.819   2.515  0.4314 -0.2669  0.0907
22687SOL    HW169735   0.863   6.840   2.513  0.4217 -0.2245  0.0863
22687SOL    HW269736   0.733   6.880   2.579  0.1312  0.8247 -1.0824
22688SOL     OW69737   1.558   1.907   3.084 -0.6038  0.1510  0.1274
22688SOL    HW169738   1.589   1.961   3.157 -1.7328  0.5709  0.3194
22688SOL    HW269739   1.633   1.852   3.061  0.2938  1.1768  0.5100
22689SOL     OW69740   2.959   0.270   8.776 -0.0990 -0.0402 -0.7730
22689SOL    HW169741   3.042   0.241   8.815 -0.1133  1.7678  0.6857
22689SOL    HW269742   2.985   0.311   8.693  0.2772 -0.9146 -1.1006
22690SOL     OW69743   5.404   2.435   1.056 -0.2103  0.0302  0.3522
22690SOL    HW169744   5.418   2.480   0.973  1.2024 -0.7485  0.1331
22690SOL    HW269745   5.457   2.356   1.050  1.2571  0.7444  2.6382
22691SOL     OW69746   5.883   5.268   1.823 -0.1995 -0.1940 -0.5314
22691SOL    HW169747   5.886   5.356   1.786  0.1893 -0.6609 -1.6758
22691SOL    HW269748   5.964   5.227   1.792 -0.3255 -0.9174  0.0799
22692SOL     OW69749   8.771   7.198   4.436 -0.3730 -0.3608 -0.1062
22692SOL    HW169750   8.735   7.200   4.524 -1.5640  1.5893 -0.5739
22692SOL    HW269751   8.737   7.277   4.394  0.2663 -1.1534 -2.2770
22693SOL     OW69752   1.655   5.657   8.555 -0.1113  0.1596  0.3013
22693SOL    HW169753   1.625   5.733   8.605 -1.8651 -0.3214  0.0413
22693SOL    HW269754   1.664   5.588   8.620  0.9285  0.4100  0.4460
22694SOL     OW69755   6.581   0.523   8.400 -0.5175  0.1065  0.0832
22694SOL    HW169756   6.670   0.532   8.367 -0.2917  2.3249  1.1173
22694SOL    HW269757   6.538   0.465   8.337  1.9030 -1.9804  0.1560
22695SOL     OW69758   2.626   6.651   0.131 -0.2428 -0.5287  0.2741
22695SOL    HW169759   2.700   6.609   0.175  0.0008  0.4195  0.7945
22695SOL    HW269760   2.564   6.580   0.116  1.1523 -1.5340 -1.0214
22696SOL     OW69761   5.415   2.063   6.709  0.1205 -0.6421  0.1133
22696SOL    HW169762   5.439   2.010   6.785  0.6432  0.9697  1.1473
22696SOL    HW269763   5.332   2.103   6.734  1.0304  1.0909  0.5398
22697SOL     OW69764   4.927   4.271   5.661  0.6948 -0.0171  0.5094
22697SOL    HW169765   4.860   4.206   5.638 -0.6209  1.3098  0.4146
22697SOL    HW269766   4.988   4.268   5.587 -0.4259  0.2218 -0.4698
22698SOL     OW69767   3.777   3.620   1.030 -0.3047  0.5409  0.3963
22698SOL    HW169768   3.845   3.621   1.098  0.6195 -1.8101 -0.3811
22698SOL    HW269769   3.777   3.530   0.998 -0.5579  1.5779 -2.8814
22699SOL     OW69770   3.926   6.019   2.232 -0.0344  0.2737  0.4580
22699SOL    HW169771   3.996   6.056   2.286  0.5403 -1.0413  0.6476
22699SOL    HW269772   3.872   5.971   2.293  0.3132 -0.7782 -0.0429
22700SOL     OW69773   5.322   6.491   2.261 -0.0031 -0.3155  0.3724
22700SOL    HW169774   5.318   6.542   2.343  0.1295 -2.2072  1.6078
22700SOL    HW269775   5.240   6.443   2.259 -1.4029  1.8897 -2.2007
22701SOL     OW69776   5.839   6.431   8.061 -0.8345 -0.3563 -0.1892
22701SOL    HW169777   5.759   6.392   8.026 -1.0228  0.6156 -0.8818
22701SOL    HW269778   5.874   6.483   7.989  0.0809 -0.2536  0.3132
22702SOL     OW69779   8.837   0.534   0.985 -0.2060  0.0633  0.0542
22702SOL    HW169780   8.860   0.626   0.993  0.2224 -0.1990  2.9004
22702SOL    HW269781   8.886   0.503   0.908 -0.4032  2.1804 -0.9717
22703SOL     OW69782   1.837   3.456   2.847  0.6344  0.1399  0.2468
22703SOL    HW169783   1.751   3.498   2.856  0.9971  0.7715  0.8221
22703SOL    HW269784   1.879   3.469   2.931  1.1608 -0.4877  0.0853
22704SOL     OW69785   9.157   9.128   0.479  0.7938 -0.8323  0.7921
22704SOL    HW169786   9.085   9.180   0.515 -0.4997 -1.7600 -0.3430
22704SOL    HW269787   9.222   9.193   0.452  0.6811 -0.0071  2.3983
22705SOL     OW69788   6.673   4.834   4.450 -0.0780  0.0687  0.4357
22705SOL    HW169789   6.585   4.872   4.457  0.4148  0.9664  2.4588
22705SOL    HW269790   6.732   4.906   4.471  1.0469 -0.9725  0.9335
22706SOL     OW69791   0.045   7.654   1.829  0.1763  0.1106  0.1718
22706SOL    HW169792   0.079   7.671   1.917 -0.3395  1.3087  0.1618
22706SOL    HW269793  -0.029   7.595   1.843  1.6572 -1.8266  0.2694
22707SOL     OW69794   1.479   5.328   4.411 -0.0779 -0.4980 -0.0084
22707SOL    HW169795   1.529   5.385   4.470 -0.3553 -0.4124  0.1437
22707SOL    HW269796   1.517   5.345   4.325  0.9598 -1.3083  0.2601
22708SOL     OW69797   7.586   3.774   5.355  0.0934 -0.3346  0.0210
22708SOL    HW169798   7.563   3.708   5.420  0.3672 -1.2102 -0.7527
22708SOL    HW269799   7.663   3.738   5.310  1.1986  1.1971  0.5935
22709SOL     OW69800   4.681   6.796   1.247 -0.3152  0.0476  0.6529
22709SOL    HW169801   4.696   6.710   1.287  0.9418  0.4568  1.0906
22709SOL    HW269802   4.673   6.778   1.153  0.3495 -0.4990  0.6981
22710SOL     OW69803   1.294   9.610   9.468 -0.4450  0.1104  0.3687
22710SOL    HW169804   1.271   9.517   9.460 -2.6359  0.5138  1.4170
22710SOL    HW269805   1.259   9.636   9.554  4.3502  0.7870  2.4573
22711SOL     OW69806   4.165   6.862   4.674 -0.6556 -0.2135  0.0159
22711SOL    HW169807   4.209   6.930   4.726 -2.2157 -0.1403  1.3188
22711SOL    HW269808   4.234   6.799   4.654  0.7728  1.5748 -0.9578
22712SOL     OW69809   3.287   1.741   7.354 -0.2111  0.3385 -0.9739
22712SOL    HW169810   3.382   1.729   7.344 -0.1399 -0.7851  0.5979
22712SOL    HW269811   3.251   1.656   7.331 -0.6928  0.2945 -0.0902
22713SOL     OW69812   3.683   1.648   1.047  0.6093 -0.3633  0.3354
22713SOL    HW169813   3.680   1.554   1.032 -0.5940 -0.4156  0.7643
22713SOL    HW269814   3.664   1.687   0.962  2.7987 -0.4415 -0.2396
22714SOL     OW69815   3.891   4.909   2.356 -0.0242 -0.0628  0.3460
22714SOL    HW169816   3.978   4.884   2.326 -0.6839 -1.5576 -0.3969
22714SOL    HW269817   3.880   4.864   2.440 -1.1589 -2.3554 -0.9296
22715SOL     OW69818   5.383   2.872   6.838 -0.1972  0.1673 -0.3328
22715SOL    HW169819   5.478   2.872   6.840 -0.1810 -1.0510  0.1853
22715SOL    HW269820   5.361   2.865   6.745  0.2067  0.8759 -0.4845
22716SOL     OW69821   6.231   1.755   5.055 -0.1211 -0.0378  0.6865
22716SOL    HW169822   6.296   1.693   5.088  0.0153 -0.9121 -1.1068
22716SOL    HW269823   6.267   1.787   4.973 -0.8486  1.3805  0.8875
22717SOL     OW69824   4.865   9.192   7.057  0.3555 -0.2421 -0.3005
22717SOL    HW169825   4.854   9.164   6.966  1.5778  0.9759 -0.8500
22717SOL    HW269826   4.921   9.125   7.096  1.9460  0.5405 -1.1653
22718SOL     OW69827   6.801   3.452   4.161 -0.2719  0.1945 -0.0318
22718SOL    HW169828   6.873   3.444   4.098 -0.8302  0.0167 -0.6618
22718SOL    HW269829   6.836   3.415   4.242  1.2802  2.5688  0.4688
22719SOL     OW69830   3.177   0.032   3.816 -0.0790  0.2028  0.5464
22719SOL    HW169831   3.117  -0.037   3.784  0.2975  0.1260 -0.0068
22719SOL    HW269832   3.248   0.032   3.753  0.0222  0.9726  0.6611
22720SOL     OW69833   1.154   2.734   9.398  0.2524  0.5793  0.1728
22720SOL    HW169834   1.091   2.776   9.456  0.7449  1.5028  0.0585
22720SOL    HW269835   1.216   2.804   9.375  1.1780 -0.2454  0.0931
22721SOL     OW69836   3.600   2.020   4.976 -0.2155  0.3490 -0.2119
22721SOL    HW169837   3.665   2.058   4.917  0.5013 -2.3356 -1.3050
22721SOL    HW269838   3.652   1.965   5.035 -1.2113  0.8317  1.1542
22722SOL     OW69839   4.877   8.457   9.391 -0.3553  0.4274 -0.1784
22722SOL    HW169840   4.841   8.388   9.335 -0.3653 -0.1359  0.5146
22722SOL    HW269841   4.866   8.424   9.480  0.6788  0.8195  0.1064
22723SOL     OW69842   7.317   5.835   1.245 -0.0473 -0.3036  0.0593
22723SOL    HW169843   7.402   5.798   1.268  0.0029 -0.2528 -0.0429
22723SOL    HW269844   7.337   5.926   1.220 -0.5559  0.9213  3.5628
22724SOL     OW69845   8.168   8.683   6.397  0.4969  0.2412 -0.3981
22724SOL    HW169846   8.235   8.678   6.328  0.8781 -0.8172  0.0308
22724SOL    HW269847   8.152   8.592   6.422 -1.4869  0.4219 -0.8254
22725SOL     OW69848   9.434   3.433   5.846 -0.1667 -0.2349  0.5176
22725SOL    HW169849   9.370   3.494   5.810 -1.1922 -0.6836  1.5129
22725SOL    HW269850   9.457   3.470   5.931  0.1911 -0.5581  0.5632
22726SOL     OW69851   4.588   4.522   2.945  0.1937 -0.1078  0.8172
22726SOL    HW169852   4.631   4.607   2.935 -0.1246 -0.1320 -1.1636
22726SOL    HW269853   4.559   4.521   3.036  1.1244  1.4477  1.1832
22727SOL     OW69854   3.949   6.078   4.761  0.4090 -0.4945 -0.3702
22727SOL    HW169855   3.938   6.114   4.849  1.0184 -0.6609 -0.2204
22727SOL    HW269856   4.003   5.999   4.773  0.6938 -0.3914 -0.9135
22728SOL     OW69857   1.213   7.868   5.823  0.0539 -0.1745  0.0566
22728SOL    HW169858   1.289   7.884   5.879 -0.2494  0.3268  0.3310
22728SOL    HW269859   1.144   7.842   5.883 -0.1816  0.0429 -0.1161
22729SOL     OW69860   6.107   7.547   6.662 -0.8607  0.0956 -0.4230
22729SOL    HW169861   6.081   7.457   6.679 -0.4615  0.0983  0.2554
22729SOL    HW269862   6.035   7.584   6.611 -0.7865 -0.7512 -1.1517
22730SOL     OW69863   8.171   8.804   7.254  0.1066  0.4230 -0.4717
22730SOL    HW169864   8.140   8.810   7.344 -0.1505  1.0024 -0.5920
22730SOL    HW269865   8.105   8.850   7.203  1.3883  2.1486 -0.6714
22731SOL     OW69866   4.264   9.387   7.489  0.6343  0.4282  0.2453
22731SOL    HW169867   4.348   9.348   7.463 -0.7417 -2.6121 -0.1850
22731SOL    HW269868   4.274   9.408   7.582  1.3322 -1.7941  0.7405
22732SOL     OW69869   8.922   9.065   2.762 -0.0527 -0.6501 -0.3377
22732SOL    HW169870   8.916   8.993   2.700  1.0882 -1.2595  0.2421
22732SOL    HW269871   9.015   9.089   2.763 -0.0752 -0.5459  1.0050
22733SOL     OW69872   5.942   5.335   8.409  0.1787  0.1676  0.2576
22733SOL    HW169873   5.944   5.263   8.471 -0.1997 -0.0213  0.0533
22733SOL    HW269874   6.024   5.383   8.425  2.1880 -2.2718 -1.9765
22734SOL     OW69875   7.250   7.122   0.473  0.3827  0.0538  0.0739
22734SOL    HW169876   7.284   7.147   0.387  0.3446 -0.6901 -0.1600
22734SOL    HW269877   7.303   7.047   0.499  0.6124  0.4713  0.8509
22735SOL     OW69878   2.053   7.802   7.802 -0.2206 -0.3950  0.5981
22735SOL    HW169879   2.123   7.765   7.855 -1.8181 -0.9113  2.4578
22735SOL    HW269880   2.036   7.888   7.840  0.6556  0.6061 -1.0957
22736SOL     OW69881   6.316   6.092   5.997 -0.1505 -0.3590  0.3556
22736SOL    HW169882   6.325   6.186   5.979 -1.2922 -0.4753 -0.9436
22736SOL    HW269883   6.337   6.084   6.090  1.0236  1.0253  0.2541
22737SOL     OW69884   3.778   4.900   4.076 -0.2597  0.6753  0.1820
22737SOL    HW169885   3.798   4.826   4.133  1.0029 -1.0309 -2.2898
22737SOL    HW269886   3.850   4.962   4.091  1.5094 -0.8939 -1.2441
22738SOL     OW69887   2.948   8.085   7.983 -0.6008 -0.1115 -0.1991
22738SOL    HW169888   2.969   8.017   7.919  1.3553 -0.6494  0.9257
22738SOL    HW269889   3.022   8.146   7.978 -1.4163  0.9221  0.1235
22739SOL     OW69890   6.724   9.118   8.832  0.2230 -0.0716 -0.3543
22739SOL    HW169891   6.801   9.166   8.862  1.2884 -0.5464 -2.1851
22739SOL    HW269892   6.759   9.041   8.788 -1.3068 -0.5479 -0.8104
22740SOL     OW69893   6.881   3.183   5.509  0.0162 -0.2737  0.0866
22740SOL    HW169894   6.901   3.093   5.537 -0.8200 -0.8039 -0.9651
22740SOL    HW269895   6.840   3.223   5.586 -0.4306 -1.0881  0.2858
22741SOL     OW69896   6.357   1.014   8.314 -0.3786 -0.0927  0.2835
22741SOL    HW169897   6.306   0.959   8.374  0.0512 -0.3572  0.4155
22741SOL    HW269898   6.320   0.996   8.228  0.5596 -1.5611  0.1517
22742SOL     OW69899   0.763   4.992   5.827  0.1363  0.1166  0.2464
22742SOL    HW169900   0.782   4.919   5.769  2.3811  0.5734  0.3158
22742SOL    HW269901   0.776   4.957   5.915 -1.1070  0.0076  0.4045
22743SOL     OW69902   9.289   9.524   1.503  0.3008 -0.2745  0.4306
22743SOL    HW169903   9.293   9.429   1.496 -0.4302 -0.2235 -0.8266
22743SOL    HW269904   9.364   9.546   1.559  1.2822 -1.4771 -0.3461
22744SOL     OW69905   0.940   8.964   0.963 -0.4854  0.7122  0.1766
22744SOL    HW169906   0.971   9.055   0.967 -2.1053  1.2888  0.3277
22744SOL    HW269907   0.854   8.970   0.921 -1.3238 -0.5646  1.6074
22745SOL     OW69908   5.430   7.723   5.856  0.2229 -0.4703 -0.3041
22745SOL    HW169909   5.434   7.741   5.762 -0.7741 -0.0082 -0.2762
22745SOL    HW269910   5.357   7.661   5.865  1.2635 -1.6926  0.0139
22746SOL     OW69911   5.832   1.853   7.222  0.3157 -0.4806 -0.0161
22746SOL    HW169912   5.859   1.793   7.291  1.7308  2.0647  1.8283
22746SOL    HW269913   5.774   1.916   7.265 -0.1816  0.1922 -1.5589
22747SOL     OW69914   5.814   6.413   7.441  0.1089  0.1346  0.2188
22747SOL    HW169915   5.735   6.391   7.392  0.7321  0.7132 -1.0909
22747SOL    HW269916   5.858   6.329   7.456 -0.0280 -0.0397 -0.3388
22748SOL     OW69917   3.372   1.163   4.801  0.3005 -0.3475  0.1773
22748SOL    HW169918   3.299   1.221   4.823 -0.2475 -1.3233  1.0020
22748SOL    HW269919   3.331   1.085   4.765  1.1033  0.4754 -2.7624
22749SOL     OW69920   2.590   6.400   3.080 -0.2802  0.7815  0.0286
22749SOL    HW169921   2.673   6.357   3.060 -0.9552  0.6198 -2.7742
22749SOL    HW269922   2.615   6.490   3.103  0.6858  0.7234 -0.7187
22750SOL     OW69923   7.753   3.946   7.294  0.5683  0.3739  0.6824
22750SOL    HW169924   7.815   3.923   7.224 -0.4833  0.0684 -0.1731
22750SOL    HW269925   7.774   3.885   7.365 -1.6623 -2.9559 -1.2596
22751SOL     OW69926   2.372   1.159   8.585 -0.6829 -0.1326 -0.0780
22751SOL    HW169927   2.350   1.114   8.503 -0.9087 -1.6890  0.8011
22751SOL    HW269928   2.300   1.221   8.599 -0.4974  0.3598 -1.1793
22752SOL     OW69929   1.343   7.073   8.389 -0.4727  0.2948 -0.1292
22752SOL    HW169930   1.267   7.029   8.351  0.7661 -1.6322 -0.5293
22752SOL    HW269931   1.343   7.048   8.481 -1.6058  2.2648  0.4725
22753SOL     OW69932   6.296   0.735   6.629  0.4670 -0.0503 -0.0499
22753SOL    HW169933   6.345   0.790   6.568  0.7546  0.9911  1.0932
22753SOL    HW269934   6.350   0.732   6.708 -0.3108 -0.6588  0.4789
22754SOL     OW69935   1.107   3.147   3.458 -0.2466 -0.0402 -0.0211
22754SOL    HW169936   1.150   3.104   3.532 -0.4035  0.9824  0.6993
22754SOL    HW269937   1.167   3.134   3.385 -0.4736 -1.7907  0.0588
22755SOL     OW69938   7.639   6.794   8.339 -0.1332 -0.3695  0.8098
22755SOL    HW169939   7.618   6.700   8.337 -0.1487 -0.3666 -1.5276
22755SOL    HW269940   7.694   6.808   8.262 -0.8933  1.7244  0.5896
22756SOL     OW69941   4.947   8.887   8.863 -0.5715 -0.2215  0.0603
22756SOL    HW169942   4.979   8.850   8.945 -1.0300 -0.6620  0.0418
22756SOL    HW269943   5.020   8.877   8.802 -0.5773 -0.8098  0.1428
22757SOL     OW69944   8.035   3.301   5.417  1.1146  0.2886 -0.5245
22757SOL    HW169945   7.989   3.233   5.368  1.0569  0.2458 -0.4098
22757SOL    HW269946   8.078   3.354   5.349  0.6804  0.4905 -0.6507
22758SOL     OW69947   3.557   6.446   6.313  0.2218 -0.2461 -0.1052
22758SOL    HW169948   3.616   6.449   6.237  0.8891  0.2196  0.4183
22758SOL    HW269949   3.473   6.418   6.277  0.2683  0.8854 -1.1832
22759SOL     OW69950   4.965   4.070   0.948 -0.1666 -0.0971  0.5395
22759SOL    HW169951   5.039   4.116   0.909 -0.8452  1.9511  1.5325
22759SOL    HW269952   4.936   4.010   0.879 -0.1035  1.9685 -1.4047
22760SOL     OW69953   0.433   5.124   7.837  0.2353  0.3084 -0.2932
22760SOL    HW169954   0.420   5.031   7.818 -2.7163  0.7093 -0.6816
22760SOL    HW269955   0.500   5.125   7.906  0.4850 -2.0759 -0.4102
22761SOL     OW69956   9.339   7.132   7.009  0.2046  0.4674  0.5056
22761SOL    HW169957   9.404   7.138   6.938 -0.5143  2.0505 -0.0583
22761SOL    HW269958   9.392   7.129   7.088  0.9992  0.8470  0.0089
22762SOL     OW69959   4.719   5.676   3.474  0.1090 -0.1175 -0.3527
22762SOL    HW169960   4.629   5.677   3.439 -0.0348 -1.1797 -0.0593
22762SOL    HW269961   4.725   5.756   3.526 -0.3503  0.4484 -1.1527
22763SOL     OW69962   8.592   9.635   8.730  0.1869  0.2042  0.2521
22763SOL    HW169963   8.525   9.599   8.788  0.7481 -2.0511 -0.3861
22763SOL    HW269964   8.668   9.578   8.743  1.1543  1.1756 -0.8623
22764SOL     OW69965   2.079   6.151   4.463  0.0973 -0.3204  0.2803
22764SOL    HW169966   2.126   6.072   4.488  0.0488 -0.8977 -1.3792
22764SOL    HW269967   2.043   6.132   4.377 -0.8077  1.1364  0.3032
22765SOL     OW69968   4.734   1.221   7.987  0.2527 -0.3013 -0.0875
22765SOL    HW169969   4.673   1.294   8.000  0.6396 -0.0380  0.2830
22765SOL    HW269970   4.734   1.206   7.892 -0.2644 -0.2004 -0.1070
22766SOL     OW69971   2.814   0.693   1.666  0.0872 -0.8084 -0.4671
22766SOL    HW169972   2.816   0.598   1.661  1.7503 -0.8098 -0.3302
22766SOL    HW269973   2.796   0.722   1.577 -0.8159 -1.2431 -0.4341
22767SOL     OW69974   8.764   0.133   5.793 -0.3162 -0.3033 -0.2652
22767SOL    HW169975   8.669   0.127   5.803 -0.4532  0.5713 -0.9421
22767SOL    HW269976   8.793   0.042   5.786 -1.0519 -0.5986  0.3103
22768SOL     OW69977   6.075   3.270   4.153 -0.0991 -0.3936  0.1619
22768SOL    HW169978   6.121   3.349   4.127  1.0906 -1.6472 -1.7987
22768SOL    HW269979   6.107   3.251   4.241  0.9487  0.3301 -0.0437
22769SOL     OW69980   0.324   0.900   6.300  0.0165  0.2287 -0.0537
22769SOL    HW169981   0.396   0.962   6.286 -0.5156  0.8141 -0.2384
22769SOL    HW269982   0.325   0.884   6.395  0.4189  0.1939 -0.0616
22770SOL     OW69983   4.841   5.171   3.895  0.8047  0.2580 -0.5925
22770SOL    HW169984   4.756   5.157   3.854  0.4912  0.5798 -0.0635
22770SOL    HW269985   4.891   5.092   3.874  0.2201 -0.1425 -0.5137
22771SOL     OW69986   7.715   0.711   2.046 -0.4824  0.5761 -0.8803
22771SOL    HW169987   7.755   0.797   2.039  0.8891 -0.0157 -0.5462
22771SOL    HW269988   7.624   0.725   2.018  0.2519  1.7150 -2.9467
22772SOL     OW69989   7.809   2.686   3.204 -0.5135  0.7296 -0.0360
22772SOL    HW169990   7.834   2.710   3.115 -0.4440  1.9811  0.3076
22772SOL    HW269991   7.717   2.709   3.210 -0.4825  0.7740  0.2571
22773SOL     OW69992   5.915   8.405   1.357 -0.7081  0.1155  0.1248
22773SOL    HW169993   5.857   8.378   1.428 -1.7036  1.1293 -0.2698
22773SOL    HW269994   5.955   8.486   1.388  0.0287 -0.2391  0.1279
22774SOL     OW69995   4.244   5.779   3.009  0.1162  0.2443 -0.6652
22774SOL    HW169996   4.158   5.750   2.979  0.5849 -0.2638 -1.5671
22774SOL    HW269997   4.289   5.699   3.034  0.2876  0.5209 -0.0786
22775SOL     OW69998   4.383   0.034   3.374 -0.0528  0.3126  0.4539
22775SOL    HW169999   4.317  -0.024   3.335 -0.3318  0.0002  1.3723
22775SOL    HW270000   4.348   0.122   3.360  0.2106  0.2618 -0.6482
22776SOL     OW70001   6.458   7.375   9.667 -0.0500 -0.1328  0.1772
22776SOL    HW170002   6.505   7.375   9.750 -0.8467  2.1704  0.7081
22776SOL    HW270003   6.496   7.446   9.616 -1.6913  0.6078 -0.1033
22777SOL     OW70004   7.518   4.746   0.836  0.1624  0.2304 -0.1625
22777SOL    HW170005   7.579   4.788   0.897 -1.3918  2.8168 -0.2810
22777SOL    HW270006   7.524   4.798   0.756 -1.1618 -0.3426 -0.6596
22778SOL     OW70007   1.682   9.127   6.898 -0.2730  0.5735  0.7056
22778SOL    HW170008   1.698   9.160   6.987 -0.4711 -1.3689  1.5215
22778SOL    HW270009   1.614   9.060   6.910  0.7129 -0.7361 -0.6889
22779SOL     OW70010   2.323   7.847   2.982  0.3902 -0.2024 -0.0965
22779SOL    HW170011   2.245   7.792   2.970  0.3379 -0.1132 -0.1659
22779SOL    HW270012   2.323   7.867   3.076  0.3012 -0.1622 -0.1043
22780SOL     OW70013   7.465   8.596   0.358 -0.1135 -0.7312  0.0780
22780SOL    HW170014   7.465   8.672   0.416 -0.2386 -1.2078  0.7178
22780SOL    HW270015   7.459   8.632   0.270 -0.3385 -0.0092  0.3866
22781SOL     OW70016   8.481   6.312   0.086 -0.2945  0.4854 -0.5512
22781SOL    HW170017   8.437   6.251   0.146  2.4633 -2.5945 -1.3462
22781SOL    HW270018   8.552   6.349   0.138 -0.5698  1.2744 -0.7261
22782SOL     OW70019   0.893   0.876   9.565 -0.2081 -0.0019 -0.0349
22782SOL    HW170020   0.935   0.911   9.486  1.5215  0.6030  1.0980
22782SOL    HW270021   0.930   0.788   9.574 -0.9874 -0.3657 -0.2995
22783SOL     OW70022   6.979   4.058   8.532 -0.4058 -0.3631  0.2719
22783SOL    HW170023   7.040   4.132   8.542 -1.6821  0.8111 -0.2563
22783SOL    HW270024   6.931   4.055   8.615  0.1769 -1.1266  0.5931
22784SOL     OW70025   1.965   7.187   1.248  0.1577 -0.0684  0.3703
22784SOL    HW170026   2.005   7.212   1.331  0.3887  2.1549 -0.3587
22784SOL    HW270027   2.004   7.101   1.228  1.5816  0.2437  1.5878
22785SOL     OW70028   5.348   8.036   1.851  0.0727  0.4464 -0.2972
22785SOL    HW170029   5.424   8.078   1.812 -0.0357  0.8933 -0.0267
22785SOL    HW270030   5.295   8.008   1.776  1.5558 -1.9079 -0.5909
22786SOL     OW70031   8.804   7.480   9.309  0.7924 -0.4345  0.4870
22786SOL    HW170032   8.885   7.428   9.316  0.6960 -0.4282  1.8984
22786SOL    HW270033   8.832   7.570   9.328  1.0025  0.1454 -2.1697
22787SOL     OW70034   0.998   1.153   0.299  0.5982  0.2120 -0.6326
22787SOL    HW170035   1.084   1.113   0.284  0.6836  0.5825 -1.1455
22787SOL    HW270036   1.005   1.190   0.387  0.7037 -0.4154 -0.3664
22788SOL     OW70037   0.605   8.879   2.480 -0.5354 -0.3875  0.1342
22788SOL    HW170038   0.550   8.957   2.492  0.4011  0.2344  0.5672
22788SOL    HW270039   0.621   8.875   2.386  0.0950  0.4488  0.1931
22789SOL     OW70040   1.589   9.156   7.562  0.1012 -0.0023  0.2335
22789SOL    HW170041   1.649   9.212   7.514  0.3846 -2.3391 -2.3749
22789SOL    HW270042   1.503   9.172   7.523 -0.1671  0.0429  0.8319
22790SOL     OW70043   8.838   4.255   2.360  0.5494  0.6204 -0.3736
22790SOL    HW170044   8.813   4.164   2.374 -1.8811  1.1789 -0.6139
22790SOL    HW270045   8.890   4.279   2.437  0.4080 -0.6887  0.1452
22791SOL     OW70046   0.916   8.987   4.992 -0.2876 -0.0003  0.2350
22791SOL    HW170047   0.870   9.029   4.919  0.7639  0.9017  0.0754
22791SOL    HW270048   1.006   8.978   4.963 -0.5786 -3.0600  0.0016
22792SOL     OW70049   3.413   5.682   6.024 -0.3417  0.0144  0.1001
22792SOL    HW170050   3.463   5.661   6.103 -1.6738 -0.0415  0.9545
22792SOL    HW270051   3.322   5.672   6.050 -0.8762  1.7937 -0.9467
22793SOL     OW70052   8.811   2.633   3.411 -0.0351 -0.3198 -0.2714
22793SOL    HW170053   8.745   2.577   3.369  0.5696  0.5892 -2.5787
22793SOL    HW270054   8.884   2.574   3.427 -0.4117 -0.7729 -0.1692
22794SOL     OW70055   2.634   0.441   1.942  0.2288 -0.5717 -0.4122
22794SOL    HW170056   2.603   0.532   1.950 -0.6197 -0.8828 -0.0666
22794SOL    HW270057   2.710   0.447   1.885  0.2221  0.3710 -0.3444
22795SOL     OW70058   8.683   8.356   7.541  0.2481  0.1282 -0.5118
22795SOL    HW170059   8.742   8.430   7.532 -1.0706  1.5742  1.7827
22795SOL    HW270060   8.596   8.393   7.529 -0.3931 -1.2490 -0.2777
22796SOL     OW70061   5.667   5.251   9.147 -0.2068 -0.1197  0.6241
22796SOL    HW170062   5.619   5.198   9.084 -1.7784  2.4246 -0.4859
22796SOL    HW270063   5.758   5.227   9.134 -0.2864  0.9862 -3.5194
22797SOL     OW70064   9.268   1.971   0.657 -0.6167  0.8757 -0.3921
22797SOL    HW170065   9.317   1.990   0.577  0.0599  1.0267  0.0585
22797SOL    HW270066   9.225   1.887   0.639 -0.3386  0.8306 -0.8534
22798SOL     OW70067   0.669   1.236   2.432  0.1167  0.4588 -0.6179
22798SOL    HW170068   0.753   1.256   2.474  1.0615 -1.1437 -1.6307
22798SOL    HW270069   0.668   1.140   2.426 -1.8782  0.4370 -0.4987
22799SOL     OW70070   8.164   2.133   3.060 -0.1990 -0.5817  0.5086
22799SOL    HW170071   8.144   2.142   3.153 -1.4597 -0.6898  0.2585
22799SOL    HW270072   8.100   2.190   3.016  1.2322  0.5424 -0.2305
22800SOL     OW70073   1.547   6.371   8.456 -0.1121 -0.3669 -0.3282
22800SOL    HW170074   1.612   6.332   8.398 -0.6858 -1.8995  0.0066
22800SOL    HW270075   1.510   6.443   8.406  2.4259  1.1280 -0.1900
22801SOL     OW70076   5.056   7.445   6.111 -0.0066  0.1212 -0.0935
22801SOL    HW170077   5.004   7.370   6.082  0.4686  0.4601 -1.9905
22801SOL    HW270078   5.095   7.417   6.194  0.5837 -1.9593 -0.9930
22802SOL     OW70079   7.901   5.297   0.031  0.4159  0.0707 -0.3187
22802SOL    HW170080   7.863   5.385   0.036 -0.1652 -0.2535  2.6224
22802SOL    HW270081   7.838   5.248  -0.023  0.2697  1.1926 -1.2236
22803SOL     OW70082   8.798   3.656   7.619  0.2186 -0.1648  0.0829
22803SOL    HW170083   8.783   3.733   7.674  1.6395 -0.3504  0.7729
22803SOL    HW270084   8.836   3.692   7.539 -0.2696 -0.0482 -0.1009
22804SOL     OW70085   3.242   5.327   0.656 -0.6945 -0.1482  0.3116
22804SOL    HW170086   3.325   5.284   0.680  1.1268  2.5747 -0.6481
22804SOL    HW270087   3.206   5.356   0.740 -0.9514 -1.7375  0.7829
22805SOL     OW70088   8.926   7.007   3.313  0.3934 -0.4078  0.6556
22805SOL    HW170089   8.882   7.092   3.311  1.7082  0.2938  0.0692
22805SOL    HW270090   8.856   6.943   3.325 -0.6914  0.7071  0.4119
22806SOL     OW70091   1.804   8.366   9.611 -0.2449 -0.1785 -0.1094
22806SOL    HW170092   1.856   8.411   9.545 -0.3276  1.0173  0.6138
22806SOL    HW270093   1.725   8.337   9.565 -0.4456  0.9228 -0.4714
22807SOL     OW70094   1.544   4.525   0.516  0.5426 -0.8197  0.0756
22807SOL    HW170095   1.576   4.504   0.604 -1.0939 -0.1051  0.8857
22807SOL    HW270096   1.566   4.617   0.504  1.8931 -1.2406 -0.8016
22808SOL     OW70097   7.429   4.002   6.605 -0.1641  0.4059 -0.1586
22808SOL    HW170098   7.521   4.028   6.600  0.4639 -1.6390 -0.2471
22808SOL    HW270099   7.382   4.083   6.623  1.8072  1.2503  1.5817
22809SOL     OW70100   2.834   0.643   2.968  0.1830 -0.5783 -0.0928
22809SOL    HW170101   2.901   0.699   3.007  0.3045  0.1486 -1.2913
22809SOL    HW270102   2.882   0.569   2.932 -0.1214 -2.4243  2.9347
22810SOL     OW70103   8.606   4.597   5.096  0.3692 -0.3329 -0.3477
22810SOL    HW170104   8.626   4.649   5.174  0.2802 -0.1952 -0.4160
22810SOL    HW270105   8.635   4.651   5.023 -2.0467  0.8040 -0.5959
22811SOL     OW70106   2.144   0.009   2.861  1.0834  0.3513  0.1527
22811SOL    HW170107   2.096   0.090   2.874  1.9812  0.7340  1.3156
22811SOL    HW270108   2.158   0.004   2.767 -0.7997  0.4484 -0.1666
22812SOL     OW70109   1.298   4.998   7.622 -0.3265 -0.5062  0.5324
22812SOL    HW170110   1.337   4.974   7.538 -0.9626  1.7570 -0.4868
22812SOL    HW270111   1.208   5.020   7.602 -0.5981 -0.2438  1.8958
22813SOL     OW70112   1.329   7.712   4.298 -0.3778 -0.9796 -0.3796
22813SOL    HW170113   1.292   7.794   4.329  0.1540 -1.2345  1.0159
22813SOL    HW270114   1.360   7.731   4.209  0.9426  0.7140  0.3784
22814SOL     OW70115   1.997   3.978   8.201 -0.1683  0.0387  0.2118
22814SOL    HW170116   1.933   3.907   8.210 -0.7705  0.3888 -1.0038
22814SOL    HW270117   1.951   4.044   8.149  0.7527  0.8561  0.4131
22815SOL     OW70118   8.737   0.742   0.250 -0.0984  0.2251 -0.0887
22815SOL    HW170119   8.749   0.707   0.339 -2.2581  1.4626  0.7851
22815SOL    HW270120   8.644   0.765   0.247 -0.1127  0.0639 -2.7642
22816SOL     OW70121   4.063   6.135   3.239 -0.0406 -0.4708  0.7727
22816SOL    HW170122   4.086   6.215   3.193  2.1909 -1.5659 -0.1420
22816SOL    HW270123   4.061   6.161   3.332 -0.3555  0.8446  0.4140
22817SOL     OW70124   6.397   8.200   0.099  0.4271 -0.2414 -0.0266
22817SOL    HW170125   6.313   8.234   0.130 -1.2038 -2.3158 -1.8621
22817SOL    HW270126   6.412   8.121   0.151  0.2026 -0.9546 -1.0080
22818SOL     OW70127   8.987   4.771   8.418 -0.3430  0.2651 -1.0089
22818SOL    HW170128   8.940   4.728   8.347 -0.6976  1.4079 -1.4927
22818SOL    HW270129   8.957   4.862   8.415  0.1080  0.4786  0.2088
22819SOL     OW70130   5.976   9.201   8.790  0.2967  0.6932  0.1687
22819SOL    HW170131   5.915   9.260   8.746  0.9873  2.0034  0.9132
22819SOL    HW270132   6.055   9.254   8.804  1.6129 -0.9346 -0.7241
22820SOL     OW70133   7.020   0.730   7.582 -0.2338  0.3818 -0.2223
22820SOL    HW170134   7.071   0.660   7.623  0.5072  1.6197  1.0211
22820SOL    HW270135   6.964   0.684   7.519  0.3067 -1.3164  0.4742
22821SOL     OW70136   3.231   2.993   4.874 -0.3361 -0.4977 -0.7080
22821SOL    HW170137   3.266   2.946   4.798  0.5416  0.2014 -0.7547
22821SOL    HW270138   3.184   3.067   4.836  2.8219  1.7644 -0.6129
22822SOL     OW70139   9.098   4.981   8.690 -0.2633 -0.0269  0.0791
22822SOL    HW170140   9.054   5.021   8.614 -2.0982  1.1823  1.6668
22822SOL    HW270141   9.040   4.910   8.716  0.4827 -0.5953  0.2138
22823SOL     OW70142   1.422   3.438   1.684  0.1145  0.0289 -0.4749
22823SOL    HW170143   1.372   3.520   1.680  2.6315  1.7041  0.2700
22823SOL    HW270144   1.478   3.439   1.607  1.1898 -0.2727  0.2737
22824SOL     OW70145   1.808   5.740   0.809 -0.0531 -0.2572  0.6213
22824SOL    HW170146   1.844   5.662   0.852 -1.2651 -1.7036 -0.8357
22824SOL    HW270147   1.721   5.750   0.846 -0.6346 -0.7790 -0.5699
22825SOL     OW70148   3.017   4.509   0.740 -0.3065 -0.2525  0.0624
22825SOL    HW170149   3.030   4.420   0.708 -2.8564 -0.3167 -1.0120
22825SOL    HW270150   2.964   4.499   0.819 -0.2451  0.3179  0.1836
22826SOL     OW70151   5.660   8.019   2.173  0.4036 -0.1726  0.3894
22826SOL    HW170152   5.691   8.044   2.261 -1.0633  0.1435  0.8468
22826SOL    HW270153   5.732   8.043   2.115  0.7149  1.2652  1.3057
22827SOL     OW70154   3.227   0.669   8.078 -0.1012  0.4547  0.1918
22827SOL    HW170155   3.305   0.622   8.108 -0.9018  1.1086  3.6616
22827SOL    HW270156   3.183   0.607   8.020  0.2537 -2.1671  2.4997
22828SOL     OW70157   0.742   1.559   3.548 -0.0922 -0.0496 -0.6025
22828SOL    HW170158   0.766   1.607   3.627  0.0341  0.3577 -0.8826
22828SOL    HW270159   0.671   1.610   3.510  0.1484 -0.0016 -0.9869
22829SOL     OW70160   5.990   9.393   3.015  0.5835 -0.0673  0.1015
22829SOL    HW170161   6.083   9.380   3.035  1.0174  1.0991 -1.0804
22829SOL    HW270162   5.967   9.475   3.060  0.7242  0.8315 -1.4106
22830SOL     OW70163   5.336   3.261   2.974  0.1935 -0.2692  0.0919
22830SOL    HW170164   5.336   3.357   2.975 -2.1797 -0.1384 -1.5486
22830SOL    HW270165   5.403   3.237   2.910 -0.0197  0.3864 -0.3885
22831SOL     OW70166   3.425   4.209   3.095  0.7032  0.6101 -0.6521
22831SOL    HW170167   3.342   4.255   3.103 -0.1283 -0.6597 -1.6905
22831SOL    HW270168   3.475   4.237   3.172 -0.7709  1.1711  0.1421
22832SOL     OW70169   1.562   5.227   3.079  0.5685 -0.7000 -0.2221
22832SOL    HW170170   1.637   5.286   3.083  0.5748 -0.6610 -0.8325
22832SOL    HW270171   1.509   5.250   3.156  0.0919  0.7371 -0.9484
22833SOL     OW70172   5.035   5.051   9.653 -0.5077 -0.4085  0.3972
22833SOL    HW170173   4.997   5.039   9.740  0.8735  0.3957  1.1451
22833SOL    HW270174   4.985   5.123   9.614  0.6563  1.1570  1.6643
22834SOL     OW70175   0.865   3.232   2.157  0.7708 -0.1009  0.2031
22834SOL    HW170176   0.868   3.324   2.131 -0.3278 -0.3964 -1.0926
22834SOL    HW270177   0.957   3.204   2.156  0.8825 -0.0006 -3.2401
22835SOL     OW70178   3.914   0.676   6.286  0.3232 -0.2617 -0.5836
22835SOL    HW170179   3.914   0.725   6.369  2.5375  0.4421 -0.9551
22835SOL    HW270180   3.932   0.586   6.313  1.5431  0.0435 -0.2963
22836SOL     OW70181   6.376   0.361   8.276  0.4114 -0.6569  0.2787
22836SOL    HW170182   6.433   0.285   8.288  0.0361 -1.1531 -0.9396
22836SOL    HW270183   6.334   0.347   8.191  1.0788  1.3859 -0.4700
22837SOL     OW70184   6.270   1.274   9.307  0.6759  0.0071  0.6485
22837SOL    HW170185   6.206   1.230   9.251  0.5850  0.1036  0.6771
22837SOL    HW270186   6.312   1.339   9.251  0.9338 -0.2308  0.5579
22838SOL     OW70187   2.656   8.450   1.883  0.2154 -0.0727 -0.3502
22838SOL    HW170188   2.601   8.469   1.807 -0.2814 -0.1732 -0.0204
22838SOL    HW270189   2.636   8.360   1.906 -0.5011  0.3095  0.6010
22839SOL     OW70190   0.635   0.014   7.345  0.1775  0.1397  0.2019
22839SOL    HW170191   0.662  -0.062   7.397  1.5067 -0.4872 -1.3303
22839SOL    HW270192   0.550   0.039   7.383 -0.3313 -2.1302  0.7540
22840SOL     OW70193   0.900   5.354   6.435  0.4217  0.1675 -0.5123
22840SOL    HW170194   0.958   5.282   6.411 -0.1849 -0.2833 -0.6565
22840SOL    HW270195   0.830   5.352   6.369 -0.4084 -0.0782  0.3540
22841SOL     OW70196   5.434   8.184   3.235 -0.1011  0.1577  0.9097
22841SOL    HW170197   5.518   8.165   3.276 -0.0981  1.1635  1.4003
22841SOL    HW270198   5.370   8.172   3.304 -0.1080  1.7401  1.2106
22842SOL     OW70199   3.501   2.920   2.028  0.1580  0.2098  0.0932
22842SOL    HW170200   3.553   2.840   2.036  0.6217  0.4176 -0.7574
22842SOL    HW270201   3.479   2.944   2.118  1.0935 -0.1713  0.4293
22843SOL     OW70202   5.063   2.985   2.395  0.1845  0.1338  0.3429
22843SOL    HW170203   5.005   2.928   2.446  0.1942 -1.6454 -1.5072
22843SOL    HW270204   5.086   2.933   2.318 -0.3245  2.8635 -1.8320
22844SOL     OW70205   2.762   0.989   9.219 -0.5300  0.9477  0.4718
22844SOL    HW170206   2.844   1.011   9.174 -0.6945  0.2930 -0.1695
22844SOL    HW270207   2.694   1.027   9.163 -0.7902 -0.6606 -0.3695
22845SOL     OW70208   8.470   9.371   1.648  0.0041  0.1248  0.1563
22845SOL    HW170209   8.437   9.286   1.678 -0.3599 -0.2366 -1.1826
22845SOL    HW270210   8.554   9.381   1.693  0.2440 -1.1387  0.0338
22846SOL     OW70211   1.211   8.931   3.403  0.0645 -0.3415 -0.0043
22846SOL    HW170212   1.273   8.858   3.411  0.0451 -0.2823  0.7339
22846SOL    HW270213   1.151   8.918   3.476 -0.5678 -0.1791 -0.4959
22847SOL     OW70214   8.147   7.824   6.606  0.1801  0.2341  0.0593
22847SOL    HW170215   8.080   7.861   6.549 -0.6608  0.3237  1.0747
22847SOL    HW270216   8.098   7.770   6.668  1.1022 -0.0739  0.5303
22848SOL     OW70217   5.128   2.262   5.534  0.1712 -0.1690  0.0227
22848SOL    HW170218   5.119   2.310   5.452  0.7682 -0.7386 -0.3821
22848SOL    HW270219   5.155   2.174   5.508 -0.2677 -0.5414  0.7951
22849SOL     OW70220   7.558   2.759   2.488  0.9352  0.1237  0.2453
22849SOL    HW170221   7.488   2.694   2.480 -0.0508  1.0317  1.2176
22849SOL    HW270222   7.572   2.768   2.582  2.4141 -0.0608  0.0731
22850SOL     OW70223   5.717   8.045   6.048 -0.3380  0.1503 -0.7414
22850SOL    HW170224   5.718   8.088   6.133 -1.0460  0.7665 -1.0243
22850SOL    HW270225   5.707   8.118   5.985 -2.6193 -0.4645 -1.1847
22851SOL     OW70226   3.307   4.347   5.006 -0.3578 -0.3302 -0.1091
22851SOL    HW170227   3.242   4.284   5.036  0.0965 -0.5380  0.4490
22851SOL    HW270228   3.264   4.432   5.016 -1.0965 -0.5567 -1.1873
22852SOL     OW70229   0.492   4.530   6.592 -0.4748  0.1805 -0.0090
22852SOL    HW170230   0.458   4.441   6.604  1.0325 -0.2467  1.6168
22852SOL    HW270231   0.474   4.574   6.675  2.8151 -0.1348  1.0579
22853SOL     OW70232   4.177   5.036   3.901 -0.0270 -0.1342 -0.0954
22853SOL    HW170233   4.139   5.065   3.984 -1.0867  1.0633 -0.9636
22853SOL    HW270234   4.103   4.997   3.854  0.7867 -1.7393 -0.0893
22854SOL     OW70235   8.871   0.615   2.721 -0.3833  0.2983  0.0696
22854SOL    HW170236   8.892   0.665   2.800 -0.9203 -1.1220  1.1465
22854SOL    HW270237   8.791   0.655   2.688 -1.2977 -0.3511  1.4095
22855SOL     OW70238   7.233   3.043   9.450  0.6577  0.2523  0.2798
22855SOL    HW170239   7.279   3.005   9.376 -0.9705  1.2888 -1.3560
22855SOL    HW270240   7.146   3.003   9.447 -0.0312  1.6611  0.4818
22856SOL     OW70241   7.416   7.288   2.699  0.2037  0.1047 -0.1904
22856SOL    HW170242   7.332   7.293   2.654 -0.0040 -0.1480  0.1656
22856SOL    HW270243   7.477   7.334   2.641 -0.4747  1.6121  0.2323
22857SOL     OW70244   1.146   8.178   7.872  0.2377 -0.3041  0.2266
22857SOL    HW170245   1.118   8.211   7.957  0.2139 -1.4533  0.6758
22857SOL    HW270246   1.242   8.179   7.877  0.2440  0.1171  0.0673
22858SOL     OW70247   8.144   5.447   2.305  0.4721  0.1188 -0.0487
22858SOL    HW170248   8.090   5.385   2.256  0.9878  1.3131 -2.2665
22858SOL    HW270249   8.230   5.442   2.264  1.7449 -0.6827  2.4668
22859SOL     OW70250   3.617   6.355   8.396  0.2895 -0.0718  0.6192
22859SOL    HW170251   3.657   6.268   8.391 -0.0558 -0.1778 -0.3947
22859SOL    HW270252   3.523   6.339   8.394  0.2264  0.3437  0.1302
22860SOL     OW70253   1.092   6.522   0.205  0.4186 -0.3503 -0.0162
22860SOL    HW170254   1.115   6.535   0.113 -1.3768  0.6770 -0.3520
22860SOL    HW270255   1.174   6.538   0.252  0.6229  2.6477 -1.1723
22861SOL     OW70256   0.875   9.159   6.876  0.0862  0.5160 -0.6364
22861SOL    HW170257   0.970   9.150   6.884  0.0334  1.4899  1.9795
22861SOL    HW270258   0.863   9.243   6.832  0.3989 -0.2630 -2.2786
22862SOL     OW70259   4.078   7.891   3.329  0.0677 -0.0683 -0.6089
22862SOL    HW170260   4.108   7.925   3.413  0.8543  0.6288 -1.1484
22862SOL    HW270261   4.147   7.829   3.303  0.3571  0.4861 -1.2020
22863SOL     OW70262   8.264   2.340   5.287 -0.2899 -0.3879  0.2896
22863SOL    HW170263   8.276   2.434   5.276 -0.6353 -0.4826 -1.1176
22863SOL    HW270264   8.180   2.332   5.333 -0.5467 -0.0155 -0.1060
22864SOL     OW70265   1.281   6.505   5.418  0.2245 -0.6345  0.3199
22864SOL    HW170266   1.334   6.512   5.497 -1.4126 -0.8280  1.4810
22864SOL    HW270267   1.251   6.414   5.418 -1.7298 -0.0373  0.8257
22865SOL     OW70268   9.613   0.003   0.686  0.7492 -0.1307  0.6148
22865SOL    HW170269   9.682   0.059   0.650  1.7240 -1.3423  0.5617
22865SOL    HW270270   9.576  -0.042   0.609  1.2950 -1.0132  0.8587
22866SOL     OW70271   8.700   8.386   9.011 -0.2767 -0.5639 -0.1422
22866SOL    HW170272   8.695   8.314   9.075 -0.2857 -0.7177 -0.3161
22866SOL    HW270273   8.787   8.422   9.023 -0.8254  0.4506  1.0839
22867SOL     OW70274   7.146   7.249   3.359 -0.1101 -0.1505 -0.2862
22867SOL    HW170275   7.215   7.235   3.294  1.5392 -0.8523  1.5244
22867SOL    HW270276   7.190   7.242   3.443 -1.9811  1.6669  0.9596
22868SOL     OW70277   5.084   1.296   9.432 -0.0223  0.2790 -0.3157
22868SOL    HW170278   5.009   1.342   9.394 -0.4734  3.3246  3.5950
22868SOL    HW270279   5.160   1.351   9.411  0.0339  0.7969  1.1122
22869SOL     OW70280   5.143   9.671   6.574 -0.3703  0.3610 -0.2202
22869SOL    HW170281   5.210   9.631   6.629 -0.6337  0.3286  0.0790
22869SOL    HW270282   5.162   9.638   6.486 -0.0787  0.2428 -0.1148
22870SOL     OW70283   2.017   3.579   8.810  0.0627 -0.2255  0.5435
22870SOL    HW170284   2.021   3.524   8.888 -0.1980  0.6232  1.1608
22870SOL    HW270285   2.054   3.663   8.837 -1.0754  0.4537  0.0998
22871SOL     OW70286   3.948   8.518   5.190 -0.1050  0.1561  0.4433
22871SOL    HW170287   3.884   8.485   5.254 -2.4976  0.9084 -1.4198
22871SOL    HW270288   4.012   8.565   5.243 -0.6368 -1.2558  2.4786
22872SOL     OW70289   0.760   6.973   6.047  0.3260  0.5389 -0.0845
22872SOL    HW170290   0.765   6.899   6.108 -1.5551 -0.1808 -0.7352
22872SOL    HW270291   0.779   7.050   6.100 -0.4560 -0.1471  1.2448
22873SOL     OW70292   2.846   6.039   9.138  0.2362  0.3506 -0.1546
22873SOL    HW170293   2.870   5.952   9.169  1.1985  1.0735  1.2350
22873SOL    HW270294   2.826   6.027   9.045 -1.2151 -1.6252  0.3468
22874SOL     OW70295   7.948   6.425   4.497 -1.1407  0.7389 -0.4504
22874SOL    HW170296   7.941   6.336   4.463  0.9025  0.4223 -0.2003
22874SOL    HW270297   7.876   6.432   4.560 -1.4113 -0.7045 -0.5583
22875SOL     OW70298   4.181   8.029   3.552 -0.1272 -0.8056 -0.1480
22875SOL    HW170299   4.104   8.067   3.594 -0.1591  1.6188 -2.1875
22875SOL    HW270300   4.251   8.092   3.569  0.8099 -1.7404 -0.4303
22876SOL     OW70301   4.661   8.531   0.564 -0.5902 -0.3492  0.1495
22876SOL    HW170302   4.666   8.436   0.580  0.4093 -0.6831 -1.8031
22876SOL    HW270303   4.584   8.541   0.508 -0.3417 -0.1189 -0.1580
22877SOL     OW70304   9.431   8.670   7.804 -0.3071  0.0479 -0.0152
22877SOL    HW170305   9.428   8.654   7.710  0.5052 -1.2266  0.1550
22877SOL    HW270306   9.342   8.651   7.834 -1.0980  2.2742 -0.7519
22878SOL     OW70307   5.728   3.756   7.309  0.1664 -0.2818 -0.1459
22878SOL    HW170308   5.758   3.725   7.223  3.0034 -1.9351  1.3070
22878SOL    HW270309   5.762   3.846   7.315  0.9387 -0.5468 -0.3585
22879SOL     OW70310   7.442   9.377   2.649 -0.0725 -0.0142  0.3708
22879SOL    HW170311   7.430   9.308   2.584 -1.0112 -0.3343  0.8662
22879SOL    HW270312   7.446   9.458   2.598  0.9266 -0.4103 -0.2070
22880SOL     OW70313   7.129   3.998   8.150 -0.1031  0.0832  0.2238
22880SOL    HW170314   7.163   4.054   8.081  3.5152 -2.0794  0.0113
22880SOL    HW270315   7.069   3.938   8.105  0.5383  0.0684 -0.6163
22881SOL     OW70316   7.312   1.187   5.958  0.3937  0.2299 -0.3141
22881SOL    HW170317   7.254   1.129   5.909 -0.3028  0.4462  0.2370
22881SOL    HW270318   7.387   1.201   5.900  1.4332 -2.5853  0.1862
22882SOL     OW70319   5.410   4.752   1.393 -0.1704 -0.2048  0.5226
22882SOL    HW170320   5.406   4.690   1.466 -0.9156 -2.1261 -1.0589
22882SOL    HW270321   5.319   4.758   1.363  0.4905 -2.1540 -2.3037
22883SOL     OW70322   6.197   7.297   7.595 -0.1816  0.3010 -0.1383
22883SOL    HW170323   6.150   7.276   7.515 -0.0123  0.1622 -0.2016
22883SOL    HW270324   6.280   7.251   7.587  0.6690  1.8866 -0.7852
22884SOL     OW70325   4.326   0.535   4.410  0.0243 -0.2900  0.2768
22884SOL    HW170326   4.232   0.528   4.397 -0.0123  1.5446 -0.8976
22884SOL    HW270327   4.347   0.625   4.382  1.9261 -0.2339  1.7086
22885SOL     OW70328   2.106   7.110   7.971  0.1439  0.6637 -0.0838
22885SOL    HW170329   2.175   7.044   7.972 -0.8692 -0.4307 -0.3191
22885SOL    HW270330   2.027   7.063   7.942 -1.2652  1.2947  2.3851
22886SOL     OW70331   5.299   8.753   4.124  0.2420 -0.5435  0.3088
22886SOL    HW170332   5.219   8.710   4.093  0.1176 -0.9363  1.1550
22886SOL    HW270333   5.335   8.795   4.046 -2.2060  1.9499  0.3273
22887SOL     OW70334   1.979   5.975   7.256 -0.1504 -0.5866  0.3827
22887SOL    HW170335   2.020   6.060   7.243  2.4167 -2.0351 -2.1698
22887SOL    HW270336   1.892   5.995   7.290  0.1609  3.0564 -0.5524
22888SOL     OW70337   2.217   3.823   2.436  0.2086  0.2267 -0.8204
22888SOL    HW170338   2.186   3.881   2.506 -0.7010 -0.4427 -0.6456
22888SOL    HW270339   2.276   3.762   2.480  1.8084  1.4731 -1.1449
22889SOL     OW70340   4.464   1.556   0.211 -0.2266  0.1114  0.7454
22889SOL    HW170341   4.525   1.579   0.280 -0.8335  0.5030  1.1653
22889SOL    HW270342   4.506   1.484   0.163 -0.5619 -1.3799  2.5876
22890SOL     OW70343   6.071   2.804   6.725  0.3659 -0.2447  0.5617
22890SOL    HW170344   6.094   2.713   6.706 -0.3470 -0.2510 -0.3006
22890SOL    HW270345   6.153   2.843   6.755  0.5850 -1.2746  1.3892
22891SOL     OW70346   1.528   4.676   1.481 -0.1972  0.5204  0.1427
22891SOL    HW170347   1.533   4.632   1.397  0.6758  0.3452  0.2817
22891SOL    HW270348   1.439   4.710   1.485 -0.1435  0.7997 -0.9763
22892SOL     OW70349   4.260   8.199   8.646 -0.0754 -0.1894  0.3607
22892SOL    HW170350   4.301   8.124   8.602  1.6703  1.0492 -0.1886
22892SOL    HW270351   4.219   8.249   8.576 -1.7889 -0.9071  0.7980
22893SOL     OW70352   3.374   4.415   0.096 -0.5144 -0.0364 -0.4268
22893SOL    HW170353   3.436   4.345   0.070 -0.1829 -0.6807  1.9015
22893SOL    HW270354   3.322   4.430   0.017  1.1547 -1.0445 -1.8077
22894SOL     OW70355   7.906   4.975   3.484 -0.6817  0.0501 -0.0550
22894SOL    HW170356   7.956   4.935   3.413  2.4016 -0.2747  2.1014
22894SOL    HW270357   7.826   4.924   3.489  1.1390 -3.0739 -0.2733
22895SOL     OW70358   8.354   5.899   5.478  0.3381  0.0221 -0.3008
22895SOL    HW170359   8.375   5.809   5.503 -2.0192 -0.1966  1.1775
22895SOL    HW270360   8.259   5.900   5.468  0.0719  2.6559  1.3851
22896SOL     OW70361   1.995   0.614   0.487  0.3608  0.7823 -0.5052
22896SOL    HW170362   2.015   0.616   0.581  0.0881  1.0525 -0.4527
22896SOL    HW270363   2.081   0.616   0.444  0.6007 -1.2672 -0.2451
22897SOL     OW70364   4.501   1.574   2.797 -0.4189  0.1453  0.5105
22897SOL    HW170365   4.486   1.620   2.880 -0.2698 -0.1159  0.6838
22897SOL    HW270366   4.447   1.495   2.803  0.5954 -0.5347  0.9145
22898SOL     OW70367   8.204   3.377   4.834  0.5274 -0.3131  0.6667
22898SOL    HW170368   8.220   3.398   4.742  3.1150 -0.7334  0.9580
22898SOL    HW270369   8.274   3.421   4.882 -0.1070 -1.0378  2.3354
22899SOL     OW70370   5.046   7.338   4.911  0.2443 -0.1130  0.0827
22899SOL    HW170371   5.066   7.348   4.818 -1.1063 -1.9610 -0.4777
22899SOL    HW270372   5.087   7.413   4.953 -0.5385  1.7000 -2.2013
22900SOL     OW70373   4.672   8.738   0.028  0.3846  0.4059  0.2136
22900SOL    HW170374   4.637   8.798   0.094  0.8511  0.9334 -0.0132
22900SOL    HW270375   4.740   8.689   0.074  0.9882  1.0548  0.0298
22901SOL     OW70376   5.102   6.473   0.082  0.8898  0.1118 -0.0618
22901SOL    HW170377   5.181   6.421   0.096 -0.1949 -1.1790  1.8662
22901SOL    HW270378   5.133   6.560   0.061  2.8698 -0.1504  1.4836
22902SOL     OW70379   8.559   5.549   4.846  0.1934  0.0589  0.0278
22902SOL    HW170380   8.538   5.581   4.759 -1.1464 -0.3809  0.1580
22902SOL    HW270381   8.654   5.537   4.846  0.0919 -1.0840 -1.7793
22903SOL     OW70382   2.256   8.081   1.676  0.3777  0.4285  0.3175
22903SOL    HW170383   2.308   8.112   1.749 -0.8222 -1.3229  2.0257
22903SOL    HW270384   2.276   7.987   1.670 -1.2610  0.0624 -0.0570
22904SOL     OW70385   8.209   0.200   9.027  0.2601  0.3810 -0.3652
22904SOL    HW170386   8.231   0.291   9.045  0.1854  0.0552  1.5459
22904SOL    HW270387   8.127   0.205   8.977  0.3080  1.3521 -0.3696
22905SOL     OW70388   4.791   0.995   9.268  0.3843 -0.0808 -0.3128
22905SOL    HW170389   4.850   1.009   9.342  0.2638 -0.3480 -0.1617
22905SOL    HW270390   4.842   0.945   9.205  0.2400 -0.5641 -0.0603
22906SOL     OW70391   1.665   7.665   2.784 -0.2550  0.1007  0.3084
22906SOL    HW170392   1.584   7.716   2.781 -2.1427 -2.6691  0.5115
22906SOL    HW270393   1.685   7.657   2.877  0.2065  0.6447  0.2646
22907SOL     OW70394   3.090   5.050   0.599  0.2454 -0.2531  0.0241
22907SOL    HW170395   3.115   4.977   0.543  1.9916 -0.5196  1.0428
22907SOL    HW270396   3.173   5.076   0.641 -0.9345 -0.0557  2.3949
22908SOL     OW70397   7.545   0.952   1.041 -0.0940  0.3370  0.3947
22908SOL    HW170398   7.636   0.973   1.063  0.4409 -0.6608 -0.7195
22908SOL    HW270399   7.511   0.906   1.117  1.3224 -1.9784 -0.2621
22909SOL     OW70400   1.630   1.540   0.235 -0.2238  0.2360 -0.3274
22909SOL    HW170401   1.694   1.541   0.306 -1.3867 -1.1759  0.7951
22909SOL    HW270402   1.682   1.530   0.156  0.9691 -0.7097  0.5389
22910SOL     OW70403   4.705   3.287   7.451 -0.2453 -0.0788 -0.3331
22910SOL    HW170404   4.693   3.194   7.432 -0.5905 -1.3621  4.7699
22910SOL    HW270405   4.800   3.298   7.459 -0.2792 -0.8143  1.7236
22911SOL     OW70406   3.747   6.699   2.317 -0.4503  0.4549 -0.7716
22911SOL    HW170407   3.728   6.743   2.234 -0.7808 -0.9435 -1.4591
22911SOL    HW270408   3.788   6.767   2.371 -1.3313  1.7255 -1.6337
22912SOL     OW70409   5.157   0.127   5.259 -0.2779  0.1065  0.0657
22912SOL    HW170410   5.158   0.218   5.230  0.8628 -0.1335 -0.7166
22912SOL    HW270411   5.164   0.076   5.178  0.0784 -0.6484  0.5619
22913SOL     OW70412   7.754   0.460   8.296  0.1086  0.3900 -0.2772
22913SOL    HW170413   7.763   0.526   8.228 -1.5409  0.3763 -0.5395
22913SOL    HW270414   7.802   0.384   8.262  1.7876  1.3238 -0.0908
22914SOL     OW70415   4.387   6.550   7.426 -0.5698 -0.0508 -0.5296
22914SOL    HW170416   4.320   6.493   7.464 -0.0305 -2.0978 -2.4741
22914SOL    HW270417   4.455   6.554   7.494  0.2881 -3.4607 -1.0085
22915SOL     OW70418   7.182   2.043   4.097 -0.2158  0.4496 -0.4687
22915SOL    HW170419   7.150   2.015   4.011 -2.4598  0.3179  0.3433
22915SOL    HW270420   7.261   2.094   4.078 -0.6899  0.4677 -2.6072
22916SOL     OW70421   6.017   4.640   3.415 -0.1091 -0.6761  0.0254
22916SOL    HW170422   5.961   4.634   3.338  1.2452  1.5659 -1.2365
22916SOL    HW270423   5.985   4.718   3.462  1.6358  0.4486 -0.5508
22917SOL     OW70424   3.825   8.768   8.801  0.1924  0.1529 -0.1066
22917SOL    HW170425   3.755   8.767   8.866  0.6422  2.2530  0.4799
22917SOL    HW270426   3.906   8.766   8.852  0.6579 -2.5814 -0.7784
22918SOL     OW70427   5.063   5.469   0.996 -0.0233  0.2422 -0.3094
22918SOL    HW170428   5.149   5.469   0.952 -0.9062  0.6750 -2.1149
22918SOL    HW270429   5.036   5.561   0.994  0.0976  0.3437  1.5856
22919SOL     OW70430   0.381   6.942   6.755 -0.3318 -0.0236  0.1088
22919SOL    HW170431   0.358   6.878   6.822  0.1996 -0.8770 -0.5017
22919SOL    HW270432   0.378   7.026   6.800 -0.5952 -0.5182  1.0398
22920SOL     OW70433   9.368   3.400   1.592 -0.3591  0.3385 -0.4208
22920SOL    HW170434   9.439   3.335   1.594  0.1330  0.8783  0.0134
22920SOL    HW270435   9.337   3.403   1.683  0.6056  1.7530 -0.0933
22921SOL     OW70436   7.607   6.227   2.855  0.2357 -0.5216 -0.1609
22921SOL    HW170437   7.561   6.299   2.813 -1.3991 -1.2527  0.2905
22921SOL    HW270438   7.680   6.268   2.901 -1.1713  0.9784  0.8445
22922SOL     OW70439   3.826   9.235   3.345  0.3659 -0.0117  0.1214
22922SOL    HW170440   3.773   9.266   3.271  0.7426  0.9185  0.2368
22922SOL    HW270441   3.899   9.296   3.350  1.7085 -1.5095 -0.2843
22923SOL     OW70442   2.212   1.103   6.932 -0.3673  0.1547 -0.0513
22923SOL    HW170443   2.182   1.169   6.993 -0.7039  1.6896 -1.7896
22923SOL    HW270444   2.303   1.128   6.912  0.3533 -1.3561  1.0918
22924SOL     OW70445   0.620   6.643   4.246 -0.4057  0.9676  0.7089
22924SOL    HW170446   0.576   6.725   4.223 -0.1730  1.2487  1.2475
22924SOL    HW270447   0.563   6.574   4.211 -1.6587  1.3038  2.0293
22925SOL     OW70448   7.951   0.245   7.831 -0.2076  0.7654 -0.0933
22925SOL    HW170449   8.021   0.260   7.767 -1.8015 -0.1683 -2.1991
22925SOL    HW270450   7.878   0.298   7.800 -1.4478 -0.6990  0.1923
22926SOL     OW70451   6.163   8.120   5.137  0.1092  0.7573  0.4362
22926SOL    HW170452   6.153   8.189   5.203 -0.7352  0.5595  0.5289
22926SOL    HW270453   6.257   8.101   5.136  0.0271 -0.0643  2.4523
22927SOL     OW70454   4.338   7.061   2.580  0.0545 -0.1953 -0.1807
22927SOL    HW170455   4.433   7.047   2.585  0.0820 -0.5644 -1.3630
22927SOL    HW270456   4.311   7.073   2.671  1.3036  0.4042  0.1394
22928SOL     OW70457   3.939   4.398   7.834  0.0279 -0.2256  0.4444
22928SOL    HW170458   3.974   4.470   7.782 -2.1495  1.6851  1.4420
22928SOL    HW270459   3.982   4.407   7.919 -1.1633  0.7587  0.9736
22929SOL     OW70460   7.919   6.810   8.779  0.4887 -0.7042 -0.0109
22929SOL    HW170461   7.870   6.769   8.851  0.3107  0.5698  0.6267
22929SOL    HW270462   7.866   6.792   8.701  0.9596 -2.5706  0.0611
22930SOL     OW70463   0.812   6.352   2.581 -0.0508 -0.5052 -0.8359
22930SOL    HW170464   0.761   6.403   2.644  0.3229 -2.6292  1.3526
22930SOL    HW270465   0.903   6.374   2.602  0.0440 -0.3908 -1.3770
22931SOL     OW70466   8.598   8.634   3.598 -0.3682  0.8781 -0.2513
22931SOL    HW170467   8.575   8.627   3.506  0.3999  1.8714 -0.5370
22931SOL    HW270468   8.573   8.723   3.623  1.7567  1.5180 -0.2128
22932SOL     OW70469   0.891   0.024   4.245 -0.3193 -0.7815 -0.2760
22932SOL    HW170470   0.863   0.114   4.227 -1.4363 -0.4480  2.6456
22932SOL    HW270471   0.986   0.031   4.258 -0.2021 -0.2876 -1.2855
22933SOL     OW70472   8.414   7.398   3.992 -0.7412 -0.7696 -0.2442
22933SOL    HW170473   8.389   7.388   3.900 -3.7095  0.3368  0.3272
22933SOL    HW270474   8.395   7.489   4.012  2.3306 -0.2866  0.8710
22934SOL     OW70475   4.596   1.601   1.256  0.5282 -0.0556 -0.4465
22934SOL    HW170476   4.683   1.572   1.283 -0.4689 -1.6289  1.2567
22934SOL    HW270477   4.553   1.628   1.337 -0.6609  0.4963 -1.2280
22935SOL     OW70478   8.690   3.538   3.495 -0.2058  0.0186  0.1609
22935SOL    HW170479   8.616   3.519   3.438 -0.1511  0.5208 -0.0802
22935SOL    HW270480   8.729   3.452   3.513  0.2668 -0.0802 -1.2112
22936SOL     OW70481   3.164   2.977   9.162 -0.7522  0.0230  0.0864
22936SOL    HW170482   3.175   2.910   9.094 -0.5451  0.1240  0.0198
22936SOL    HW270483   3.097   2.942   9.219 -0.2679 -0.4822  0.3508
22937SOL     OW70484   2.495   9.619   7.185 -0.6168 -0.0815  0.5346
22937SOL    HW170485   2.536   9.648   7.103 -0.2747  2.1280  1.4315
22937SOL    HW270486   2.421   9.679   7.197 -2.3727 -2.1245  0.4849
22938SOL     OW70487   5.296   5.093   2.956  1.0159  0.0599  0.1853
22938SOL    HW170488   5.324   5.033   2.887  0.5488 -0.3690  0.3657
22938SOL    HW270489   5.320   5.180   2.923  0.5244 -0.1083 -0.6565
22939SOL     OW70490   3.862   4.253   6.029  0.3607  0.2222 -0.2160
22939SOL    HW170491   3.923   4.316   6.066  0.9165  0.0612 -0.8275
22939SOL    HW270492   3.867   4.268   5.934  0.2058 -0.4700 -0.3395
22940SOL     OW70493   7.953   9.380   4.507  0.4329 -0.4907  0.4781
22940SOL    HW170494   8.046   9.357   4.510  0.8045  1.0684  2.1531
22940SOL    HW270495   7.947   9.445   4.437  0.6172 -0.4271  0.5226
22941SOL     OW70496   6.586   8.682   3.126  0.6880 -0.2015  0.5545
22941SOL    HW170497   6.672   8.708   3.161  0.1188 -0.6674  2.4421
22941SOL    HW270498   6.524   8.736   3.175 -0.0868  1.6224 -2.2052
22942SOL     OW70499   8.146   4.780   5.502 -0.5326 -0.0447 -0.0877
22942SOL    HW170500   8.054   4.804   5.491 -0.7266 -1.4824 -2.1442
22942SOL    HW270501   8.145   4.711   5.568 -0.6768  1.2562  1.3051
22943SOL     OW70502   4.986   5.500   8.577  0.9230 -0.1565 -0.0806
22943SOL    HW170503   4.923   5.548   8.631  0.3269  0.0144 -0.9004
22943SOL    HW270504   4.958   5.518   8.487  1.8906 -0.4305 -0.4485
22944SOL     OW70505   8.197   3.561   7.910 -0.3999 -0.0328  0.6418
22944SOL    HW170506   8.111   3.538   7.946 -0.1217 -0.4951  1.0068
22944SOL    HW270507   8.258   3.546   7.981  0.2945 -1.9122 -0.2936
22945SOL     OW70508   9.233   8.505   5.091 -0.4718 -0.3472 -0.0557
22945SOL    HW170509   9.234   8.432   5.028 -0.8749  1.1509 -1.8936
22945SOL    HW270510   9.317   8.549   5.078 -0.2801 -0.4019  0.9530
22946SOL     OW70511   4.906   6.559   1.592 -0.4692 -0.3262 -0.0173
22946SOL    HW170512   4.877   6.577   1.681  1.5550 -0.7752  0.7806
22946SOL    HW270513   4.987   6.609   1.582  0.5080 -1.9681 -0.8171
22947SOL     OW70514   8.061   6.613   6.917 -0.2225  0.3084  0.4512
22947SOL    HW170515   8.037   6.531   6.960 -0.4243  0.1118 -0.0277
22947SOL    HW270516   7.982   6.638   6.868  0.2573  0.1118 -0.4437
22948SOL     OW70517   6.965   0.387   3.656  0.4476 -0.4973  0.6117
22948SOL    HW170518   6.926   0.440   3.587  2.4958  0.0006 -0.2327
22948SOL    HW270519   6.972   0.447   3.731  0.0893 -0.4521  0.6124
22949SOL     OW70520   1.886   0.506   2.197 -0.5351  0.2558 -0.0737
22949SOL    HW170521   1.909   0.596   2.174 -0.3936  0.4270  0.7180
22949SOL    HW270522   1.970   0.463   2.214 -0.4844 -0.4209 -1.7609
22950SOL     OW70523   7.771   1.758   2.560 -0.0221 -0.1092 -0.1022
22950SOL    HW170524   7.828   1.798   2.625  1.2577 -0.4322 -0.9885
22950SOL    HW270525   7.746   1.830   2.502  0.4660 -0.1790 -0.4033
22951SOL     OW70526   0.507   0.772   9.455 -0.3178 -0.1083 -0.2680
22951SOL    HW170527   0.436   0.804   9.512 -0.7439  2.6111 -2.1223
22951SOL    HW270528   0.475   0.688   9.422 -1.8012  0.1414  0.4479
22952SOL     OW70529   7.454   7.098   7.818 -0.0346 -0.1831 -0.2637
22952SOL    HW170530   7.533   7.149   7.803  1.7031 -2.3734  0.8472
22952SOL    HW270531   7.452   7.084   7.913 -0.5400 -1.9234 -0.4852
22953SOL     OW70532   1.253   5.767   0.999  0.4575 -0.5848  0.9410
22953SOL    HW170533   1.163   5.776   0.968  0.1198 -2.2849  1.3576
22953SOL    HW270534   1.265   5.673   1.013  2.1384 -0.3382  1.3797
22954SOL     OW70535   1.141   4.378   5.108  0.2560 -0.3766  0.6363
22954SOL    HW170536   1.165   4.315   5.175 -1.9289 -0.1272  1.7399
22954SOL    HW270537   1.047   4.390   5.119 -0.3275 -0.7305 -2.8446
22955SOL     OW70538   3.972   0.193   1.115  0.2340 -0.1268 -0.2494
22955SOL    HW170539   3.882   0.175   1.085  0.2537 -1.9859  0.6390
22955SOL    HW270540   3.964   0.199   1.210  1.0844 -0.6001 -0.1436
22956SOL     OW70541   0.184   1.301   1.859  0.2137  0.1899  0.1089
22956SOL    HW170542   0.254   1.236   1.854  0.9218  0.9298  0.2899
22956SOL    HW270543   0.103   1.249   1.851  0.7000 -0.8756  1.6636
22957SOL     OW70544   0.538   7.085   2.411 -0.3987  0.6318 -0.1423
22957SOL    HW170545   0.522   7.015   2.347  1.7287 -0.3070  0.2678
22957SOL    HW270546   0.527   7.166   2.361 -0.1021 -0.0589 -1.3698
22958SOL     OW70547   7.565   3.671   8.431 -0.0857 -0.3190 -0.4996
22958SOL    HW170548   7.607   3.621   8.500  0.6750 -0.5184 -1.0906
22958SOL    HW270549   7.524   3.605   8.375  1.0275 -0.3317 -1.3509
22959SOL     OW70550   9.509   1.823   1.621  0.7246  0.2920  0.0246
22959SOL    HW170551   9.490   1.736   1.657  0.5452 -0.2445 -1.3072
22959SOL    HW270552   9.553   1.869   1.692 -0.3275 -0.4447  1.2039
22960SOL     OW70553   5.442   8.278   0.696  0.0229 -0.2727  0.1559
22960SOL    HW170554   5.402   8.244   0.616 -0.2237  0.8081 -0.1948
22960SOL    HW270555   5.405   8.224   0.766 -1.3607  0.1064 -0.2571
22961SOL     OW70556   1.277   7.220   4.853 -0.2785 -0.7069 -0.0135
22961SOL    HW170557   1.232   7.173   4.923 -1.1754  0.4593  0.2260
22961SOL    HW270558   1.370   7.205   4.870 -0.4148  0.4837  2.1577
22962SOL     OW70559   5.966   0.110   7.477 -0.3526  0.1949  0.5177
22962SOL    HW170560   5.905   0.175   7.443  1.6176  1.4171 -0.9423
22962SOL    HW270561   5.955   0.034   7.419 -0.1433  0.6071 -0.0762
22963SOL     OW70562   6.267   8.800   7.549 -0.3961  0.1519  0.1558
22963SOL    HW170563   6.277   8.768   7.639  1.0503 -0.2996 -0.1408
22963SOL    HW270564   6.356   8.802   7.514 -0.7509  1.8135 -0.7741
22964SOL     OW70565   8.379   0.528   7.904 -0.4983  0.4314 -0.1258
22964SOL    HW170566   8.471   0.530   7.879  0.4628  0.4941  2.9653
22964SOL    HW270567   8.371   0.454   7.965 -2.4316  0.6096 -0.0752
22965SOL     OW70568   7.141   7.699   0.079 -0.1857  0.1123  0.2988
22965SOL    HW170569   7.101   7.777   0.040 -0.8873 -0.8297 -0.9575
22965SOL    HW270570   7.075   7.630   0.067  1.6263 -1.4210 -1.4772
22966SOL     OW70571   8.999   2.245   5.451 -0.5022  0.2831 -0.6808
22966SOL    HW170572   8.934   2.209   5.511 -0.4150 -0.1917 -0.8601
22966SOL    HW270573   8.966   2.332   5.428 -0.9255  0.1614 -0.5415
22967SOL     OW70574   5.468   6.022   0.904  0.2260  0.4434 -0.3746
22967SOL    HW170575   5.448   5.938   0.863  0.0381  0.3730 -0.1477
22967SOL    HW270576   5.390   6.075   0.888 -0.5607 -0.1165  1.2603
22968SOL     OW70577   8.620   7.058   3.083 -0.5004  0.2193  0.2205
22968SOL    HW170578   8.626   7.050   2.988 -2.1595  1.8319 -0.0728
22968SOL    HW270579   8.681   7.128   3.105  0.4279 -0.6367  0.4814
22969SOL     OW70580   8.369   7.703   3.979 -0.1147  0.5460 -0.3536
22969SOL    HW170581   8.294   7.751   4.015 -1.2193 -1.0578 -0.3765
22969SOL    HW270582   8.349   7.695   3.886  0.1598  0.2407 -0.3868
22970SOL     OW70583   5.354   6.624   9.626 -0.8570  0.6736 -0.2882
22970SOL    HW170584   5.404   6.649   9.704 -1.2959  0.4975  0.0507
22970SOL    HW270585   5.268   6.664   9.638 -1.5428 -0.8796  0.2217
22971SOL     OW70586   4.892   1.427   4.259  0.4601  0.0314  0.1860
22971SOL    HW170587   4.878   1.463   4.171 -0.7530 -0.2493  0.2369
22971SOL    HW270588   4.811   1.380   4.278  1.2191 -1.0136  0.9364
22972SOL     OW70589   2.754   7.449   3.577  0.1162  0.0733  0.0627
22972SOL    HW170590   2.755   7.435   3.482  0.3600  0.6241 -0.0153
22972SOL    HW270591   2.813   7.382   3.611  1.2936  0.8838 -0.3140
22973SOL     OW70592   4.891   3.178   0.439  0.3293  0.0352 -0.1634
22973SOL    HW170593   4.804   3.205   0.409  0.3388 -1.8119 -2.0780
22973SOL    HW270594   4.878   3.092   0.478  1.1950  0.0577  0.2011
22974SOL     OW70595   1.910   3.177   4.702  0.1464 -0.6543  0.4400
22974SOL    HW170596   1.855   3.239   4.749  0.2897 -0.2475  0.0720
22974SOL    HW270597   1.940   3.116   4.769  1.1127  0.4635  1.0547
22975SOL     OW70598   4.396   5.019   3.713 -0.2794 -0.0443 -0.2221
22975SOL    HW170599   4.385   4.949   3.649 -1.6867 -0.0668  0.0114
22975SOL    HW270600   4.355   4.985   3.793  1.0847  0.1403  0.5900
22976SOL     OW70601   2.146   8.805   6.692  0.0194 -0.2521  0.4996
22976SOL    HW170602   2.233   8.773   6.716  0.1532  0.3746  0.8657
22976SOL    HW270603   2.085   8.754   6.746  0.0167 -1.9500 -1.0185
22977SOL     OW70604   1.378   1.506   6.230  0.2398  0.3706  0.3096
22977SOL    HW170605   1.293   1.520   6.271 -0.3177  0.1223 -0.7177
22977SOL    HW270606   1.419   1.593   6.228 -0.3339  0.6375  0.0925
22978SOL     OW70607   7.604   1.687   4.847  0.3337 -0.2403  0.0486
22978SOL    HW170608   7.677   1.698   4.787  0.5099  2.4487  0.6348
22978SOL    HW270609   7.533   1.655   4.791  1.3285 -0.7378 -0.9739
22979SOL     OW70610   2.401   2.033   7.886  0.4323 -0.0251 -0.6267
22979SOL    HW170611   2.437   1.981   7.958  1.4301  0.2725 -0.8894
22979SOL    HW270612   2.323   2.074   7.922 -0.1984 -1.4521 -0.3200
22980SOL     OW70613   8.131   1.883   9.658 -0.3874 -0.6014 -0.0109
22980SOL    HW170614   8.092   1.915   9.739 -0.3854  1.1477 -0.6629
22980SOL    HW270615   8.060   1.886   9.594  0.6365  2.5188 -1.1856
22981SOL     OW70616   3.867   6.087   1.937  0.2559 -0.0470  0.1972
22981SOL    HW170617   3.895   6.014   1.992  0.3373 -0.2613 -0.1266
22981SOL    HW270618   3.778   6.063   1.909  0.7168 -0.5811 -0.8596
22982SOL     OW70619   9.509   7.279   3.609  0.8462 -0.4324 -0.4222
22982SOL    HW170620   9.509   7.261   3.514 -1.7236 -1.1283 -0.3844
22982SOL    HW270621   9.471   7.199   3.647 -0.2528  0.6915  0.9385
22983SOL     OW70622   6.482   7.999   4.219  0.3254  0.8050  0.2138
22983SOL    HW170623   6.492   7.926   4.158  0.9929 -0.0131  1.2429
22983SOL    HW270624   6.518   8.074   4.173  1.2592  0.1069 -0.2374
22984SOL     OW70625   7.940   0.693   4.891  0.1889 -0.3824 -0.8138
22984SOL    HW170626   7.973   0.777   4.861  2.8186 -1.8145 -2.2888
22984SOL    HW270627   7.953   0.695   4.986  2.8957 -0.1274 -1.1255
22985SOL     OW70628   8.320   7.076   6.861  0.0265  0.0235 -0.1224
22985SOL    HW170629   8.324   6.990   6.818  1.4282 -0.0942  0.2116
22985SOL    HW270630   8.377   7.068   6.937 -1.3482  0.6667  1.0338
22986SOL     OW70631   5.950   9.455   2.604  0.0735  0.3591 -0.2251
22986SOL    HW170632   6.003   9.401   2.546  2.6604  2.3725  0.0877
22986SOL    HW270633   5.915   9.394   2.668  1.7197 -1.1537 -0.6863
22987SOL     OW70634   1.924   0.187   0.437  0.1989 -0.5548  0.1226
22987SOL    HW170635   1.840   0.215   0.474  0.6865 -0.0102  0.8580
22987SOL    HW270636   1.919   0.092   0.434 -0.2242 -0.5547  0.6974
22988SOL     OW70637   3.003   2.000   2.111 -0.3368  0.0520  0.1415
22988SOL    HW170638   2.937   1.964   2.052  1.0650 -2.8143  0.1543
22988SOL    HW270639   3.018   1.931   2.176  2.8055  0.4366 -0.0174
22989SOL     OW70640   2.044   9.125   7.345 -0.5613 -0.2439  0.4805
22989SOL    HW170641   1.968   9.174   7.375 -0.1957 -1.4707  3.9440
22989SOL    HW270642   2.021   9.033   7.360  0.8570 -0.7699 -0.3637
22990SOL     OW70643   9.161   1.184   3.377  0.0808 -0.5711  0.1279
22990SOL    HW170644   9.243   1.167   3.331  1.5252  2.6378  1.1953
22990SOL    HW270645   9.150   1.109   3.435  1.8115 -1.4875 -0.6489
22991SOL     OW70646   2.536   1.216   0.915 -0.5528 -0.0412  0.6430
22991SOL    HW170647   2.618   1.169   0.901  1.2115  2.4558  1.7831
22991SOL    HW270648   2.499   1.229   0.828  0.9910 -0.0615 -0.0350
22992SOL     OW70649   8.745   2.891   1.200 -0.3195  0.6974  0.4933
22992SOL    HW170650   8.691   2.819   1.168  0.2446  0.8943 -0.9536
22992SOL    HW270651   8.807   2.849   1.260 -0.8563  0.2014  0.7222
22993SOL     OW70652   5.711   0.736   9.151 -0.3465 -0.1072 -0.4215
22993SOL    HW170653   5.745   0.646   9.147 -2.1095 -0.7718 -2.9153
22993SOL    HW270654   5.699   0.761   9.059 -0.0739  2.6610  0.2163
22994SOL     OW70655   5.835   6.033   2.031  0.2941  0.0357  0.0476
22994SOL    HW170656   5.826   5.990   2.116  0.0375  1.1148  0.5929
22994SOL    HW270657   5.785   6.114   2.040 -1.7993 -0.9404 -1.9601
22995SOL     OW70658   7.018   7.895   2.718 -0.4865 -0.3597  0.2925
22995SOL    HW170659   7.085   7.848   2.668  0.5322  0.6880  0.6295
22995SOL    HW270660   6.988   7.963   2.659 -0.3727 -0.0702  0.5666
22996SOL     OW70661   5.310   4.500   0.604 -0.0496 -0.2608 -0.1576
22996SOL    HW170662   5.274   4.559   0.538  0.0991 -1.9038 -1.8091
22996SOL    HW270663   5.244   4.497   0.672  0.1600  2.1375  0.2406
22997SOL     OW70664   2.103   1.744   4.549 -0.2269  0.5112 -0.1083
22997SOL    HW170665   2.035   1.741   4.483  0.1981  1.6084 -0.6201
22997SOL    HW270666   2.110   1.654   4.581 -2.8920  0.6241  0.9909
22998SOL     OW70667   5.413   3.978   0.836 -0.1979  0.5796 -0.1342
22998SOL    HW170668   5.379   3.960   0.748 -1.5532  2.1708  0.0149
22998SOL    HW270669   5.431   4.072   0.836  2.0331  0.1987  0.5751
22999SOL     OW70670   0.280   3.687   6.770  0.0345  0.2027 -0.2910
22999SOL    HW170671   0.284   3.592   6.775 -0.0362  0.1330 -1.3230
22999SOL    HW270672   0.311   3.708   6.681  2.2337  1.2902  0.6396
23000SOL     OW70673   1.765   1.015   0.763 -0.3448 -0.1907 -0.0210
23000SOL    HW170674   1.714   0.937   0.785 -0.6679 -0.2816 -1.0422
23000SOL    HW270675   1.801   0.997   0.676 -0.7659  0.9630 -0.4524
23001SOL     OW70676   5.856   1.091   9.025 -0.0803  0.2762 -0.1840
23001SOL    HW170677   5.884   1.082   8.933 -0.2611 -0.4157 -0.1803
23001SOL    HW270678   5.783   1.030   9.033  2.5962 -3.0121  1.5115
23002SOL     OW70679   4.993   5.592   4.698  0.1178 -0.6332 -0.5532
23002SOL    HW170680   5.043   5.519   4.734  0.0316 -1.1690 -1.4951
23002SOL    HW270681   5.040   5.618   4.619 -1.4554 -1.6557 -1.9020
23003SOL     OW70682   9.295   0.011   9.448 -0.1493 -0.1009 -0.3356
23003SOL    HW170683   9.350  -0.062   9.420 -2.2446 -2.0814  0.4178
23003SOL    HW270684   9.214   0.002   9.398 -0.5608  1.6032 -0.0618
23004SOL     OW70685   0.528   4.240   2.429 -0.0002 -0.1796 -0.3497
23004SOL    HW170686   0.469   4.315   2.437 -2.4561 -2.0572  0.7634
23004SOL    HW270687   0.540   4.228   2.335  0.2809  1.4381 -0.5473
23005SOL     OW70688   0.073   8.492   5.982  0.0342  0.1763  0.4612
23005SOL    HW170689   0.029   8.474   5.899  1.0051 -0.0600 -0.0244
23005SOL    HW270690   0.166   8.498   5.958  0.3636 -0.2805  1.5924
23006SOL     OW70691   0.421   4.809   7.088 -0.2270 -0.3878 -0.1450
23006SOL    HW170692   0.510   4.791   7.057  0.9116  1.4878  1.7980
23006SOL    HW270693   0.418   4.773   7.176 -0.7352  1.1922  0.5230
23007SOL     OW70694   7.739   1.614   9.576  0.0966  0.7732 -0.2916
23007SOL    HW170695   7.679   1.628   9.649 -1.6218 -1.1980 -1.2233
23007SOL    HW270696   7.825   1.603   9.617 -0.5662  1.2218  1.2908
23008SOL     OW70697   7.788   1.031   5.042  0.5551 -0.0766 -0.2874
23008SOL    HW170698   7.832   0.975   4.977  0.7547 -0.3137  0.0519
23008SOL    HW270699   7.859   1.070   5.092  0.3879 -0.2455  0.0832
23009SOL     OW70700   0.774   2.745   5.256  0.1763 -0.1511  0.1252
23009SOL    HW170701   0.869   2.739   5.245 -0.0534 -0.2557 -2.2427
23009SOL    HW270702   0.763   2.784   5.343  2.3009 -2.4708  1.5659
23010SOL     OW70703   8.976   2.982   6.799 -0.6776 -0.3337 -0.1447
23010SOL    HW170704   9.013   2.995   6.887 -0.7008 -3.4839  0.4590
23010SOL    HW270705   8.891   3.026   6.802  0.2404  1.4747  0.6349
23011SOL     OW70706   1.695   0.120   6.991  0.2452 -0.3188  0.3725
23011SOL    HW170707   1.690   0.098   6.898 -0.8274  2.7348 -0.4200
23011SOL    HW270708   1.607   0.105   7.024 -0.7655  2.9955 -0.3931
23012SOL     OW70709   6.122   1.840   7.676 -0.0304  0.0516 -0.4197
23012SOL    HW170710   6.180   1.903   7.719 -0.4091  1.4101 -1.7798
23012SOL    HW270711   6.035   1.881   7.682 -0.7096 -1.4587  0.6743
23013SOL     OW70712   5.131   1.076   5.250  0.7601  0.0290  0.3185
23013SOL    HW170713   5.090   1.061   5.165  2.9304 -1.4831 -0.5765
23013SOL    HW270714   5.134   1.171   5.259 -0.3311  0.2033 -0.8655
23014SOL     OW70715   2.757   2.161   5.128 -0.3128  0.4199  0.2594
23014SOL    HW170716   2.840   2.138   5.170  0.2941  0.2766 -0.9682
23014SOL    HW270717   2.699   2.185   5.201  0.4156 -0.6651  1.2398
23015SOL     OW70718   7.688   9.234   4.886  0.0942  0.5088 -0.0182
23015SOL    HW170719   7.758   9.299   4.886  0.4425  0.1386 -0.3435
23015SOL    HW270720   7.641   9.250   4.968 -0.0126  1.3645 -0.2328
23016SOL     OW70721   6.222   6.885   2.778 -0.0384 -0.6680  0.1395
23016SOL    HW170722   6.204   6.832   2.700 -1.9543 -0.9746  0.7544
23016SOL    HW270723   6.175   6.840   2.849  1.8597 -0.5334  1.5548
23017SOL     OW70724   6.975   1.228   3.231 -0.3784  0.2764  0.0816
23017SOL    HW170725   6.895   1.278   3.245 -0.3103  0.6649 -0.8488
23017SOL    HW270726   6.956   1.172   3.155  0.3706  0.6973 -0.4323
23018SOL     OW70727   1.093   7.184   5.696  0.2572  0.1988 -0.5208
23018SOL    HW170728   1.077   7.095   5.666 -0.7991  1.1753 -3.1989
23018SOL    HW270729   1.187   7.188   5.713  0.3340 -1.3896 -0.4561
23019SOL     OW70730   8.965   0.401   4.954 -0.3738  0.0766  0.1289
23019SOL    HW170731   9.001   0.486   4.929 -0.3747  0.7978  2.4051
23019SOL    HW270732   8.896   0.422   5.017 -1.8289 -1.5276 -0.8175
23020SOL     OW70733   7.854   7.053   4.195 -0.1543 -0.1753  0.0309
23020SOL    HW170734   7.769   7.056   4.239 -0.8314  0.6758 -1.2806
23020SOL    HW270735   7.876   6.960   4.193 -1.6144 -0.5423 -0.6215
23021SOL     OW70736   5.347   5.363   6.169  0.3723  0.2648 -0.4492
23021SOL    HW170737   5.260   5.403   6.159 -0.2919 -0.9456  0.3045
23021SOL    HW270738   5.340   5.310   6.248  1.9429  0.4856 -0.1362
23022SOL     OW70739   0.529   7.374   6.572  0.5314 -0.2610 -0.2945
23022SOL    HW170740   0.572   7.452   6.607 -1.1065  0.7093 -0.3411
23022SOL    HW270741   0.524   7.314   6.646 -0.7214  0.8123  0.5263
23023SOL     OW70742   0.094   9.095   3.833  0.4881 -0.0197  0.0517
23023SOL    HW170743   0.152   9.025   3.803  1.7095 -0.0507  2.2388
23023SOL    HW270744   0.018   9.050   3.869 -0.3327 -0.0359 -1.6447
23024SOL     OW70745   9.008   1.898   0.083 -0.7473 -0.1711 -0.5867
23024SOL    HW170746   8.935   1.860   0.132  0.7295 -2.0613  0.2641
23024SOL    HW270747   9.020   1.841   0.008  0.0845 -0.0891 -0.5236
23025SOL     OW70748   7.293   3.293   5.223  0.3700  0.1735  0.3356
23025SOL    HW170749   7.331   3.256   5.303 -0.3007 -1.7573 -0.1790
23025SOL    HW270750   7.199   3.279   5.233  0.1406  1.3617 -0.1038
23026SOL     OW70751   1.951   4.930   7.303  0.0865 -0.1675 -0.4254
23026SOL    HW170752   1.980   4.840   7.318 -0.2354 -0.0878  0.8010
23026SOL    HW270753   1.856   4.923   7.295 -0.2447  0.2824  2.0846
23027SOL     OW70754   3.896   4.201   5.099  0.2254 -0.1655  0.0804
23027SOL    HW170755   3.915   4.176   5.008 -0.5508 -2.3080  0.4434
23027SOL    HW270756   3.962   4.156   5.150  0.4688  0.7900  0.6264
23028SOL     OW70757   6.957   6.743   6.418  0.1663  0.5690 -0.2956
23028SOL    HW170758   6.990   6.833   6.407  2.9189 -0.0723  1.6851
23028SOL    HW270759   6.926   6.740   6.508 -0.4013 -0.3504 -0.5139
23029SOL     OW70760   9.037   3.249   7.644 -0.0991  0.1875  0.0407
23029SOL    HW170761   9.013   3.286   7.729 -1.4098  2.8332 -1.3364
23029SOL    HW270762   8.954   3.216   7.609  0.1812  0.2425 -0.6908
23030SOL     OW70763   5.109   4.134   1.537 -0.2052  0.2525 -0.0620
23030SOL    HW170764   5.027   4.182   1.546 -0.1261  0.1285  1.4527
23030SOL    HW270765   5.177   4.201   1.550 -0.0536  0.2176 -0.6183
23031SOL     OW70766   7.274   2.127   7.727  0.2364 -0.6502 -0.5218
23031SOL    HW170767   7.260   2.074   7.649 -0.2885  0.0609 -0.9270
23031SOL    HW270768   7.185   2.148   7.758  0.4155 -1.7489  0.8577
23032SOL     OW70769   4.065   8.829   1.078 -0.3730 -0.4361  0.5434
23032SOL    HW170770   4.094   8.804   0.990 -0.2854 -1.2737  0.8051
23032SOL    HW270771   4.145   8.850   1.125 -0.5161  1.6546 -0.0418
23033SOL     OW70772   8.333   1.601   4.942  0.1350 -0.6574  0.3035
23033SOL    HW170773   8.264   1.540   4.967 -0.9362  0.8410  1.1118
23033SOL    HW270774   8.332   1.601   4.847 -1.2517 -0.3680  0.3058
23034SOL     OW70775   5.387   4.058   2.108 -0.6682 -0.3489 -0.3761
23034SOL    HW170776   5.434   4.107   2.175  1.4573 -1.4779 -0.9472
23034SOL    HW270777   5.316   4.014   2.155  1.2381 -1.7556  1.3699
23035SOL     OW70778   5.784   7.428   1.329  0.1663  0.1934 -0.2651
23035SOL    HW170779   5.728   7.505   1.319 -0.3030  0.0061  0.7424
23035SOL    HW270780   5.847   7.453   1.396  0.2462 -0.1736 -0.2024
23036SOL     OW70781   7.487   6.936   1.846 -0.4215  0.4744 -0.0079
23036SOL    HW170782   7.539   6.898   1.916 -0.0118 -1.4425 -1.2841
23036SOL    HW270783   7.486   7.030   1.865  2.0923  0.3769  0.9769
23037SOL     OW70784   9.098   1.669   0.609  0.5651 -0.2762  0.1159
23037SOL    HW170785   9.076   1.722   0.532  2.6652 -0.7503 -0.9040
23037SOL    HW270786   9.076   1.580   0.584  0.4602 -0.3293  0.3977
23038SOL     OW70787   9.023   0.613   4.128 -0.4220 -0.6018 -0.2840
23038SOL    HW170788   9.008   0.542   4.191 -0.2226 -1.0492 -0.7334
23038SOL    HW270789   9.097   0.583   4.075 -0.2869 -0.0205 -0.4316
23039SOL     OW70790   4.107   7.630   3.578  0.3696 -0.2274 -0.1146
23039SOL    HW170791   4.172   7.591   3.520 -0.7872 -0.0879 -1.5587
23039SOL    HW270792   4.023   7.604   3.542 -0.4048  0.2593  1.2471
23040SOL     OW70793   8.720   7.398   2.630 -0.1140 -0.3274 -0.3891
23040SOL    HW170794   8.785   7.332   2.652 -0.8819 -0.8328  0.4176
23040SOL    HW270795   8.637   7.349   2.625 -0.2970  0.0723 -2.5769
23041SOL     OW70796   3.596   4.756   8.454  0.7049 -0.2982  0.1378
23041SOL    HW170797   3.551   4.732   8.373  2.9875 -2.1748 -0.6679
23041SOL    HW270798   3.670   4.809   8.425 -0.0806  1.5869  1.3341
23042SOL     OW70799   7.035   8.292   1.125  0.1277  0.1311 -0.7079
23042SOL    HW170800   7.024   8.350   1.050 -0.3756  1.2332  0.1862
23042SOL    HW270801   7.127   8.266   1.122 -0.0771 -0.5168 -2.1638
23043SOL     OW70802   5.018   2.294   8.653  0.0922  0.2409  0.3725
23043SOL    HW170803   5.041   2.385   8.671  0.8079  0.6213 -2.1191
23043SOL    HW270804   4.961   2.298   8.577  1.0639 -1.4174 -0.5105
23044SOL     OW70805   6.969   3.019   2.109  0.5670 -0.4312  0.0038
23044SOL    HW170806   6.938   3.080   2.043 -0.1241  1.9433  2.3665
23044SOL    HW270807   7.062   3.008   2.089  0.0895 -0.9925 -2.1887
23045SOL     OW70808   1.994   5.914   3.454  0.2103 -0.3419 -0.2096
23045SOL    HW170809   1.928   5.945   3.392 -0.0202  2.0540  1.1035
23045SOL    HW270810   2.046   5.851   3.405 -2.4875 -1.6705 -1.5625
23046SOL     OW70811   5.722   7.261   8.052 -0.0650 -0.3821 -0.1110
23046SOL    HW170812   5.711   7.216   8.136  0.5490 -0.3395 -0.0038
23046SOL    HW270813   5.639   7.307   8.039  0.3851  0.8874  1.2500
23047SOL     OW70814   4.717   7.590   8.252  0.3001  0.5461 -0.2119
23047SOL    HW170815   4.688   7.503   8.225 -2.0468  0.9358  0.7992
23047SOL    HW270816   4.641   7.646   8.236  1.0222  1.9927  1.1739
23048SOL     OW70817   6.694   6.553   6.189  0.3242  1.0358  0.0790
23048SOL    HW170818   6.767   6.552   6.250  0.4097 -0.9766  0.0087
23048SOL    HW270819   6.618   6.579   6.241  0.7569  1.3289  0.5624
23049SOL     OW70820   7.415   3.273   4.256 -0.0187 -0.4105 -0.1254
23049SOL    HW170821   7.448   3.360   4.280 -1.0947  0.6181 -2.1566
23049SOL    HW270822   7.390   3.233   4.340 -1.7548  2.1825  0.7195
23050SOL     OW70823   7.729   5.518   2.977  0.0737 -0.0103  0.2750
23050SOL    HW170824   7.717   5.460   2.901  1.7443 -0.1695  0.0912
23050SOL    HW270825   7.650   5.506   3.029  0.7399 -3.2844  0.7507
23051SOL     OW70826   6.170   5.738   2.037  0.0880  0.1565  0.6138
23051SOL    HW170827   6.231   5.676   2.080 -0.4172 -0.1113  0.9610
23051SOL    HW270828   6.091   5.687   2.023 -0.5713  0.9090  1.5044
23052SOL     OW70829   2.597   4.570   8.345  0.2098  0.0827  0.2559
23052SOL    HW170830   2.554   4.640   8.395  0.8108  1.0837 -0.5862
23052SOL    HW270831   2.645   4.521   8.411  0.3434  0.8955  0.7864
23053SOL     OW70832   6.031   8.106   3.674  0.1722 -0.4612  0.1549
23053SOL    HW170833   6.067   8.053   3.745 -0.3030  0.7696  1.3755
23053SOL    HW270834   5.976   8.046   3.624  1.7570 -1.7254 -0.1390
23054SOL     OW70835   8.853   9.207   5.419 -0.4878  0.2800 -0.6721
23054SOL    HW170836   8.835   9.163   5.501  0.5775 -1.1033 -1.1437
23054SOL    HW270837   8.879   9.137   5.359 -0.3760  1.3537 -1.9285
23055SOL     OW70838   9.131   1.044   0.225 -0.1022 -0.2202 -0.0003
23055SOL    HW170839   9.043   1.026   0.191  0.0244 -2.6115  0.7671
23055SOL    HW270840   9.119   1.049   0.320  0.5913 -0.5638  0.1077
23056SOL     OW70841   1.695   5.796   4.662  0.2434  0.2231 -0.5360
23056SOL    HW170842   1.730   5.773   4.748 -0.0531  3.3207  0.5254
23056SOL    HW270843   1.772   5.804   4.606  0.5782 -0.1570 -0.1368
23057SOL     OW70844   0.521   6.446   6.928 -0.1417  0.7376  0.2499
23057SOL    HW170845   0.517   6.473   7.020  2.3668  0.8721  0.3923
23057SOL    HW270846   0.559   6.358   6.930 -0.8802  0.3880 -0.6204
23058SOL     OW70847   4.153   4.604   7.820 -0.2548 -0.5571  0.5926
23058SOL    HW170848   4.205   4.635   7.746  1.3206  1.9845  2.6104
23058SOL    HW270849   4.173   4.511   7.826  0.7613 -0.5005 -1.2071
23059SOL     OW70850   7.384   5.409   8.712 -0.3722 -0.5188  0.0836
23059SOL    HW170851   7.456   5.451   8.666  0.2717 -0.0368  1.4888
23059SOL    HW270852   7.323   5.480   8.733 -0.8352 -0.7890 -0.3114
23060SOL     OW70853   1.227   0.760   4.235 -0.0866 -0.2603  0.5817
23060SOL    HW170854   1.286   0.748   4.309  1.7422  1.2982 -0.5304
23060SOL    HW270855   1.258   0.698   4.169  0.2927  0.5162  0.0160
23061SOL     OW70856   0.252   8.095   7.264 -0.2130 -0.4215 -0.2381
23061SOL    HW170857   0.325   8.033   7.264  1.5205  1.4886 -0.0971
23061SOL    HW270858   0.232   8.109   7.357 -1.1583 -1.3661 -0.2934
23062SOL     OW70859   5.149   1.563   3.010  0.1821 -0.1759 -0.1941
23062SOL    HW170860   5.089   1.490   2.998 -0.3130  0.1137  0.4669
23062SOL    HW270861   5.236   1.523   3.012 -0.2038 -1.1171  2.8449
23063SOL     OW70862   7.023   5.287   2.732  0.1637  0.0447  0.2527
23063SOL    HW170863   6.945   5.236   2.757 -0.5183  0.3493 -1.1232
23063SOL    HW270864   7.055   5.323   2.814 -1.1202 -0.1428  0.8664
23064SOL     OW70865   8.664   3.779   9.672  0.0338 -0.3487  0.2223
23064SOL    HW170866   8.675   3.831   9.592 -1.1084  1.6770  1.3042
23064SOL    HW270867   8.570   3.763   9.678  0.2920 -2.1275  0.2338
23065SOL     OW70868   8.364   4.359   1.437  0.0354 -0.5434 -0.0834
23065SOL    HW170869   8.420   4.330   1.365 -0.0718 -0.5004 -0.1854
23065SOL    HW270870   8.419   4.417   1.489 -0.0746 -0.0675 -0.4861
23066SOL     OW70871   6.381   3.482   1.727  0.1111 -0.0531  0.0751
23066SOL    HW170872   6.357   3.530   1.807  0.2027  1.3568 -0.7059
23066SOL    HW270873   6.391   3.550   1.661  3.0794 -0.8610 -0.4391
23067SOL     OW70874   7.041   7.403   5.912 -0.0559 -0.1334  0.0422
23067SOL    HW170875   7.019   7.418   6.004 -2.5082 -0.7243 -0.3938
23067SOL    HW270876   7.055   7.308   5.906 -2.1481 -0.4575 -0.5624
23068SOL     OW70877   8.602   5.148   0.509  0.5213  0.3423  0.2108
23068SOL    HW170878   8.545   5.213   0.467  0.8197 -1.5046 -3.4922
23068SOL    HW270879   8.688   5.191   0.511  0.2076  0.9827  0.1575
23069SOL     OW70880   8.538   0.715   1.805  0.1130  0.4197 -0.4946
23069SOL    HW170881   8.552   0.652   1.735 -1.8954 -0.9411  0.2508
23069SOL    HW270882   8.465   0.680   1.856 -0.9985  3.2593  0.0766
23070SOL     OW70883   4.978   8.116   9.180 -0.3978 -0.2742  0.4498
23070SOL    HW170884   5.025   8.040   9.214 -1.5945 -0.6757  1.2440
23070SOL    HW270885   4.905   8.129   9.241 -0.5530  1.1498 -0.0087
23071SOL     OW70886   7.377   5.079   3.888 -0.2627 -0.1825 -0.4849
23071SOL    HW170887   7.399   5.140   3.818  0.0105 -0.8681 -1.0083
23071SOL    HW270888   7.379   4.992   3.846  0.0368 -0.6169  0.3987
23072SOL     OW70889   4.545   2.611   4.617 -0.2960 -0.6074 -0.1103
23072SOL    HW170890   4.475   2.627   4.554  0.9067  1.2353 -1.0656
23072SOL    HW270891   4.536   2.681   4.682  0.7127 -0.2583 -0.3252
23073SOL     OW70892   2.443   0.541   4.699  0.0294  0.3584  0.0479
23073SOL    HW170893   2.395   0.469   4.660  0.5055  1.1818 -2.2820
23073SOL    HW270894   2.432   0.613   4.636  1.9710  1.3906  0.8061
23074SOL     OW70895   2.371   1.530   9.160 -0.4832  0.6314 -0.2943
23074SOL    HW170896   2.323   1.453   9.189 -1.5670  1.3743 -0.0462
23074SOL    HW270897   2.362   1.530   9.065  0.7537 -0.3099 -0.4439
23075SOL     OW70898   9.421   3.531   7.129  0.1720  0.4599 -0.4056
23075SOL    HW170899   9.354   3.480   7.176 -1.0561  2.5261  0.2181
23075SOL    HW270900   9.504   3.496   7.162 -0.6056 -1.0937  0.0171
23076SOL     OW70901   4.716   1.139   2.385 -0.5457 -0.2261  0.1829
23076SOL    HW170902   4.658   1.188   2.444  0.0913  1.1998 -0.3137
23076SOL    HW270903   4.775   1.091   2.444 -0.6530  0.2724  0.7055
23077SOL     OW70904   0.332   9.197   1.194  0.2443  0.1189 -0.3982
23077SOL    HW170905   0.345   9.133   1.264  0.4371  0.1656 -0.3895
23077SOL    HW270906   0.252   9.243   1.217 -0.2341 -0.5381 -0.7248
23078SOL     OW70907   5.751   8.189   3.334  0.1060 -0.0637  0.1265
23078SOL    HW170908   5.824   8.136   3.366 -0.7175  0.0055  2.2843
23078SOL    HW270909   5.755   8.181   3.239  1.7490 -1.6257  0.2826
23079SOL     OW70910   4.014   1.982   3.143  0.8208  0.3926 -0.2374
23079SOL    HW170911   3.927   2.006   3.175  1.4887  0.9935  1.2423
23079SOL    HW270912   3.998   1.924   3.069 -0.8381 -0.3672  0.6726
23080SOL     OW70913   0.296   0.154   0.262  0.0693  0.2336  0.1704
23080SOL    HW170914   0.217   0.200   0.289  0.3815  1.6016 -1.0870
23080SOL    HW270915   0.311   0.183   0.172  2.5975  0.8905  0.7075
23081SOL     OW70916   7.870   6.623   2.962 -0.1290 -0.3468  0.1566
23081SOL    HW170917   7.905   6.535   2.975  1.3210  0.2532  0.5273
23081SOL    HW270918   7.939   6.681   2.994  0.4888  1.0596 -3.3453
23082SOL     OW70919   6.351   7.330   1.184 -0.3149 -0.3497 -0.5331
23082SOL    HW170920   6.370   7.386   1.109 -1.0980 -0.4578 -0.8252
23082SOL    HW270921   6.401   7.250   1.168 -0.8394 -0.5568 -1.1805
23083SOL     OW70922   7.214   8.498   5.133 -0.1194 -0.5872 -0.2895
23083SOL    HW170923   7.289   8.455   5.092 -0.9680 -0.1465 -2.4532
23083SOL    HW270924   7.167   8.428   5.177 -1.0019 -1.8373 -3.0113
23084SOL     OW70925   6.895   4.014   2.673 -0.7076 -0.1250 -0.4757
23084SOL    HW170926   6.926   3.924   2.686 -0.9108 -0.1963 -0.4796
23084SOL    HW270927   6.960   4.068   2.719  0.4291 -0.1333 -2.0147
23085SOL     OW70928   5.303   8.413   4.986  0.2085 -0.0978  0.0078
23085SOL    HW170929   5.264   8.398   4.899 -1.8218  0.7626  0.6881
23085SOL    HW270930   5.268   8.343   5.040  1.8272 -0.8891  0.0579
23086SOL     OW70931   5.153   4.568   0.133 -0.6387 -0.3698 -0.8459
23086SOL    HW170932   5.191   4.494   0.086  2.8618  1.0054 -0.5080
23086SOL    HW270933   5.180   4.644   0.082  2.5572  1.1422  2.5641
23087SOL     OW70934   5.495   6.160   6.691  0.6605  0.1168  0.0887
23087SOL    HW170935   5.453   6.078   6.666  0.3807  1.1092 -3.1305
23087SOL    HW270936   5.424   6.224   6.693  1.4529  1.2798 -2.8998
23088SOL     OW70937   3.460   2.469   1.206 -0.2170  0.1900 -0.2834
23088SOL    HW170938   3.522   2.523   1.158 -1.2718  0.7073 -1.1079
23088SOL    HW270939   3.461   2.503   1.295 -2.0061  2.6894 -1.1087
23089SOL     OW70940   3.601   3.241   6.208  0.2121 -0.3643  0.0494
23089SOL    HW170941   3.561   3.275   6.129 -2.5846  0.1361  1.5490
23089SOL    HW270942   3.563   3.154   6.219  0.5580 -0.4307  0.8256
23090SOL     OW70943   6.454   0.112   2.949  0.3104  0.0889 -0.2145
23090SOL    HW170944   6.473   0.145   2.861  0.1297 -0.2289 -0.3739
23090SOL    HW270945   6.512   0.036   2.959  1.2130  0.8397  0.4078
23091SOL     OW70946   2.846   6.173   7.476 -0.0482  0.4931  0.0703
23091SOL    HW170947   2.783   6.120   7.526  0.1973 -1.5342 -1.5898
23091SOL    HW270948   2.925   6.173   7.529  1.0568 -3.7867 -1.1630
23092SOL     OW70949   2.761   2.363   7.931  0.0999 -0.2408  0.4242
23092SOL    HW170950   2.706   2.312   7.872  0.7163 -0.9475  0.4378
23092SOL    HW270951   2.748   2.454   7.904 -0.3536 -0.4767 -0.1714
23093SOL     OW70952   3.094   2.141   4.798 -0.2832 -0.5513 -0.3195
23093SOL    HW170953   3.094   2.158   4.892  0.1432  0.1759 -0.4501
23093SOL    HW270954   3.071   2.048   4.792 -0.4281 -0.5821  0.4946
23094SOL     OW70955   2.165   0.268   6.875  0.2584  0.2464 -0.8426
23094SOL    HW170956   2.129   0.355   6.862  1.1862  0.6303 -0.9537
23094SOL    HW270957   2.167   0.229   6.788 -0.9129 -0.2046 -0.6796
23095SOL     OW70958   6.707   5.586   5.334 -0.0238  0.3332  0.7398
23095SOL    HW170959   6.724   5.494   5.314 -0.4333  0.1787  1.1019
23095SOL    HW270960   6.788   5.631   5.309 -0.4731  0.1399 -1.2331
23096SOL     OW70961   4.217   4.168   1.113 -0.0944 -0.3216 -0.4270
23096SOL    HW170962   4.298   4.217   1.100 -1.4663  1.4791 -2.8814
23096SOL    HW270963   4.177   4.164   1.027 -1.3084 -3.6866  0.1551
23097SOL     OW70964   7.551   3.371   2.361 -0.5604  0.2213  0.2026
23097SOL    HW170965   7.632   3.399   2.403 -0.6654  1.1482 -0.1889
23097SOL    HW270966   7.489   3.442   2.376 -0.8294  0.2371 -0.8520
23098SOL     OW70967   8.445   5.778   6.246 -0.0137  0.6592  0.2615
23098SOL    HW170968   8.413   5.831   6.319  0.3671  0.7729  0.3441
23098SOL    HW270969   8.539   5.770   6.261  0.4581  2.4834 -1.3565
23099SOL     OW70970   5.557   7.866   7.305  0.3483 -0.2747  0.3780
23099SOL    HW170971   5.508   7.841   7.384 -2.3471  1.1970 -0.7109
23099SOL    HW270972   5.528   7.803   7.239  1.2371 -0.4002  0.1009
23100SOL     OW70973   1.182   6.124   4.966 -0.1573 -0.1772 -0.5751
23100SOL    HW170974   1.251   6.114   4.901  0.6728 -1.0296  0.4012
23100SOL    HW270975   1.103   6.142   4.915  0.7238  0.5695 -1.7286
23101SOL     OW70976   0.765   4.360   0.257  0.1110 -0.0101  0.4734
23101SOL    HW170977   0.747   4.313   0.338  0.1906  1.0546  1.1164
23101SOL    HW270978   0.724   4.445   0.268 -0.2108  0.0259 -0.7688
23102SOL     OW70979   6.940   9.400   7.958  0.0061 -0.3631  0.4940
23102SOL    HW170980   7.031   9.399   7.929  0.3272  1.1508  1.3210
23102SOL    HW270981   6.890   9.362   7.886  1.1929 -0.2958 -0.3795
23103SOL     OW70982   5.188   0.295   8.691  0.0192  0.1975  0.3533
23103SOL    HW170983   5.152   0.347   8.618 -0.9998  1.3973  1.6476
23103SOL    HW270984   5.282   0.295   8.676  0.0078  2.0547  0.0438
23104SOL     OW70985   1.898   7.299   1.662  0.5948  0.0336 -0.4014
23104SOL    HW170986   1.959   7.278   1.591  0.5240  0.8475 -0.7169
23104SOL    HW270987   1.813   7.272   1.628  0.5569  0.4484 -0.6456
23105SOL     OW70988   2.155   3.964   5.825 -0.0237 -0.0343 -0.2407
23105SOL    HW170989   2.148   3.960   5.729  1.4981  0.6939 -0.4100
23105SOL    HW270990   2.161   4.057   5.844 -1.1753 -0.1255  0.6601
23106SOL     OW70991   7.914   6.115   8.764  0.9635  0.1269  0.0950
23106SOL    HW170992   7.858   6.070   8.700  1.7226 -0.9514  0.1655
23106SOL    HW270993   7.990   6.144   8.713  0.6564  1.0313  0.1265
23107SOL     OW70994   6.659   6.985   9.063  0.3671 -0.1257  0.0514
23107SOL    HW170995   6.620   6.993   9.149  0.8919  0.3225  0.2543
23107SOL    HW270996   6.662   6.891   9.046 -0.2670 -0.1857  0.2698
23108SOL     OW70997   8.973   0.994   2.475 -0.0993  0.2147  0.4068
23108SOL    HW170998   9.046   1.051   2.449  0.5361 -1.1290 -0.9037
23108SOL    HW270999   9.006   0.947   2.552  0.5047 -0.4922 -0.2650
23109SOL     OW71000   1.030   4.744   3.072 -0.8795  0.9297  0.1397
23109SOL    HW171001   1.058   4.783   2.990  1.2401 -2.3567 -0.8554
23109SOL    HW271002   0.950   4.696   3.050 -0.4817  0.3002  0.0509
23110SOL     OW71003   4.845   1.756   9.103  0.4729  0.4219  0.4345
23110SOL    HW171004   4.855   1.789   9.013  1.0693  0.5005  0.5249
23110SOL    HW271005   4.801   1.827   9.149  0.4461  0.5086  0.2781
23111SOL     OW71006   0.721   0.049   3.041 -0.0553  0.2506  0.0763
23111SOL    HW171007   0.779   0.070   3.115  0.2572 -0.4507  0.0337
23111SOL    HW271008   0.650  -0.002   3.079 -0.5854  0.9768  0.0999
23112SOL     OW71009   1.638   1.248   9.361  0.3110  0.0607 -0.1349
23112SOL    HW171010   1.720   1.204   9.384 -0.1861 -1.8973 -1.7985
23112SOL    HW271011   1.664   1.317   9.300  0.8503  0.4392  0.5087
23113SOL     OW71012   2.738   2.585   0.010 -0.1523 -0.6656  0.4060
23113SOL    HW171013   2.680   2.649  -0.032 -1.0379 -2.4169 -1.1979
23113SOL    HW271014   2.690   2.502   0.002  0.5536 -1.4230  3.1971
23114SOL     OW71015   4.859   5.741   6.271 -0.5597  0.8334 -0.2479
23114SOL    HW171016   4.808   5.662   6.289  1.4099 -0.5601 -0.5549
23114SOL    HW271017   4.828   5.771   6.186 -0.9607  0.0994 -0.3659
23115SOL     OW71018   5.966   0.248   5.954 -0.0164  0.8565  0.2777
23115SOL    HW171019   6.007   0.214   5.875 -0.5933  1.8900 -0.4971
23115SOL    HW271020   5.872   0.236   5.940 -0.0679 -0.6716  1.6432
23116SOL     OW71021   7.040   8.651   4.042  0.6794 -0.2537  0.0756
23116SOL    HW171022   7.007   8.738   4.065  0.8036  0.4211 -1.9998
23116SOL    HW271023   6.995   8.591   4.101  1.0079  1.2566  1.9354
23117SOL     OW71024   0.624   5.975   5.218 -0.4949 -0.1746 -0.4415
23117SOL    HW171025   0.618   6.001   5.310  0.1347  0.5696 -0.5949
23117SOL    HW271026   0.712   6.003   5.192 -0.4211 -0.9900 -1.0871
23118SOL     OW71027   9.311   8.534   4.345 -0.5452 -0.2113  0.2937
23118SOL    HW171028   9.240   8.483   4.386  1.0056 -1.1668  1.9589
23118SOL    HW271029   9.387   8.517   4.401  0.6834  1.8689 -0.6490
23119SOL     OW71030   7.363   0.335   6.588  0.5082  0.3230  1.0987
23119SOL    HW171031   7.375   0.430   6.580  1.3208  0.0659 -1.6167
23119SOL    HW271032   7.269   0.322   6.575  0.6428  0.6553 -0.3819
23120SOL     OW71033   0.370   6.488   0.592 -0.1563  0.1820  0.0095
23120SOL    HW171034   0.404   6.534   0.515  1.0496  1.0774  1.0310
23120SOL    HW271035   0.444   6.437   0.624 -0.4751  0.2630  0.9000
23121SOL     OW71036   8.019   4.574   3.042 -0.0925 -0.0806  0.0075
23121SOL    HW171037   7.938   4.603   3.084 -0.8519 -0.4532 -1.1523
23121SOL    HW271038   8.067   4.655   3.025 -0.5510  0.2103  0.0573
23122SOL     OW71039   4.807   3.056   7.814  0.0827  0.3418  0.8203
23122SOL    HW171040   4.890   3.056   7.860  1.2252 -2.1660 -0.9904
23122SOL    HW271041   4.800   3.144   7.776  0.5432  1.4450  3.1152
23123SOL     OW71042   7.514   6.805   9.030 -0.2213  0.2990 -0.2982
23123SOL    HW171043   7.428   6.804   9.071 -0.7885  0.7305 -1.4544
23123SOL    HW271044   7.502   6.854   8.948  1.1666  0.5689 -0.3706
23124SOL     OW71045   4.862   1.711   3.415  0.2697 -0.0999 -0.4032
23124SOL    HW171046   4.945   1.723   3.370  1.0798  0.6032  1.1862
23124SOL    HW271047   4.821   1.798   3.414  0.2729 -0.0854  0.1295
23125SOL     OW71048   7.134   7.450   5.134  0.0358 -0.1385 -0.0991
23125SOL    HW171049   7.071   7.518   5.155  0.2203  0.2246 -0.7150
23125SOL    HW271050   7.191   7.446   5.211 -0.1101  0.2479  0.0309
23126SOL     OW71051   4.250   5.319   4.319 -0.0393 -0.5580 -0.5174
23126SOL    HW171052   4.163   5.324   4.359 -0.8070 -0.7325 -2.0920
23126SOL    HW271053   4.233   5.303   4.226  1.6879 -0.7739 -0.8300
23127SOL     OW71054   1.604   5.351   3.762 -0.5059  0.4687 -0.2248
23127SOL    HW171055   1.617   5.434   3.807 -1.0873  0.4900 -0.0778
23127SOL    HW271056   1.691   5.312   3.755 -0.2648  0.9850 -0.0888
23128SOL     OW71057   1.186   4.015   4.448  0.1150  0.1456  0.3714
23128SOL    HW171058   1.170   3.942   4.508 -0.1258  1.3261  1.8342
23128SOL    HW271059   1.216   4.086   4.506  1.8862  0.7475 -1.1742
23129SOL     OW71060   8.912   1.362   9.354  0.0627  0.0536  0.2384
23129SOL    HW171061   8.972   1.290   9.374  1.8790  1.9730  2.2220
23129SOL    HW271062   8.918   1.371   9.258 -0.5249 -2.5855 -0.1201
23130SOL     OW71063   5.286   5.546   0.230  0.1674  0.0867  0.2661
23130SOL    HW171064   5.343   5.611   0.189 -0.0668 -0.0584 -0.3142
23130SOL    HW271065   5.289   5.565   0.323 -0.9895  1.8436 -0.0045
23131SOL     OW71066   9.506   0.643   4.560 -0.3848 -0.1972  0.1051
23131SOL    HW171067   9.595   0.666   4.533 -0.2518 -1.5287 -0.6773
23131SOL    HW271068   9.512   0.633   4.655  0.7953 -2.1241 -0.1085
23132SOL     OW71069   4.127   6.949   2.406  0.2069  0.5542  0.6658
23132SOL    HW171070   4.189   6.957   2.479  0.1764  0.9889  0.6459
23132SOL    HW271071   4.145   7.026   2.351  0.8413 -0.2199 -0.2542
23133SOL     OW71072   3.673   3.226   4.997  0.4623  0.2843  0.3054
23133SOL    HW171073   3.728   3.173   5.055 -2.0406 -0.0778  2.5574
23133SOL    HW271074   3.650   3.167   4.925 -0.3314 -0.9905  1.5414
23134SOL     OW71075   2.942   7.071   3.827  0.2288 -0.5131  0.6725
23134SOL    HW171076   2.933   7.043   3.918 -0.7917 -1.1407  0.4026
23134SOL    HW271077   2.883   7.146   3.819 -0.1650 -0.8452  0.3874
23135SOL     OW71078   0.672   5.818   5.646  0.2546  0.3178  0.0886
23135SOL    HW171079   0.750   5.822   5.591 -0.0467  1.0055 -0.3036
23135SOL    HW271080   0.647   5.909   5.658 -1.5164  0.0637 -1.2851
23136SOL     OW71081   6.826   1.310   8.200 -0.2706  0.5002 -0.1940
23136SOL    HW171082   6.889   1.339   8.134  1.0006  2.8371  1.8862
23136SOL    HW271083   6.816   1.385   8.259 -2.1654 -1.0907  1.6968
23137SOL     OW71084   4.885   8.205   3.390 -0.5939  0.0957  0.1739
23137SOL    HW171085   4.892   8.245   3.477  2.7776 -2.6766  1.4398
23137SOL    HW271086   4.840   8.122   3.406  1.3854 -1.1484 -0.2898
23138SOL     OW71087   8.799   2.991   8.876 -0.2931 -0.2776 -0.4419
23138SOL    HW171088   8.767   3.030   8.957  1.9613  0.7459  0.0443
23138SOL    HW271089   8.806   3.064   8.815  2.1741 -0.1485 -0.1210
23139SOL     OW71090   3.143   0.481   7.346 -0.2782  0.0880  0.3177
23139SOL    HW171091   3.144   0.404   7.404 -0.7777 -0.0628  0.1326
23139SOL    HW271092   3.065   0.468   7.291 -1.0462  1.3278  1.0874
23140SOL     OW71093   1.209   2.595   5.788  0.3732 -1.0142  0.5361
23140SOL    HW171094   1.281   2.658   5.797  0.5920 -0.9605 -1.2533
23140SOL    HW271095   1.132   2.642   5.821  0.2743  0.7868 -1.9620
23141SOL     OW71096   8.558   7.713   6.954  0.1346 -0.2543  0.4600
23141SOL    HW171097   8.570   7.804   6.979 -1.8255  0.4557 -0.9433
23141SOL    HW271098   8.571   7.664   7.036  1.3792  1.2362  1.1976
23142SOL     OW71099   1.752   8.576   7.751 -0.5224  0.0380  0.1629
23142SOL    HW171100   1.768   8.484   7.770  1.2101  0.1187 -0.6880
23142SOL    HW271101   1.773   8.621   7.833  1.9500 -0.0704 -0.3137
23143SOL     OW71102   1.555   1.166   1.644 -0.2011  0.3675 -0.0631
23143SOL    HW171103   1.469   1.203   1.624  0.2660  0.3017 -2.6005
23143SOL    HW271104   1.616   1.219   1.593  1.1181 -0.4493  0.6017
23144SOL     OW71105   8.744   2.118   0.701  0.9222  0.2422 -0.2567
23144SOL    HW171106   8.690   2.134   0.778  0.8321  1.1584 -0.4887
23144SOL    HW271107   8.704   2.043   0.658  0.4299  0.2894  0.1125
23145SOL     OW71108   5.705   5.191   7.812 -0.3004  0.3557 -0.3565
23145SOL    HW171109   5.715   5.199   7.717 -1.6481  2.0580 -0.4211
23145SOL    HW271110   5.612   5.172   7.824  0.1432 -1.4132  0.5969
23146SOL     OW71111   2.306   3.056   0.659  0.2651 -0.2613  0.1959
23146SOL    HW171112   2.287   3.044   0.566 -1.4111  2.3212  0.0931
23146SOL    HW271113   2.394   3.095   0.660 -0.0829  0.5645 -0.4022
23147SOL     OW71114   1.241   5.798   5.270  0.2519  0.5404  0.4429
23147SOL    HW171115   1.285   5.724   5.228  0.3172  0.0407  1.3841
23147SOL    HW271116   1.298   5.873   5.250  1.4467 -0.0610  1.4549
23148SOL     OW71117   4.696   6.178   9.653 -0.0326 -0.4739 -0.3691
23148SOL    HW171118   4.653   6.263   9.652 -1.2660 -1.0776  0.1237
23148SOL    HW271119   4.690   6.148   9.744 -0.0200 -1.2903 -0.6287
23149SOL     OW71120   8.900   0.663   3.425 -0.0832  0.3710  0.2107
23149SOL    HW171121   8.842   0.677   3.500 -0.2616 -0.2314  0.1911
23149SOL    HW271122   8.900   0.747   3.378 -0.3073  0.6197  0.6458
23150SOL     OW71123   6.821   8.419   6.197 -0.9125 -0.4333 -0.4635
23150SOL    HW171124   6.754   8.371   6.148 -0.9715 -0.9254  0.0985
23150SOL    HW271125   6.877   8.351   6.234  0.1682 -0.0265 -1.2783
23151SOL     OW71126   1.471   8.073   9.226  0.7842 -0.3413 -0.6185
23151SOL    HW171127   1.539   8.139   9.216  0.3477  0.9893  3.4806
23151SOL    HW271128   1.396   8.121   9.262  0.5969 -2.9926  3.0442
23152SOL     OW71129   4.599   4.703   8.426 -0.1933  0.2935 -0.0208
23152SOL    HW171130   4.588   4.768   8.357  1.1200  0.3880 -0.1733
23152SOL    HW271131   4.560   4.744   8.504 -0.6114  0.6762 -0.4264
23153SOL     OW71132   6.495   3.939   4.718  0.1136  0.1047  0.0853
23153SOL    HW171133   6.449   4.008   4.670 -1.2437 -0.1023  1.0113
23153SOL    HW271134   6.442   3.860   4.703  0.3436 -0.2167  0.9111
23154SOL     OW71135   3.430   3.994   0.386 -0.4822  0.2911  0.1961
23154SOL    HW171136   3.436   3.964   0.295  1.9629  1.7346 -0.2256
23154SOL    HW271137   3.368   4.067   0.383 -0.5738  0.1970 -0.2702
23155SOL     OW71138   0.151   2.843   7.538  0.7970  0.3482 -0.4301
23155SOL    HW171139   0.083   2.866   7.602 -0.1498  0.8300 -1.5845
23155SOL    HW271140   0.178   2.926   7.500  0.4522 -0.0422 -1.5542
23156SOL     OW71141   3.117   0.309   2.250 -0.5691 -0.1493 -0.4347
23156SOL    HW171142   3.067   0.346   2.323  0.4134 -0.4350  0.4173
23156SOL    HW271143   3.111   0.214   2.262  0.9899 -0.1963  0.3079
23157SOL     OW71144   6.334   3.732   4.730  0.3570 -0.2176  0.2203
23157SOL    HW171145   6.252   3.766   4.695  0.8263  1.5998  0.7630
23157SOL    HW271146   6.307   3.661   4.789 -0.9339  1.0293  1.2023
23158SOL     OW71147   0.239   7.891   3.376 -0.3812  0.1584 -0.1418
23158SOL    HW171148   0.314   7.950   3.374  0.1773 -0.3989  2.1949
23158SOL    HW271149   0.273   7.808   3.342 -0.7530  0.6501 -1.8531
23159SOL     OW71150   2.407   4.114   7.004 -0.4039  0.2043  0.3784
23159SOL    HW171151   2.311   4.110   7.007 -0.5820  1.9169 -1.2680
23159SOL    HW271152   2.427   4.149   6.917  1.7779 -0.9286  0.3479
23160SOL     OW71153   9.225   6.691   2.628  0.7940 -0.6429 -0.2124
23160SOL    HW171154   9.266   6.611   2.659  0.1780 -1.4599 -1.4384
23160SOL    HW271155   9.291   6.730   2.570  1.7401  0.6202  1.6012
23161SOL     OW71156   2.980   7.013   9.146  0.4021  0.2607 -0.0114
23161SOL    HW171157   3.060   7.013   9.094 -0.7548  0.3607 -1.8724
23161SOL    HW271158   2.981   6.929   9.192  0.6931 -0.5768 -1.4746
23162SOL     OW71159   6.709   3.468   8.468 -0.2289  0.8875 -0.1868
23162SOL    HW171160   6.675   3.447   8.380  1.2288  0.7916 -0.7525
23162SOL    HW271161   6.631   3.471   8.523 -1.0316 -0.6859 -1.1498
23163SOL     OW71162   4.113   7.495   9.273  0.5269 -0.4793 -0.4077
23163SOL    HW171163   4.099   7.533   9.360  0.6376  0.1486 -0.6539
23163SOL    HW271164   4.207   7.509   9.256  0.0687  1.7149 -1.6520
23164SOL     OW71165   6.549   1.680   3.917 -0.1784 -0.2114 -0.1269
23164SOL    HW171166   6.493   1.708   3.990  0.6715 -1.4856  1.0636
23164SOL    HW271167   6.568   1.588   3.935  2.3426  0.1671 -0.4277
23165SOL     OW71168   1.244   9.014   8.931 -0.7973  0.1647  0.4516
23165SOL    HW171169   1.239   9.076   9.004  0.7243 -0.3798  1.0510
23165SOL    HW271170   1.241   8.928   8.973  0.8181 -0.1533 -0.0561
23166SOL     OW71171   6.849   4.173   9.335 -0.3251  0.2175 -0.4442
23166SOL    HW171172   6.913   4.158   9.265 -0.0943 -0.4399 -0.0957
23166SOL    HW271173   6.796   4.094   9.337 -0.9367  0.6169 -0.4940
23167SOL     OW71174   4.432   4.881   0.281  0.2431  0.0873 -0.0065
23167SOL    HW171175   4.449   4.964   0.237 -0.6698  1.1468  1.5517
23167SOL    HW271176   4.341   4.888   0.312  0.6508 -0.8458  1.4933
23168SOL     OW71177   8.345   7.316   5.983  0.0061 -0.1889 -0.7178
23168SOL    HW171178   8.271   7.376   5.984 -0.9997 -1.3089 -2.5415
23168SOL    HW271179   8.416   7.365   5.944 -0.2639  0.3675 -0.5179
23169SOL     OW71180   6.828   2.187   7.432 -0.2049 -0.8217  0.3029
23169SOL    HW171181   6.787   2.230   7.507  2.0587 -0.7374  1.5677
23169SOL    HW271182   6.870   2.259   7.384  0.0545 -1.1156  0.0882
23170SOL     OW71183   2.577   3.720   8.695  0.3480 -0.4822  0.3809
23170SOL    HW171184   2.638   3.656   8.731  0.5619 -0.9147 -0.7073
23170SOL    HW271185   2.491   3.684   8.715  0.4291  0.1267  1.9156
23171SOL     OW71186   2.951   1.055   8.799 -0.0586  0.0862 -0.3970
23171SOL    HW171187   2.906   1.039   8.716  2.9005  1.6418 -2.4941
23171SOL    HW271188   2.942   1.150   8.812  1.3053  0.1912 -0.1209
23172SOL     OW71189   3.133   8.251   4.590  0.4476  0.2951  0.4351
23172SOL    HW171190   3.105   8.314   4.524  0.0075  0.9179  1.2061
23172SOL    HW271191   3.182   8.303   4.654  0.8145 -0.2899  0.6442
23173SOL     OW71192   9.197   0.136   2.762 -0.6832  0.2262  0.8935
23173SOL    HW171193   9.102   0.135   2.757 -0.7254 -1.0375  1.5578
23173SOL    HW271194   9.218   0.217   2.808 -1.3986  0.8042  0.2159
23174SOL     OW71195   2.500   4.484   4.525 -0.1981  0.3533  0.3727
23174SOL    HW171196   2.425   4.438   4.488  1.1538 -1.9894  0.3534
23174SOL    HW271197   2.538   4.532   4.452  0.1706 -1.0624 -0.3885
23175SOL     OW71198   5.023   4.108   2.800  0.1046  0.8000 -0.1728
23175SOL    HW171199   5.116   4.119   2.776  0.1085 -1.5568 -1.5441
23175SOL    HW271200   5.016   4.146   2.887  2.0795  2.1408 -0.5350
23176SOL     OW71201   2.529   8.851   4.957 -0.0967  0.0062  0.1954
23176SOL    HW171202   2.548   8.787   5.026  2.9103  0.5002 -0.0542
23176SOL    HW271203   2.568   8.813   4.878  0.5819  1.5210 -0.2288
23177SOL     OW71204   1.582   0.783   6.663  0.2695 -0.3465 -0.3888
23177SOL    HW171205   1.627   0.783   6.748  0.1927  0.6718 -0.3394
23177SOL    HW271206   1.648   0.812   6.601  0.6264 -2.0759 -0.8690
23178SOL     OW71207   7.447   6.050   8.867 -0.1534  0.2633 -0.4434
23178SOL    HW171208   7.465   6.065   8.774  0.3918  0.9610 -0.2329
23178SOL    HW271209   7.496   5.971   8.889 -0.0499  0.2634 -0.6779
23179SOL     OW71210   6.062   6.330   6.079 -0.4502 -0.7506  0.3413
23179SOL    HW171211   5.984   6.296   6.035 -0.8941 -0.6554  1.0427
23179SOL    HW271212   6.054   6.425   6.073  0.3403 -0.7379 -0.8317
23180SOL     OW71213   0.758   7.355   4.360 -0.5040  0.2161 -0.6326
23180SOL    HW171214   0.811   7.349   4.281 -0.0567 -0.1829 -0.3071
23180SOL    HW271215   0.790   7.284   4.416 -0.5768  0.7118  0.0538
23181SOL     OW71216   8.488   0.558   1.580  0.1123 -0.6203 -0.3981
23181SOL    HW171217   8.397   0.560   1.610  0.8734 -1.2406  2.1667
23181SOL    HW271218   8.486   0.605   1.497 -2.4669 -0.2193 -0.2092
23182SOL     OW71219   6.452   1.933   6.738 -0.0376 -0.1050  0.2457
23182SOL    HW171220   6.388   1.951   6.669 -0.5844 -1.9026  0.2314
23182SOL    HW271221   6.516   1.875   6.697  1.1195  0.9241  0.5321
23183SOL     OW71222   9.254   9.455   6.595  0.1276 -0.0945 -0.0389
23183SOL    HW171223   9.212   9.528   6.550  0.4380  0.4085  0.4714
23183SOL    HW271224   9.333   9.438   6.544  0.1129  0.0054 -0.0952
23184SOL     OW71225   6.724   4.211   6.402 -0.1581 -0.7921  0.2613
23184SOL    HW171226   6.633   4.233   6.421  0.1097  0.2280  0.4320
23184SOL    HW271227   6.750   4.271   6.332  0.4466 -0.9303  0.3552
23185SOL     OW71228   4.117   0.419   7.727 -0.7756  0.6960  0.0363
23185SOL    HW171229   4.139   0.492   7.785 -0.6946  0.4962  0.2563
23185SOL    HW271230   4.025   0.402   7.745 -0.8999  1.0016 -0.3007
23186SOL     OW71231   4.487   2.329   4.029  0.0473 -0.0345 -0.4496
23186SOL    HW171232   4.491   2.300   3.938 -1.9549  1.0095 -0.9388
23186SOL    HW271233   4.577   2.324   4.060  0.4689 -2.5453 -1.7709
23187SOL     OW71234   3.891   1.751   4.399 -0.0450  0.0513 -0.2984
23187SOL    HW171235   3.844   1.829   4.369 -1.7258 -0.7422  0.1392
23187SOL    HW271236   3.822   1.686   4.415  1.2098 -1.1472  0.4788
23188SOL     OW71237   9.198   2.620   2.903  0.2184  0.0895 -0.8393
23188SOL    HW171238   9.116   2.651   2.941  0.9350  2.1384 -0.8418
23188SOL    HW271239   9.176   2.598   2.813 -0.6961 -1.1638 -0.3360
23189SOL     OW71240   2.250   8.508   2.907 -0.0936  0.5794  0.1248
23189SOL    HW171241   2.248   8.420   2.945 -0.0864  1.1336  1.4385
23189SOL    HW271242   2.286   8.495   2.819  0.4134 -0.6666  0.4976
23190SOL     OW71243   8.491   4.908   3.309 -0.1616 -0.2584 -0.1844
23190SOL    HW171244   8.486   4.813   3.325  0.2097  0.0640  2.1375
23190SOL    HW271245   8.582   4.930   3.328 -0.7817  0.9099  1.6907
23191SOL     OW71246   0.163   4.273   6.089 -0.5300  0.8080 -0.3849
23191SOL    HW171247   0.183   4.231   6.005  1.7419 -0.4561  0.6694
23191SOL    HW271248   0.207   4.358   6.084  0.0518  0.5169 -0.2947
23192SOL     OW71249   8.770   4.557   0.623  0.4899 -0.4669 -0.4611
23192SOL    HW171250   8.845   4.594   0.670  0.7641 -0.7651 -0.6557
23192SOL    HW271251   8.748   4.623   0.558  0.1687 -0.0946  0.0228
23193SOL     OW71252   0.182   4.492   6.298 -0.2686  0.2031 -0.4987
23193SOL    HW171253   0.255   4.494   6.236 -0.6279 -3.3151 -1.2977
23193SOL    HW271254   0.199   4.414   6.352 -3.0930 -0.4168 -0.3371
23194SOL     OW71255   2.278   7.615   4.014  0.6353  0.3382  0.1591
23194SOL    HW171256   2.215   7.681   4.041  0.4430  0.9699 -1.6595
23194SOL    HW271257   2.252   7.536   4.062 -1.2094  0.7270 -0.1134
23195SOL     OW71258   8.018   4.575   6.392 -0.3743  0.2589 -0.6441
23195SOL    HW171259   7.930   4.567   6.429 -0.1080 -0.2624 -0.1138
23195SOL    HW271260   8.070   4.616   6.461 -0.0881  0.1276 -0.7776
23196SOL     OW71261   0.343   4.572   7.944  0.6271 -0.1420  0.3479
23196SOL    HW171262   0.364   4.659   7.976 -1.4546 -0.2749  2.3676
23196SOL    HW271263   0.325   4.521   8.024 -0.3927 -1.7901 -0.8694
23197SOL     OW71264   3.140   5.588   5.320  0.1339  0.1621  0.4626
23197SOL    HW171265   3.117   5.583   5.227  0.0801  0.5048  0.4538
23197SOL    HW271266   3.187   5.507   5.338  1.1317  0.5830 -0.1374
23198SOL     OW71267   9.240   0.165   6.276  0.0101 -0.4920  0.0214
23198SOL    HW171268   9.195   0.120   6.348  1.3063 -2.0273 -0.0757
23198SOL    HW271269   9.319   0.200   6.316  1.4354 -2.5262 -0.8560
23199SOL     OW71270   2.697   6.446   5.232  0.0294  0.2371 -0.0370
23199SOL    HW171271   2.726   6.416   5.318  1.0832  0.9708 -0.1161
23199SOL    HW271272   2.703   6.369   5.175  1.5323  0.2852  0.0307
23200SOL     OW71273   6.657   6.622   6.799 -0.0962  0.3467 -0.1955
23200SOL    HW171274   6.564   6.608   6.782 -0.0767 -0.6269  0.4234
23200SOL    HW271275   6.668   6.598   6.891  0.8603  0.0021 -0.3933
23201SOL     OW71276   8.839   6.121   9.140 -0.2053  0.4154  0.5535
23201SOL    HW171277   8.793   6.039   9.156 -1.2204  0.8692  0.0459
23201SOL    HW271278   8.861   6.153   9.228 -0.4177 -0.0583  0.7829
23202SOL     OW71279   0.848   7.360   2.512 -0.3101  0.7452  0.2807
23202SOL    HW171280   0.838   7.269   2.487  0.6226  0.8920 -0.7415
23202SOL    HW271281   0.770   7.403   2.478  0.1486  0.6382 -0.9942
23203SOL     OW71282   4.451   6.674   6.240  0.1963 -0.2095 -0.7465
23203SOL    HW171283   4.515   6.735   6.277  0.8831 -1.6608  0.5278
23203SOL    HW271284   4.488   6.648   6.156 -0.1487  1.1586 -1.3496
23204SOL     OW71285   1.368   3.917   6.730 -0.0805 -0.1573 -0.3653
23204SOL    HW171286   1.318   3.990   6.694  0.1311  1.3215  2.1007
23204SOL    HW271287   1.442   3.907   6.671 -1.4680 -0.1346 -2.1798
23205SOL     OW71288   2.475   3.811   4.258 -0.0350  0.5517 -0.0757
23205SOL    HW171289   2.430   3.873   4.315  0.1782  0.8851 -0.2697
23205SOL    HW271290   2.495   3.736   4.315  0.9972  1.2672  0.5365
23206SOL     OW71291   0.140   5.933   8.137 -0.1934 -0.1475  0.5659
23206SOL    HW171292   0.141   5.845   8.100  1.9879  0.0391  0.0518
23206SOL    HW271293   0.067   5.977   8.093  0.4854 -0.8353 -1.3431
23207SOL     OW71294   0.919   6.412   5.576 -0.7492 -0.0395  0.3464
23207SOL    HW171295   1.002   6.418   5.624  1.0967 -0.7519 -2.5471
23207SOL    HW271296   0.919   6.487   5.517 -0.9284 -1.3879 -1.4504
23208SOL     OW71297   2.034   6.499   8.583 -0.0567  0.3856  0.2732
23208SOL    HW171298   2.120   6.464   8.603 -0.2692  0.3157  1.0849
23208SOL    HW271299   2.047   6.552   8.504  0.5738 -0.2389 -0.0564
23209SOL     OW71300   5.881   3.352   3.064  0.6308  0.2998  0.5015
23209SOL    HW171301   5.792   3.318   3.055  1.5590 -2.1300 -0.3437
23209SOL    HW271302   5.905   3.333   3.155  1.1572 -1.4422  0.0227
23210SOL     OW71303   0.208   8.209   5.215  0.3902 -0.1123 -0.3115
23210SOL    HW171304   0.281   8.147   5.209  0.3047 -0.3041  0.5392
23210SOL    HW271305   0.130   8.155   5.202  0.3849  0.1288 -1.4622
23211SOL     OW71306   1.378   2.035   5.314 -0.1572 -0.1946  0.3726
23211SOL    HW171307   1.320   1.959   5.307 -2.8636  1.6293  1.4886
23211SOL    HW271308   1.324   2.109   5.288  0.7411  1.9755  3.9234
23212SOL     OW71309   1.461   3.247   9.324  0.2039  0.0694 -0.1676
23212SOL    HW171310   1.495   3.336   9.332  1.3814 -0.1907 -1.7336
23212SOL    HW271311   1.499   3.200   9.398  0.9021  0.5006 -0.2457
23213SOL     OW71312   3.711   1.165   6.852  0.2837  0.5671 -0.3187
23213SOL    HW171313   3.644   1.124   6.797  1.0954 -0.0526 -0.8670
23213SOL    HW271314   3.792   1.158   6.801  0.5962  2.2347 -0.1225
23214SOL     OW71315   8.108   0.382   3.438  0.0304  0.2366 -0.0189
23214SOL    HW171316   8.186   0.366   3.490  0.4901  0.6213 -0.5753
23214SOL    HW271317   8.101   0.478   3.435 -0.8397  0.2047  0.5771
23215SOL     OW71318   5.667   8.413   5.954  0.9951  0.1983  0.0334
23215SOL    HW171319   5.760   8.414   5.978  0.9924  3.0210  0.2648
23215SOL    HW271320   5.621   8.429   6.037  0.4457  0.7316 -0.3606
23216SOL     OW71321   6.035   5.852   7.779  0.0693 -0.0268  0.1041
23216SOL    HW171322   6.088   5.838   7.857 -1.9304 -3.3900  1.0833
23216SOL    HW271323   5.945   5.851   7.811 -0.7449  2.6269 -1.8208
23217SOL     OW71324   9.255   3.365   7.272 -0.4560 -0.5196  0.4440
23217SOL    HW171325   9.193   3.413   7.328 -1.0395 -0.4049 -0.2903
23217SOL    HW271326   9.238   3.273   7.290  0.5660 -0.4829  1.7506
23218SOL     OW71327   2.471   7.037   4.730  0.8969 -0.4134  0.7282
23218SOL    HW171328   2.470   6.964   4.793  1.4035  0.8911  2.3130
23218SOL    HW271329   2.519   7.107   4.774  0.2863  0.9611 -0.6746
23219SOL     OW71330   0.490   2.554   3.195 -0.4449  0.8385 -0.2547
23219SOL    HW171331   0.486   2.521   3.284 -1.2971  0.6177 -0.3714
23219SOL    HW271332   0.400   2.552   3.164  0.1353 -1.9792 -2.1818
23220SOL     OW71333   2.907   0.724   0.225 -0.3748  0.3281  0.5433
23220SOL    HW171334   2.829   0.725   0.170 -0.0851 -0.8591  0.0909
23220SOL    HW271335   2.895   0.650   0.284  0.9204 -0.6001 -0.3133
23221SOL     OW71336   8.565   0.671   2.871 -0.4802 -0.1739  0.5591
23221SOL    HW171337   8.528   0.584   2.861  2.3895 -1.6563  1.7419
23221SOL    HW271338   8.595   0.695   2.783 -0.6810 -0.6475  0.3590
23222SOL     OW71339   8.396   4.116   6.252 -0.5161 -0.4570 -0.6183
23222SOL    HW171340   8.369   4.049   6.190 -1.3967 -0.3272 -0.3923
23222SOL    HW271341   8.356   4.088   6.335  1.4856 -1.1972  0.1589
23223SOL     OW71342   2.720   6.817   7.725 -0.0854 -0.4826 -0.3311
23223SOL    HW171343   2.784   6.747   7.719 -0.3496 -0.6938 -0.7001
23223SOL    HW271344   2.735   6.856   7.812  0.5991 -0.4650 -0.4509
23224SOL     OW71345   3.607   7.546   1.354  0.3555  0.4773 -0.1973
23224SOL    HW171346   3.690   7.513   1.388 -0.2823 -0.0898  0.8763
23224SOL    HW271347   3.630   7.589   1.272  1.3019 -2.2452 -1.4781
23225SOL     OW71348   3.718   4.404   6.941 -0.1343 -0.4495 -0.1432
23225SOL    HW171349   3.625   4.385   6.948  0.1284 -1.4946  0.6795
23225SOL    HW271350   3.741   4.445   7.024 -0.2567  1.6896 -1.1123
23226SOL     OW71351   7.497   6.491   1.974  0.4349 -0.0721  0.0629
23226SOL    HW171352   7.478   6.568   2.028 -0.5715  0.0162 -0.3888
23226SOL    HW271353   7.421   6.434   1.987 -0.7702  0.7308 -2.6053
23227SOL     OW71354   2.818   4.850   4.361  0.2395 -0.5042 -0.1847
23227SOL    HW171355   2.773   4.909   4.300 -1.0593 -0.7200  0.5374
23227SOL    HW271356   2.906   4.839   4.323  0.0123  0.6977 -1.1113
23228SOL     OW71357   7.044   6.080   1.138 -0.6022  0.2511  0.2211
23228SOL    HW171358   7.085   6.074   1.224 -0.9259  0.8806  0.4259
23228SOL    HW271359   7.117   6.088   1.077 -0.4119  2.4659  0.6681
23229SOL     OW71360   9.021   1.475   1.626  0.2151 -0.0877 -0.0545
23229SOL    HW171361   9.002   1.418   1.551  0.0876 -1.3773  0.9201
23229SOL    HW271362   8.937   1.485   1.670  0.7040 -1.3512  1.2412
23230SOL     OW71363   6.646   4.582   4.505 -0.3077 -0.2129 -0.1273
23230SOL    HW171364   6.648   4.676   4.489 -1.3567 -0.3328 -1.1482
23230SOL    HW271365   6.554   4.563   4.528 -0.1357 -0.9950 -0.0297
23231SOL     OW71366   4.161   6.040   4.244 -0.7127  0.6502 -1.0026
23231SOL    HW171367   4.256   6.044   4.244 -0.4897 -1.2358  2.0931
23231SOL    HW271368   4.133   6.113   4.299 -0.6379 -1.1970  1.7159
23232SOL     OW71369   2.068   8.142   4.722  0.1443 -0.1231  0.0288
23232SOL    HW171370   2.105   8.220   4.681 -1.8273 -0.4663 -2.6743
23232SOL    HW271371   2.113   8.068   4.680  1.2404 -0.5231  1.7976
23233SOL     OW71372   1.829   1.566   3.927  0.2120 -0.3204 -0.2521
23233SOL    HW171373   1.909   1.519   3.950 -0.9194 -0.9137  3.0842
23233SOL    HW271374   1.799   1.603   4.010 -3.0204 -0.1664 -1.3626
23234SOL     OW71375   1.246   5.519   0.746  0.2910 -0.0672  0.0018
23234SOL    HW171376   1.167   5.482   0.705  0.6719 -1.6508  0.6029
23234SOL    HW271377   1.249   5.610   0.716 -1.6577 -0.0244 -0.1911
23235SOL     OW71378   3.038   5.920   7.946  0.3038 -0.3363 -0.1416
23235SOL    HW171379   2.980   5.990   7.917  1.8219  0.7633 -0.6154
23235SOL    HW271380   3.068   5.947   8.032 -0.1335 -1.0822  0.2625
23236SOL     OW71381   2.524   8.503   2.323 -0.7585 -0.3798  0.5147
23236SOL    HW171382   2.432   8.476   2.327 -1.0691  0.6387  0.5098
23236SOL    HW271383   2.531   8.552   2.241 -0.5384  0.6757  1.1448
23237SOL     OW71384   5.566   7.409   7.491  0.0199  0.3875  0.1930
23237SOL    HW171385   5.620   7.479   7.528 -0.5768  0.9424  0.0408
23237SOL    HW271386   5.583   7.411   7.397 -1.0841  1.3205 -0.0150
23238SOL     OW71387   7.506   8.132   2.265  0.0198  0.3304 -0.4315
23238SOL    HW171388   7.515   8.090   2.180  1.6248  1.9528 -1.1450
23238SOL    HW271389   7.500   8.226   2.245 -2.4026  0.5849  1.1364
23239SOL     OW71390   8.565   3.331   6.462  0.0461 -0.7346  0.2826
23239SOL    HW171391   8.553   3.377   6.379  3.0756 -1.3029 -0.5933
23239SOL    HW271392   8.571   3.239   6.437  0.2379 -0.9824  1.2340
23240SOL     OW71393   9.299   5.857   4.176  0.2038 -0.1258 -0.5971
23240SOL    HW171394   9.383   5.840   4.133  0.4569 -0.0302 -0.1475
23240SOL    HW271395   9.322   5.903   4.257 -0.1077 -1.8895  0.5514
23241SOL     OW71396   1.000   7.731   7.537  0.1290 -0.0678 -0.2455
23241SOL    HW171397   0.981   7.641   7.564 -0.6526  0.3251  0.5761
23241SOL    HW271398   1.062   7.722   7.465  0.4431 -1.2426  0.1497
23242SOL     OW71399   0.342   8.220   6.987  0.2409 -0.2164  0.5251
23242SOL    HW171400   0.346   8.163   6.910 -0.5845 -1.0498  1.0788
23242SOL    HW271401   0.293   8.169   7.052  1.9142 -0.0180  2.0246
23243SOL     OW71402   7.474   5.226   6.571  0.2619  0.8303 -0.0338
23243SOL    HW171403   7.539   5.218   6.641  0.4536 -1.3527 -0.3985
23243SOL    HW271404   7.420   5.148   6.579  0.9984 -0.1280 -2.9748
23244SOL     OW71405   5.730   2.419   5.131  0.7400 -0.4368 -0.1008
23244SOL    HW171406   5.763   2.396   5.044 -1.0406 -2.9461 -0.2370
23244SOL    HW271407   5.635   2.410   5.123  0.2968  2.0274  1.4310
23245SOL     OW71408   8.714   6.341   1.225 -0.5853 -0.0130  0.1427
23245SOL    HW171409   8.775   6.274   1.255 -0.2875  0.7974  1.4267
23245SOL    HW271410   8.740   6.359   1.134 -0.4878 -1.3945 -0.1221
23246SOL     OW71411   1.496   7.080   3.158  0.3020 -0.1872 -0.0557
23246SOL    HW171412   1.523   7.118   3.242 -1.0983  0.0375  0.3094
23246SOL    HW271413   1.401   7.088   3.157  0.1487 -1.7807 -0.9058
23247SOL     OW71414   4.381   8.364   8.199  0.0602  0.4228 -0.0962
23247SOL    HW171415   4.438   8.441   8.202 -0.4759  0.8740 -0.9819
23247SOL    HW271416   4.331   8.375   8.118 -0.9050 -0.2336  0.3996
23248SOL     OW71417   4.682   0.123   8.595  0.1525 -0.4120  0.1677
23248SOL    HW171418   4.723   0.210   8.594 -0.3948 -0.1439 -1.2485
23248SOL    HW271419   4.736   0.072   8.655  2.3988  0.0266 -1.3482
23249SOL     OW71420   8.489   8.469   8.795  0.2099 -0.2400  0.2186
23249SOL    HW171421   8.537   8.468   8.878  0.6593 -1.0527 -0.0471
23249SOL    HW271422   8.472   8.562   8.779  1.8470  0.0876  0.2266
23250SOL     OW71423   8.835   6.726   8.464 -0.1067 -0.1622  0.0111
23250SOL    HW171424   8.843   6.781   8.542  0.3898  0.4723 -0.4725
23250SOL    HW271425   8.806   6.787   8.395  1.5454 -0.2447 -0.8159
23251SOL     OW71426   3.605   0.563   9.087  0.8602  0.2774 -0.2074
23251SOL    HW171427   3.515   0.539   9.110  0.6949  2.0437  1.1959
23251SOL    HW271428   3.605   0.570   8.992  0.1090 -1.8402 -0.4275
23252SOL     OW71429   7.929   5.274   9.362 -0.3204 -0.8980  0.2897
23252SOL    HW171430   8.005   5.307   9.409  0.7991 -0.4084 -1.7795
23252SOL    HW271431   7.959   5.193   9.321 -1.3418 -1.4275  0.5300
23253SOL     OW71432   3.013   1.393   1.753  0.2291 -0.2841  0.4117
23253SOL    HW171433   3.105   1.374   1.734  0.1506 -1.1134  0.8344
23253SOL    HW271434   3.011   1.414   1.846  0.1335  0.7323  0.1942
23254SOL     OW71435   1.709   7.334   5.063 -0.3457 -0.1485 -0.0241
23254SOL    HW171436   1.669   7.300   5.143  0.2145 -0.1132  0.2770
23254SOL    HW271437   1.732   7.425   5.084 -0.6473  0.0164 -0.3915
23255SOL     OW71438   8.727   3.916   6.460  0.7132 -0.4235 -0.4583
23255SOL    HW171439   8.739   4.009   6.441  1.2389 -0.1692  1.0710
23255SOL    HW271440   8.805   3.890   6.508  0.2632 -1.4955 -0.2745
23256SOL     OW71441   6.486   7.317   9.141 -0.3218 -0.3475  0.2257
23256SOL    HW171442   6.518   7.246   9.196  0.4937 -0.0060  0.2094
23256SOL    HW271443   6.498   7.396   9.194  1.3170  0.1058 -0.7255
23257SOL     OW71444   4.334   8.481   7.372  0.7734 -0.1433 -0.2437
23257SOL    HW171445   4.404   8.430   7.330  0.9523  0.3694 -0.5796
23257SOL    HW271446   4.369   8.570   7.375  0.6454 -0.1158  0.7393
23258SOL     OW71447   2.014   1.906   1.485 -0.0666 -0.3588 -0.0928
23258SOL    HW171448   1.969   1.874   1.563 -0.8389 -0.1547 -0.4426
23258SOL    HW271449   2.072   1.834   1.459  0.8315 -0.1127  1.1382
23259SOL     OW71450   1.268   5.106   0.809 -0.5940  0.5645 -0.2023
23259SOL    HW171451   1.220   5.187   0.793 -1.8857 -0.4924 -2.0936
23259SOL    HW271452   1.356   5.122   0.775 -1.1503  0.8542 -1.5736
23260SOL     OW71453   3.976   2.107   2.169 -0.1978 -0.3165  0.5777
23260SOL    HW171454   3.959   2.132   2.078  0.4284  0.6131  0.7030
23260SOL    HW271455   4.067   2.133   2.185 -0.4243 -0.0950  1.5880
23261SOL     OW71456   7.146   8.047   6.075 -0.1611  0.1107 -0.2543
23261SOL    HW171457   7.061   8.008   6.056 -0.0702 -0.7343  0.9135
23261SOL    HW271458   7.205   7.973   6.083  0.4036  0.5996  0.2290
23262SOL     OW71459   5.648   9.362   7.846 -0.0851  0.0822  0.2981
23262SOL    HW171460   5.604   9.443   7.821  0.2129 -0.4554 -2.1909
23262SOL    HW271461   5.727   9.358   7.792  0.6776 -1.1900  1.4086
23263SOL     OW71462   5.336   3.239   8.558  0.1676  0.5369  0.3673
23263SOL    HW171463   5.401   3.229   8.489 -0.7437 -0.0759 -0.4289
23263SOL    HW271464   5.324   3.333   8.566  1.7357  0.7136  1.1121
23264SOL     OW71465   3.152   7.377   1.018 -0.1960 -0.7363  0.0310
23264SOL    HW171466   3.245   7.395   1.005 -0.0432 -0.0314  1.7523
23264SOL    HW271467   3.112   7.397   0.934  1.3441 -2.2761 -1.1277
23265SOL     OW71468   9.156   8.775   1.391 -0.3793  0.8257  0.2402
23265SOL    HW171469   9.202   8.753   1.311 -1.5281  0.9096 -0.4655
23265SOL    HW271470   9.163   8.697   1.446 -0.3545  0.4423 -0.3095
23266SOL     OW71471   0.271   6.739   8.415  0.6153  0.1723 -0.0104
23266SOL    HW171472   0.349   6.686   8.431 -0.6624 -0.8668  3.9165
23266SOL    HW271473   0.262   6.793   8.493 -0.3972  3.4201 -2.1696
23267SOL     OW71474   4.407   6.398   0.385 -0.0561  0.0111  0.2609
23267SOL    HW171475   4.339   6.380   0.449  1.0402 -0.4995  1.3267
23267SOL    HW271476   4.477   6.440   0.436  0.7731 -0.2571 -0.6344
23268SOL     OW71477   8.098   7.639   1.528  0.0047 -0.1657  0.5774
23268SOL    HW171478   8.013   7.682   1.518 -0.4345 -1.1047  0.1783
23268SOL    HW271479   8.095   7.565   1.468  1.0497 -0.3084  0.6826
23269SOL     OW71480   8.506   6.653   7.723 -0.3773  0.8455  0.0923
23269SOL    HW171481   8.524   6.607   7.805  0.7371 -1.3615 -1.2997
23269SOL    HW271482   8.587   6.643   7.672 -1.4741  1.0453 -1.7521
23270SOL     OW71483   3.025   7.061   5.624  0.1655  0.2841  0.5062
23270SOL    HW171484   2.949   7.012   5.592 -0.0766  1.4293 -0.7925
23270SOL    HW271485   2.987   7.137   5.668  0.5402 -0.5133  2.2837
23271SOL     OW71486   5.752   6.789   1.137 -0.4367 -0.1930 -0.0877
23271SOL    HW171487   5.788   6.704   1.109  0.3844 -0.5899  2.0045
23271SOL    HW271488   5.774   6.795   1.230  0.2658  2.6849 -0.3338
23272SOL     OW71489   6.941   5.034   9.011  0.5704 -0.2320  0.5140
23272SOL    HW171490   6.953   5.086   9.089  0.3916  0.7397 -0.0897
23272SOL    HW271491   6.982   5.085   8.941 -0.9953 -0.1098 -0.3624
23273SOL     OW71492   0.808   5.418   3.684  0.2971  0.2306  0.1663
23273SOL    HW171493   0.847   5.436   3.770  2.5403 -0.2648 -0.6593
23273SOL    HW271494   0.817   5.324   3.673 -3.1260 -0.2637  0.7404
23274SOL     OW71495   8.259   9.220   3.340 -0.2935  0.1286 -0.5186
23274SOL    HW171496   8.217   9.273   3.408 -0.0121  1.5610 -1.4080
23274SOL    HW271497   8.349   9.208   3.371 -0.5446 -0.4184  0.0079
23275SOL     OW71498   2.720   4.231   7.768  0.6890 -0.1283 -0.0355
23275SOL    HW171499   2.659   4.251   7.839  0.0417  2.2548 -1.1561
23275SOL    HW271500   2.769   4.312   7.755  1.8215 -0.9761 -1.3326
23276SOL     OW71501   2.929   2.598   8.662 -0.5852  0.1608 -0.2515
23276SOL    HW171502   2.873   2.528   8.631  1.0032 -0.8592 -0.9387
23276SOL    HW271503   2.980   2.624   8.585  1.4625 -0.5134  0.8012
23277SOL     OW71504   7.691   7.953   5.467  0.5038 -0.0811  0.1412
23277SOL    HW171505   7.786   7.954   5.458  0.5331  1.6234  0.3094
23277SOL    HW271506   7.672   7.875   5.519  1.8435 -0.1300  0.5884
23278SOL     OW71507   6.137   3.367   1.626 -0.2834 -0.4627  0.3100
23278SOL    HW171508   6.202   3.417   1.674 -1.1430  1.3475 -0.2885
23278SOL    HW271509   6.183   3.288   1.596  1.0466 -0.1906  1.5476
23279SOL     OW71510   1.090   6.412   4.427 -0.3321 -0.0020  0.4016
23279SOL    HW171511   1.026   6.462   4.478  1.4717  0.6892  2.1722
23279SOL    HW271512   1.165   6.471   4.419  0.2928 -0.9519 -1.1328
23280SOL     OW71513   2.396   7.456   5.644  0.6180 -0.8472  0.0274
23280SOL    HW171514   2.355   7.521   5.702 -0.1991 -0.6728 -0.7198
23280SOL    HW271515   2.400   7.500   5.559  3.5622 -0.3862  0.3265
23281SOL     OW71516   5.476   7.936   3.431  0.0917 -0.3100  0.7387
23281SOL    HW171517   5.562   7.897   3.410  0.3940 -0.5915  2.3700
23281SOL    HW271518   5.414   7.884   3.380  0.9403  0.6392 -1.3974
23282SOL     OW71519   2.551   1.153   2.513 -0.2622  0.1526  0.1640
23282SOL    HW171520   2.647   1.151   2.514 -0.2566 -0.7888 -0.6040
23282SOL    HW271521   2.529   1.245   2.494  0.5585 -0.1020 -2.3847
23283SOL     OW71522   0.519   0.235   8.192  0.5072 -0.0523 -0.0032
23283SOL    HW171523   0.557   0.260   8.108  0.1783  0.4273 -0.0123
23283SOL    HW271524   0.566   0.288   8.256  0.0521  0.3402  0.0125
23284SOL     OW71525   3.779   8.869   2.037  0.4248  0.4202  0.2652
23284SOL    HW171526   3.694   8.824   2.033  1.0582 -0.7106 -1.5871
23284SOL    HW271527   3.768   8.935   2.105 -1.7444 -0.1164  0.4988
23285SOL     OW71528   3.130   1.512   3.583 -0.1361  0.2157  0.3379
23285SOL    HW171529   3.075   1.434   3.591  3.1739 -2.3562  0.0495
23285SOL    HW271530   3.173   1.521   3.667  1.3319  0.2172 -0.3812
23286SOL     OW71531   0.908   1.926   0.255  0.0709  0.4127 -0.3003
23286SOL    HW171532   0.979   1.990   0.256  1.5921 -1.1793 -0.6918
23286SOL    HW271533   0.951   1.843   0.277 -1.8022 -0.5088  0.0567
23287SOL     OW71534   7.412   6.113   1.201 -0.1846 -0.2761 -0.5515
23287SOL    HW171535   7.485   6.070   1.246 -1.6387 -0.7664  1.5128
23287SOL    HW271536   7.339   6.106   1.263 -1.7730  0.9047 -2.1951
23288SOL     OW71537   5.642   1.997   8.824  0.8437 -0.2663 -0.3979
23288SOL    HW171538   5.626   2.070   8.765  0.9495  0.2379  0.1795
23288SOL    HW271539   5.684   1.931   8.770 -0.9082 -0.6354 -1.3652
23289SOL     OW71540   3.684   9.032   5.169  0.4233 -0.9803  0.0910
23289SOL    HW171541   3.718   8.996   5.088 -3.4220 -3.7830 -0.5820
23289SOL    HW271542   3.680   8.957   5.229  1.8442  0.7063  2.4890
23290SOL     OW71543   2.442   1.771   7.035  0.2178 -0.0604 -0.1784
23290SOL    HW171544   2.378   1.750   7.103 -0.8460 -1.4491 -1.5134
23290SOL    HW271545   2.518   1.804   7.082 -1.7827  2.6579  1.4597
23291SOL     OW71546   0.706   7.386   8.633 -0.4987  0.2120  0.2024
23291SOL    HW171547   0.731   7.373   8.725  0.1903  2.2979  0.3635
23291SOL    HW271548   0.622   7.431   8.637 -1.5220 -1.5630 -0.2672
23292SOL     OW71549   3.767   7.608   8.240 -0.0976  0.2249  0.6838
23292SOL    HW171550   3.828   7.563   8.181  0.3917 -0.8487  1.9622
23292SOL    HW271551   3.813   7.613   8.324 -1.1768  0.7799  1.2700
23293SOL     OW71552   0.653   9.340   2.492 -0.0565 -0.2090  0.3971
23293SOL    HW171553   0.644   9.432   2.519  1.3620  0.4632 -1.1809
23293SOL    HW271554   0.667   9.293   2.574 -2.9657  0.6040  1.4750
23294SOL     OW71555   6.340   5.115   0.543  0.1208 -0.0850 -0.1223
23294SOL    HW171556   6.377   5.029   0.523 -0.5085  0.0074 -1.8360
23294SOL    HW271557   6.264   5.096   0.598  0.8676 -0.4864  0.8129
23295SOL     OW71558   4.252   2.483   3.088  0.3921 -0.0177  0.1972
23295SOL    HW171559   4.303   2.415   3.044 -0.9284 -0.0971 -1.2826
23295SOL    HW271560   4.291   2.489   3.175  0.0184 -3.2438  0.6977
23296SOL     OW71561   1.433   7.686   5.063  0.3434 -0.0038  0.3944
23296SOL    HW171562   1.416   7.594   5.042  1.1364 -0.0886  0.0707
23296SOL    HW271563   1.519   7.686   5.105  0.7305  0.6680 -0.3559
23297SOL     OW71564   3.262   2.745   1.536  0.2055  0.3516  0.2159
23297SOL    HW171565   3.321   2.694   1.480  0.9215 -0.4929  1.6614
23297SOL    HW271566   3.315   2.820   1.563  0.0027  0.5501  0.0523
23298SOL     OW71567   5.766   8.850   9.089  0.3704 -0.3592  0.7630
23298SOL    HW171568   5.708   8.882   9.019 -0.1206 -1.2589  0.7500
23298SOL    HW271569   5.733   8.894   9.168  1.1270  0.9065  0.3999
23299SOL     OW71570   7.316   6.712   9.415  0.0171 -0.2084  0.0143
23299SOL    HW171571   7.328   6.619   9.434  0.0018 -0.2808 -0.3303
23299SOL    HW271572   7.258   6.743   9.485 -1.0262 -0.7435 -0.5851
23300SOL     OW71573   8.365   7.064   2.111  0.1417 -0.3531  0.2508
23300SOL    HW171574   8.406   7.050   2.025 -2.5019 -1.5122 -0.9481
23300SOL    HW271575   8.333   7.154   2.108  1.0171 -0.0325  0.4694
23301SOL     OW71576   3.097   6.916   1.304 -0.0670 -0.2601 -0.2054
23301SOL    HW171577   3.014   6.881   1.272 -0.2300 -0.3449  0.3027
23301SOL    HW271578   3.103   7.004   1.266 -1.2956  0.5020  1.2718
23302SOL     OW71579   3.060   6.697   6.995  0.1475  0.0698 -0.2714
23302SOL    HW171580   3.043   6.762   6.927 -1.0596 -1.6379 -1.6850
23302SOL    HW271581   3.141   6.727   7.037  0.1392  1.9482 -1.4898
23303SOL     OW71582   0.352   9.534   5.668 -0.6794 -0.4969  0.1113
23303SOL    HW171583   0.400   9.458   5.700 -0.1059 -0.2259 -0.0975
23303SOL    HW271584   0.399   9.609   5.703 -0.9224 -0.2255 -0.1364
23304SOL     OW71585   4.547   6.716   2.458 -0.0965  0.0554 -0.8752
23304SOL    HW171586   4.535   6.803   2.419  2.9143  0.9110 -0.1999
23304SOL    HW271587   4.571   6.660   2.384 -1.0715  0.0013 -1.1665
23305SOL     OW71588   7.263   1.675   1.703  0.1029 -0.1971  0.5925
23305SOL    HW171589   7.238   1.647   1.790 -3.1592 -2.1154 -0.8070
23305SOL    HW271590   7.343   1.625   1.684 -0.8745 -2.1478  1.3621
23306SOL     OW71591   0.705   4.414   5.861  0.2440 -0.2103 -0.0813
23306SOL    HW171592   0.702   4.374   5.775  0.5185 -2.6028  0.9452
23306SOL    HW271593   0.798   4.433   5.875  0.2083  0.1127 -0.2888
23307SOL     OW71594   0.465   1.751   0.225  0.4860  0.4913 -0.1925
23307SOL    HW171595   0.518   1.826   0.251  0.1680  1.0436 -1.0685
23307SOL    HW271596   0.528   1.687   0.193  0.6771  0.9331 -0.7260
23308SOL     OW71597   6.369   2.638   0.531  0.0105  0.4683  0.1046
23308SOL    HW171598   6.323   2.558   0.557 -1.5308  1.0799 -0.6275
23308SOL    HW271599   6.361   2.696   0.606 -2.4953  1.4087 -0.7726
23309SOL     OW71600   7.001   6.284   5.691 -0.4283  0.4899  0.3814
23309SOL    HW171601   7.079   6.340   5.698  0.3527 -0.6404  0.9530
23309SOL    HW271602   6.975   6.270   5.782  0.4076 -1.4437  0.3612
23310SOL     OW71603   4.097   6.491   6.404  0.5370  0.1992  0.4453
23310SOL    HW171604   4.096   6.549   6.480 -0.4886  1.0719 -0.2173
23310SOL    HW271605   4.117   6.548   6.330  1.5556 -0.6478  0.0388
23311SOL     OW71606   4.043   1.725   1.614  0.5075 -0.0716 -0.6169
23311SOL    HW171607   3.977   1.676   1.663 -1.5923  1.1151 -2.1177
23311SOL    HW271608   4.080   1.661   1.553 -0.8518 -0.2676 -1.2652
23312SOL     OW71609   0.566   9.661   9.401  0.7466 -0.4493  0.4553
23312SOL    HW171610   0.635   9.726   9.405  0.8038 -0.4187 -0.6574
23312SOL    HW271611   0.593   9.602   9.331  0.9900 -2.0315  1.8116
23313SOL     OW71612   2.091   8.571   8.385 -0.3914  0.3738 -0.6543
23313SOL    HW171613   2.012   8.530   8.349 -0.7632  2.8224 -2.9223
23313SOL    HW271614   2.062   8.655   8.418  0.9974  0.5678  0.1425
23314SOL     OW71615   5.745   8.907   1.168 -0.3918 -0.1681 -0.4061
23314SOL    HW171616   5.817   8.966   1.147 -0.7259  0.2644 -0.3416
23314SOL    HW271617   5.748   8.840   1.100 -1.2664  1.0366 -1.6922
23315SOL     OW71618   2.092   5.032   2.059 -0.2775  0.4607 -1.0712
23315SOL    HW171619   2.039   5.025   2.138  0.2755 -1.1465 -0.8160
23315SOL    HW271620   2.028   5.031   1.988 -0.7203  1.0025 -0.6941
23316SOL     OW71621   6.566   5.209   7.475 -0.6227 -0.2131 -0.1593
23316SOL    HW171622   6.549   5.303   7.485 -0.5731  0.0466 -2.0388
23316SOL    HW271623   6.655   5.197   7.506 -0.7740  0.2644  0.4962
23317SOL     OW71624   0.013   2.922   3.435 -0.0280 -0.2551 -0.0055
23317SOL    HW171625  -0.036   2.973   3.370  0.9643 -0.6506 -1.1044
23317SOL    HW271626   0.105   2.944   3.418  0.7104 -4.2054 -2.2130
23318SOL     OW71627   0.271   0.707   1.606  1.1034 -0.1479 -0.4334
23318SOL    HW171628   0.314   0.760   1.539 -0.5187  1.6414 -0.1293
23318SOL    HW271629   0.259   0.766   1.680  0.0611 -1.1935  0.2634
23319SOL     OW71630   8.780   2.742   6.703  0.2525  0.3120 -0.1580
23319SOL    HW171631   8.875   2.747   6.712  0.3595  0.9064 -1.3968
23319SOL    HW271632   8.759   2.810   6.639 -1.1371  0.9014  0.8826
23320SOL     OW71633   3.163   0.223   7.490  0.2014 -0.0887  0.0138
23320SOL    HW171634   3.072   0.201   7.466  0.3039  2.1045 -3.0122
23320SOL    HW271635   3.213   0.145   7.465 -0.7505 -1.4126  1.9054
23321SOL     OW71636   7.286   5.617   4.390 -0.1922 -0.6459 -0.3651
23321SOL    HW171637   7.308   5.552   4.322 -0.7676 -0.2815 -0.9150
23321SOL    HW271638   7.346   5.689   4.374 -0.9945 -0.1232 -1.1620
23322SOL     OW71639   5.810   7.943   0.350 -0.5066  0.1019  0.2902
23322SOL    HW171640   5.740   7.886   0.317 -0.7514 -0.1440  1.2215
23322SOL    HW271641   5.811   7.928   0.444  0.8865  0.0179  0.2790
23323SOL     OW71642   3.425   6.474   8.814  0.4690 -0.2591 -0.0207
23323SOL    HW171643   3.457   6.393   8.853 -0.0225 -1.0517 -1.1818
23323SOL    HW271644   3.461   6.543   8.869  0.5647 -1.2734  1.2458
23324SOL     OW71645   5.299   5.016   2.228  0.7565  0.2071 -0.2166
23324SOL    HW171646   5.345   5.056   2.302  1.4230 -0.0997 -0.4580
23324SOL    HW271647   5.207   5.038   2.242  0.3563 -2.5979  2.4971
23325SOL     OW71648   9.163   6.187   0.347  0.5113 -0.1689 -0.2266
23325SOL    HW171649   9.150   6.258   0.409  0.2038  0.0099 -0.4909
23325SOL    HW271650   9.075   6.170   0.312  0.0629 -2.3394  1.6343
23326SOL     OW71651   7.750   6.204   0.655 -0.2277 -0.1194  0.3695
23326SOL    HW171652   7.786   6.120   0.629 -1.1253 -0.7410  1.0931
23326SOL    HW271653   7.702   6.187   0.735  0.4515  1.2943  1.1226
23327SOL     OW71654   6.607   1.242   7.617 -0.1053  0.1102  0.3462
23327SOL    HW171655   6.590   1.190   7.539 -0.0018  0.5356  0.0425
23327SOL    HW271656   6.614   1.332   7.586  0.0171  0.2715  0.8311
23328SOL     OW71657   9.360   2.212   1.447 -0.2066  0.4374  0.2828
23328SOL    HW171658   9.342   2.230   1.539 -1.3902  2.1595 -0.2425
23328SOL    HW271659   9.400   2.292   1.414  2.5514 -1.0246 -0.1655
23329SOL     OW71660   5.563   1.612   1.912 -0.6740  0.9647  0.3538
23329SOL    HW171661   5.631   1.572   1.858  0.9222 -0.5231  3.2119
23329SOL    HW271662   5.573   1.706   1.899  1.0003  0.7159 -0.3999
23330SOL     OW71663   4.865   2.614   6.327 -0.6786  0.0543 -0.6796
23330SOL    HW171664   4.775   2.582   6.317 -0.6826 -0.0970 -0.1781
23330SOL    HW271665   4.858   2.689   6.386 -0.6578  0.9606 -1.7989
23331SOL     OW71666   9.047   3.109   0.519 -0.2392  0.4548  0.5804
23331SOL    HW171667   9.061   3.175   0.451 -0.3242 -0.2176 -0.0975
23331SOL    HW271668   9.062   3.157   0.601  1.2064  0.9591  0.0596
23332SOL     OW71669   8.343   5.477   7.382  0.8832 -0.3094  0.6770
23332SOL    HW171670   8.313   5.501   7.470 -0.5355 -1.1419  0.4529
23332SOL    HW271671   8.303   5.542   7.324  0.3449 -0.8119  0.4771
23333SOL     OW71672   6.146   6.666   8.396  0.3413 -0.1048 -0.0292
23333SOL    HW171673   6.065   6.641   8.352  0.8843 -0.1531 -1.0236
23333SOL    HW271674   6.176   6.586   8.439  0.9961 -0.6772 -1.4853
23334SOL     OW71675   6.596   7.082   3.822  0.1013 -0.3354 -0.0704
23334SOL    HW171676   6.642   7.044   3.897  2.4799 -1.6113 -2.0353
23334SOL    HW271677   6.630   7.171   3.816  0.0297 -0.2844  0.2474
23335SOL     OW71678   9.138   0.181   1.295 -0.1013 -0.4157  0.0689
23335SOL    HW171679   9.219   0.209   1.253 -0.6853  1.1455 -0.0875
23335SOL    HW271680   9.069   0.219   1.240 -0.9608 -1.9352  0.0494
23336SOL     OW71681   0.476   4.566   0.691  0.3540  0.3733 -0.1216
23336SOL    HW171682   0.560   4.542   0.729 -1.5476 -1.1173  3.7236
23336SOL    HW271683   0.462   4.502   0.620  1.8824 -0.1339 -0.0052
23337SOL     OW71684   1.942   7.947   8.687 -0.2861  0.0553  0.4202
23337SOL    HW171685   1.954   8.001   8.609 -1.4326  0.3890  0.4632
23337SOL    HW271686   1.918   7.861   8.653 -2.3628  0.5950  0.3880
23338SOL     OW71687   6.417   6.714   8.801 -0.2895  0.1091  0.1296
23338SOL    HW171688   6.327   6.682   8.806 -1.0035  2.2178  3.6385
23338SOL    HW271689   6.409   6.806   8.775  0.8565  0.3155  0.4388
23339SOL     OW71690   5.727   4.399   2.515 -0.1571  0.0431  0.0660
23339SOL    HW171691   5.793   4.336   2.486  0.3979  0.8137 -0.3494
23339SOL    HW271692   5.745   4.479   2.466 -0.1534  0.8920  1.4023
23340SOL     OW71693   2.365   2.822   8.262 -0.0098 -0.2744 -0.6255
23340SOL    HW171694   2.373   2.902   8.211 -0.2826 -0.2523 -0.6310
23340SOL    HW271695   2.339   2.852   8.350 -0.1837 -0.3623 -0.6473
23341SOL     OW71696   8.675   9.012   8.442 -0.1441 -0.0947 -0.4263
23341SOL    HW171697   8.610   8.946   8.417 -0.7357  0.5372 -0.5802
23341SOL    HW271698   8.627   9.094   8.442 -0.1659  0.0107  2.5962
23342SOL     OW71699   6.719   3.359   9.029 -0.0753  0.3204 -0.6305
23342SOL    HW171700   6.681   3.274   9.007 -1.6037  1.2107 -1.6570
23342SOL    HW271701   6.697   3.372   9.121  0.5009 -0.5233 -0.3537
23343SOL     OW71702   3.210   3.794   3.528  0.1390 -0.1782  0.0872
23343SOL    HW171703   3.292   3.819   3.485  0.4507 -1.4595 -0.1166
23343SOL    HW271704   3.239   3.752   3.609 -0.3568  0.1119  0.4150
23344SOL     OW71705   1.821   4.551   0.631  0.1153 -0.1841 -0.1609
23344SOL    HW171706   1.761   4.598   0.689  0.6026  1.1667 -0.7171
23344SOL    HW271707   1.867   4.490   0.689 -0.1030  0.4495  0.7050
23345SOL     OW71708   4.281   2.920   4.698 -0.5494 -0.4589  0.3434
23345SOL    HW171709   4.316   2.952   4.782 -1.7954 -1.3606  1.2385
23345SOL    HW271710   4.252   2.831   4.717 -1.0105 -0.6193 -1.0261
23346SOL     OW71711   6.330   1.395   2.561  0.5778  0.7102  0.1669
23346SOL    HW171712   6.260   1.443   2.605  0.0883  0.3909 -0.2524
23346SOL    HW271713   6.379   1.462   2.513  1.1325  1.0688  1.1874
23347SOL     OW71714   5.795   0.034   0.292 -0.1913  0.0615 -0.2313
23347SOL    HW171715   5.745   0.051   0.372  1.0124 -0.1708  0.5921
23347SOL    HW271716   5.758  -0.047   0.257 -0.5941  0.0528  0.2019
23348SOL     OW71717   1.935   8.089   4.942  0.6263 -0.9516 -0.4761
23348SOL    HW171718   1.995   8.102   4.868 -0.7847  0.3364 -1.4605
23348SOL    HW271719   1.900   8.177   4.959 -1.4268 -1.7519 -0.3476
23349SOL     OW71720   1.260   0.141   3.260  0.0464 -0.1429 -0.1086
23349SOL    HW171721   1.319   0.084   3.211  1.5939  1.1988  0.0957
23349SOL    HW271722   1.196   0.082   3.299  1.6593 -1.7595  0.2225
23350SOL     OW71723   9.526   4.972   2.780  0.0758 -0.7356  0.6229
23350SOL    HW171724   9.605   5.022   2.801  0.8562 -0.9901 -1.5225
23350SOL    HW271725   9.462   5.037   2.753  0.1714 -0.6880  0.5143
23351SOL     OW71726   3.977   0.300   5.530 -0.2613 -0.0501 -0.2463
23351SOL    HW171727   3.950   0.390   5.508 -0.2501 -0.3094 -1.3281
23351SOL    HW271728   3.928   0.280   5.610 -1.1189  0.5209 -0.6165
23352SOL     OW71729   5.960   8.743   9.244 -0.7490  0.1641 -0.0043
23352SOL    HW171730   5.949   8.653   9.214 -1.3119  0.6383 -1.2930
23352SOL    HW271731   5.907   8.796   9.184 -1.5559  1.2377  1.5744
23353SOL     OW71732   9.185   8.663   1.130  0.7406  0.7342  0.0725
23353SOL    HW171733   9.196   8.630   1.041  1.4028  1.0858  0.0172
23353SOL    HW271734   9.200   8.757   1.123  1.3855  0.6861  0.6434
23354SOL     OW71735   3.352   7.117   1.856  0.1710  0.5867  0.2587
23354SOL    HW171736   3.440   7.146   1.833  0.5404 -1.5203 -1.3738
23354SOL    HW271737   3.298   7.137   1.779 -1.5107  4.1191  2.1110
23355SOL     OW71738   1.979   0.409   3.170 -0.1517  0.2712 -0.0024
23355SOL    HW171739   2.045   0.434   3.236 -2.3932  1.1412  2.0668
23355SOL    HW271740   2.004   0.459   3.092  2.3843 -0.4825  0.2339
23356SOL     OW71741   8.034   1.207   3.838 -0.3820  0.5894  0.2589
23356SOL    HW171742   7.969   1.149   3.877 -1.6196  0.8642 -1.2801
23356SOL    HW271743   8.045   1.175   3.749  0.8138  1.2078  0.1582
23357SOL     OW71744   8.224   8.061   8.854 -0.0703  0.1444  0.2786
23357SOL    HW171745   8.149   8.009   8.883 -0.3002 -0.8248 -1.9051
23357SOL    HW271746   8.287   8.054   8.926 -0.5722 -2.1681  0.5623
23358SOL     OW71747   8.388   0.099   9.217  0.0543 -0.3464 -0.0405
23358SOL    HW171748   8.310   0.123   9.167 -0.2003  0.7956  0.8535
23358SOL    HW271749   8.355   0.051   9.292  0.1439  0.5732  0.6052
23359SOL     OW71750   7.443   7.291   5.983  0.2465  0.5689 -0.0833
23359SOL    HW171751   7.413   7.359   5.922  0.9989 -0.4650 -1.6766
23359SOL    HW271752   7.365   7.268   6.033 -0.2009  2.0426 -0.0362
23360SOL     OW71753   2.814   8.431   6.238  0.4896  0.0755  0.5111
23360SOL    HW171754   2.868   8.353   6.249 -0.2947 -0.6302 -0.4945
23360SOL    HW271755   2.750   8.426   6.309  1.6338  0.8616  1.6430
23361SOL     OW71756   8.003   6.561   9.292 -0.3753 -0.8061 -0.4627
23361SOL    HW171757   7.941   6.623   9.330 -1.0952 -0.5690 -1.9480
23361SOL    HW271758   7.948   6.488   9.263  0.3926 -1.8918  0.7390
23362SOL     OW71759   5.011   9.644   0.808 -0.5366  0.1075 -0.3238
23362SOL    HW171760   4.992   9.552   0.787  0.0153 -0.2154  0.5276
23362SOL    HW271761   4.973   9.656   0.895  0.0754  0.4628 -0.1043
23363SOL     OW71762   8.447   1.660   5.299 -0.2832 -0.0815 -0.2358
23363SOL    HW171763   8.360   1.669   5.262  0.2319  0.8888 -1.2610
23363SOL    HW271764   8.447   1.721   5.374 -0.6727 -0.5397  0.1413
23364SOL     OW71765   5.249   4.046   8.904 -0.0938 -0.5859  0.2094
23364SOL    HW171766   5.221   3.993   8.978  0.6848 -1.7323 -0.2846
23364SOL    HW271767   5.185   4.117   8.899 -0.7669 -1.0943  1.3096
23365SOL     OW71768   0.734   4.822   9.354  0.0803  0.4353 -0.6035
23365SOL    HW171769   0.762   4.732   9.333  2.0201  1.0406 -0.8232
23365SOL    HW271770   0.655   4.835   9.303 -1.0831 -1.6216  0.5269
23366SOL     OW71771   5.025   4.558   7.208 -0.4072 -0.2446  0.0699
23366SOL    HW171772   5.048   4.642   7.170 -1.0665 -0.0076  0.1801
23366SOL    HW271773   5.106   4.507   7.207 -0.2955 -0.0564 -1.1632
23367SOL     OW71774   4.400   0.296   6.452 -0.0271  0.4265 -0.7924
23367SOL    HW171775   4.407   0.251   6.368 -0.1803  0.3739 -0.7776
23367SOL    HW271776   4.306   0.297   6.471  0.0927 -0.5991 -0.0643
23368SOL     OW71777   6.963   4.982   2.507 -0.3874 -0.3325  0.0958
23368SOL    HW171778   7.056   4.996   2.525 -0.2267  0.0891 -0.9905
23368SOL    HW271779   6.934   4.921   2.575  1.5575 -3.5412 -1.6954
23369SOL     OW71780   4.393   3.229   9.438 -0.2137 -0.2699  0.4372
23369SOL    HW171781   4.344   3.154   9.471 -1.0191 -1.0710 -2.3142
23369SOL    HW271782   4.342   3.306   9.464 -0.2503 -0.7427  1.8438
23370SOL     OW71783   3.224   2.784   5.320  0.4749  0.1929  0.5055
23370SOL    HW171784   3.265   2.699   5.301  1.6426  0.9608 -0.5684
23370SOL    HW271785   3.264   2.844   5.258 -0.5669  1.4888  1.0412
23371SOL     OW71786   7.258   5.965   5.552 -0.0571 -0.5837  0.2363
23371SOL    HW171787   7.299   6.018   5.483 -1.3029  0.2915  0.1162
23371SOL    HW271788   7.178   5.932   5.512  0.1609 -1.6871  0.6730
23372SOL     OW71789   8.521   1.021   3.609 -0.0647 -0.6013  0.0358
23372SOL    HW171790   8.532   0.989   3.698 -0.5073  2.4038  1.2784
23372SOL    HW271791   8.610   1.034   3.576  0.1044 -0.5141  0.5290
23373SOL     OW71792   8.592   6.762   5.108  0.3106 -0.2418 -0.3235
23373SOL    HW171793   8.588   6.856   5.128 -0.4554 -0.4515  0.5702
23373SOL    HW271794   8.540   6.752   5.028  0.6980  0.1431 -0.6300
23374SOL     OW71795   6.546   7.697   0.290 -0.1151 -0.2020 -0.1245
23374SOL    HW171796   6.541   7.666   0.380 -0.7943  2.7313  0.9616
23374SOL    HW271797   6.639   7.713   0.275 -0.0940  0.2362  0.4351
23375SOL     OW71798   8.362   2.081   8.061  0.1436 -0.1682 -0.3159
23375SOL    HW171799   8.299   2.025   8.108 -1.5620 -0.1090 -2.3883
23375SOL    HW271800   8.349   2.168   8.098 -0.2606 -0.3532 -0.0122
23376SOL     OW71801   7.868   3.970   5.699  0.9399 -0.4629  0.2546
23376SOL    HW171802   7.926   4.046   5.711 -0.1224  0.6879 -1.3933
23376SOL    HW271803   7.928   3.895   5.696  2.0561  0.3231  1.5660
23377SOL     OW71804   4.334   7.830   8.619  0.1780  0.5752 -0.2466
23377SOL    HW171805   4.273   7.835   8.693  1.7752  1.2551  1.1027
23377SOL    HW271806   4.420   7.845   8.659  1.3880 -1.6236 -1.8574
23378SOL     OW71807   7.557   3.033   8.768  0.0926 -0.2609  0.2783
23378SOL    HW171808   7.593   2.949   8.738 -0.6446 -0.4242 -0.1660
23378SOL    HW271809   7.546   3.021   8.862 -0.2427 -0.7617  0.1829
23379SOL     OW71810   6.380   1.826   7.851  0.8010 -0.1789 -0.4152
23379SOL    HW171811   6.294   1.860   7.873  0.7496 -0.5012 -0.0925
23379SOL    HW271812   6.411   1.785   7.932  0.0809 -2.5038 -1.2346
23380SOL     OW71813   1.311   4.613   9.165 -0.0555 -0.1924 -0.2813
23380SOL    HW171814   1.393   4.572   9.192 -0.4172 -0.9492 -0.3060
23380SOL    HW271815   1.246   4.543   9.170 -0.7427  0.4410 -0.0789
23381SOL     OW71816   7.568   6.928   2.163 -0.9843  0.2599 -0.6184
23381SOL    HW171817   7.559   6.835   2.182  1.1104 -0.1027 -1.1313
23381SOL    HW271818   7.480   6.964   2.172 -2.2320 -2.1187 -2.3393
23382SOL     OW71819   8.399   1.853   5.522  0.1162 -0.2231 -0.2614
23382SOL    HW171820   8.394   1.872   5.615 -2.0684 -0.8366 -0.2052
23382SOL    HW271821   8.365   1.932   5.479 -0.3007 -0.5045 -0.4566
23383SOL     OW71822   7.729   8.362   7.002  0.0988 -0.6424  0.3710
23383SOL    HW171823   7.685   8.409   7.072  0.5985 -0.9544  0.9006
23383SOL    HW271824   7.659   8.316   6.956 -0.2637 -0.2075  0.4859
23384SOL     OW71825   6.137   5.460   5.285 -0.5393  0.0229  0.0566
23384SOL    HW171826   6.149   5.378   5.333 -0.1108 -2.0736 -3.3394
23384SOL    HW271827   6.061   5.445   5.230 -0.3057  1.8318 -0.8462
23385SOL     OW71828   3.734   1.625   2.936  0.3190 -0.1232  0.1509
23385SOL    HW171829   3.662   1.655   2.880 -0.2235 -1.0927  0.3037
23385SOL    HW271830   3.706   1.539   2.967  0.7594  0.2323  1.6377
23386SOL     OW71831   2.647   9.499   7.956 -0.0550  0.0471  0.3215
23386SOL    HW171832   2.729   9.546   7.974  0.2555  0.8971 -2.8125
23386SOL    HW271833   2.660   9.412   7.996  2.3911  0.1591 -0.0946
23387SOL     OW71834   2.927   1.526   6.354 -0.4071 -0.1254 -0.3326
23387SOL    HW171835   2.925   1.535   6.450 -1.5817 -0.9463 -0.2514
23387SOL    HW271836   2.864   1.590   6.323  0.5336  0.6776 -0.6300
23388SOL     OW71837   6.716   2.650   0.769 -0.3240  0.0970 -0.1255
23388SOL    HW171838   6.662   2.702   0.827 -1.3180 -0.5496 -0.4520
23388SOL    HW271839   6.787   2.617   0.825 -1.4518 -0.7972  0.8169
23389SOL     OW71840   0.892   6.563   5.830  0.3605 -0.4599 -0.3971
23389SOL    HW171841   0.852   6.513   5.759 -1.1871  2.3063 -1.6253
23389SOL    HW271842   0.968   6.605   5.790  2.9696 -3.3105  1.1737
23390SOL     OW71843   4.154   0.935   3.642 -0.3898 -0.1561  0.0275
23390SOL    HW171844   4.233   0.919   3.589 -1.0801 -0.5074 -0.9134
23390SOL    HW271845   4.154   0.863   3.706 -0.7620 -1.0627 -0.9651
23391SOL     OW71846   1.576   1.992   5.121 -0.2754 -0.4558 -0.2260
23391SOL    HW171847   1.502   2.010   5.180  0.1471 -1.1715  0.5346
23391SOL    HW271848   1.620   1.917   5.159 -0.2419 -1.2231 -1.7106
23392SOL     OW71849   9.282   8.319   4.871  0.6281  0.5244  0.7880
23392SOL    HW171850   9.194   8.291   4.895  1.3228 -0.8486  1.8828
23392SOL    HW271851   9.303   8.268   4.792  0.5390  0.6350  0.6942
23393SOL     OW71852   1.108   5.638   7.119  0.1021 -0.0476 -0.0735
23393SOL    HW171853   1.081   5.547   7.116  0.0333 -0.0312  0.0523
23393SOL    HW271854   1.161   5.646   7.198 -0.4449  0.1691  0.2857
23394SOL     OW71855   0.942   5.436   3.951 -0.2867 -0.3869 -0.1876
23394SOL    HW171856   0.996   5.367   3.914  2.7315  1.8442 -0.3099
23394SOL    HW271857   0.991   5.469   4.026 -1.4320  1.7937 -0.2905
23395SOL     OW71858   8.269   1.657   4.604 -0.0477  0.0129 -0.3269
23395SOL    HW171859   8.291   1.717   4.532 -0.6078 -0.6686 -1.0935
23395SOL    HW271860   8.204   1.704   4.656  1.1431  0.9339  0.3640
23396SOL     OW71861   5.645   8.283   6.913  0.0332 -0.2911  0.6312
23396SOL    HW171862   5.676   8.370   6.886 -2.1989  0.7084  1.0931
23396SOL    HW271863   5.667   8.277   7.006 -0.2383  0.0044  0.7179
23397SOL     OW71864   3.764   7.696   3.061 -0.2612 -0.2840  0.2978
23397SOL    HW171865   3.784   7.746   3.140 -1.7057 -2.3195  2.0645
23397SOL    HW271866   3.669   7.681   3.065 -0.1452 -1.6582 -1.0613
23398SOL     OW71867   2.392   7.667   0.784  0.2015 -0.2955  0.7296
23398SOL    HW171868   2.394   7.629   0.872  0.8671  0.3332  1.0004
23398SOL    HW271869   2.483   7.687   0.764 -0.1323  1.3898  0.7197
23399SOL     OW71870   6.234   9.603   4.161 -0.1625 -0.4122 -0.6633
23399SOL    HW171871   6.294   9.663   4.207  1.2033 -1.1528 -1.4053
23399SOL    HW271872   6.163   9.587   4.224  0.5879  0.2376  0.3834
23400SOL     OW71873   1.995   8.054   7.888 -0.3580 -0.3969 -0.4732
23400SOL    HW171874   1.969   7.989   7.952 -0.3697 -0.3760 -0.4560
23400SOL    HW271875   2.054   8.113   7.936 -0.9320  0.0337 -0.2865
23401SOL     OW71876   6.038   8.776   1.961  0.0175 -0.6394  0.4734
23401SOL    HW171877   5.978   8.717   2.007  1.3327 -1.1492  1.5900
23401SOL    HW271878   6.124   8.738   1.974  0.7976  1.0176  0.4140
23402SOL     OW71879   5.112   6.926   4.086 -0.5189  0.7316 -0.5182
23402SOL    HW171880   5.156   6.966   4.011 -0.2981  1.6451  0.0736
23402SOL    HW271881   5.120   6.991   4.156  0.2571 -0.5324  0.6400
23403SOL     OW71882   2.663   5.019   8.896 -0.4977 -0.3228  0.6402
23403SOL    HW171883   2.685   4.936   8.854 -2.1499 -1.4430  1.8975
23403SOL    HW271884   2.593   5.056   8.842  3.7392  3.2408 -3.3539
23404SOL     OW71885   7.314   7.219   1.050 -0.1430  0.6890  0.2902
23404SOL    HW171886   7.306   7.155   0.979 -0.7569  0.2779  0.7239
23404SOL    HW271887   7.239   7.277   1.038 -0.3955  0.4589  0.7635
23405SOL     OW71888   9.051   7.211   9.372 -0.2466  0.8399  0.2147
23405SOL    HW171889   8.967   7.169   9.351 -0.4149 -0.2310  2.7116
23405SOL    HW271890   9.109   7.138   9.393 -0.2979  1.6702  3.8572
23406SOL     OW71891   2.550   8.087   0.607 -0.4033 -0.1510  0.7137
23406SOL    HW171892   2.521   8.174   0.636 -0.2453 -0.1711  0.9350
23406SOL    HW271893   2.520   8.028   0.676 -1.2752 -0.3960  0.1493
23407SOL     OW71894   4.331   1.890   8.848 -0.0881  0.9510 -0.5791
23407SOL    HW171895   4.341   1.822   8.781  3.3454 -0.8975  1.5287
23407SOL    HW271896   4.252   1.864   8.896  0.2555 -0.6446 -0.8113
23408SOL     OW71897   2.321   5.148   4.421 -0.3956  0.9136 -0.5796
23408SOL    HW171898   2.350   5.209   4.489 -2.0764  0.9261  0.1540
23408SOL    HW271899   2.359   5.064   4.447 -1.1961  0.8702  0.5182
23409SOL     OW71900   7.349   1.076   2.911  0.0562 -0.1043 -0.7665
23409SOL    HW171901   7.349   1.094   2.817 -0.5045 -1.1886 -0.9908
23409SOL    HW271902   7.294   0.998   2.921 -0.3010  0.2803  0.5232
23410SOL     OW71903   6.461   0.196   2.026 -0.3258 -0.4246  0.2801
23410SOL    HW171904   6.477   0.226   1.936  1.4480 -1.1768  0.2956
23410SOL    HW271905   6.534   0.232   2.076 -1.1577 -0.2376  1.3892
23411SOL     OW71906   3.156   4.265   0.649  0.5761 -0.1711 -0.8621
23411SOL    HW171907   3.218   4.330   0.616  0.4870  1.1294  1.3455
23411SOL    HW271908   3.204   4.218   0.717 -0.6471  0.5403  0.5543
23412SOL     OW71909   5.829   2.678   9.579 -0.3202  0.1079  0.0564
23412SOL    HW171910   5.854   2.678   9.671  2.9183  0.6218 -0.7267
23412SOL    HW271911   5.828   2.770   9.553 -1.6175 -0.0002 -0.3896
23413SOL     OW71912   7.577   0.381   1.114  0.3801 -0.2092 -0.4806
23413SOL    HW171913   7.591   0.411   1.205  0.1060 -1.5242  0.0090
23413SOL    HW271914   7.506   0.437   1.082  0.5158  0.3100  0.0895
23414SOL     OW71915   6.855   3.066   9.601  0.5084 -0.0535 -0.0774
23414SOL    HW171916   6.883   3.131   9.665  0.4996  0.0564 -0.1847
23414SOL    HW271917   6.759   3.066   9.607  0.4694  0.4776 -0.5994
23415SOL     OW71918   7.495   2.484   3.469 -0.0854  0.2602 -0.5873
23415SOL    HW171919   7.578   2.507   3.510 -0.3104 -0.3082  0.2054
23415SOL    HW271920   7.506   2.391   3.446 -0.4896  0.1926 -0.5013
23416SOL     OW71921   1.900   8.364   8.117  0.3986  0.0052 -0.7771
23416SOL    HW171922   1.868   8.427   8.180  1.4376  0.7047 -0.9229
23416SOL    HW271923   1.835   8.293   8.118  1.5925 -1.2321  2.8997
23417SOL     OW71924   7.855   5.897   6.143  0.7645 -0.4130  0.0058
23417SOL    HW171925   7.840   5.991   6.137 -1.1822 -0.6050  0.9438
23417SOL    HW271926   7.941   5.888   6.184  0.0460  1.0130  1.9764
23418SOL     OW71927   7.490   2.533   6.012  0.2616 -0.3989 -0.9029
23418SOL    HW171928   7.518   2.563   5.926 -1.2425  0.8817 -0.9941
23418SOL    HW271929   7.395   2.548   6.013  0.0334 -1.6345  0.4988
23419SOL     OW71930   4.404   5.897   5.318 -0.2498 -0.2340 -0.4756
23419SOL    HW171931   4.478   5.947   5.283  0.3623  0.5415  1.8103
23419SOL    HW271932   4.327   5.943   5.285  0.1679 -1.4000 -3.4051
23420SOL     OW71933   4.635   4.722   7.524  0.2372  0.3785  0.1217
23420SOL    HW171934   4.576   4.715   7.449 -0.7609  0.1293  0.9036
23420SOL    HW271935   4.689   4.642   7.520 -1.3233 -0.7589  0.8978
23421SOL     OW71936   2.341   5.279   5.080  0.1344 -0.0545  0.2677
23421SOL    HW171937   2.315   5.333   5.006 -0.7541  0.2929  0.8201
23421SOL    HW271938   2.330   5.189   5.049  2.1382  0.0327 -0.8374
23422SOL     OW71939   5.288   9.248   0.531 -0.3051 -0.0240 -0.6187
23422SOL    HW171940   5.338   9.191   0.589  0.8695  1.6887  0.1277
23422SOL    HW271941   5.200   9.210   0.530 -0.0447 -0.7888  1.3245
23423SOL     OW71942   0.914   4.970   5.181  0.4281  0.8845  0.3986
23423SOL    HW171943   0.987   5.028   5.163 -0.7789  1.7334 -2.4165
23423SOL    HW271944   0.836   5.021   5.157 -0.6538 -2.0220 -3.2804
23424SOL     OW71945   7.221   6.290   9.048 -0.2299 -0.9012  0.7128
23424SOL    HW171946   7.160   6.254   8.984 -0.8848  1.6088 -0.1873
23424SOL    HW271947   7.196   6.248   9.131 -1.8830 -1.4035  0.0017
23425SOL     OW71948   0.064   2.061   6.721 -0.5245  0.4230 -0.1415
23425SOL    HW171949   0.105   2.085   6.638  0.3017  0.1942  0.1899
23425SOL    HW271950   0.003   1.991   6.697  1.0120 -0.9295 -0.3307
23426SOL     OW71951   7.230   0.273   4.763 -0.3099 -0.2247  0.5212
23426SOL    HW171952   7.269   0.201   4.813 -0.0911  0.8917  2.0355
23426SOL    HW271953   7.275   0.351   4.794 -0.2276  0.5615 -1.3968
23427SOL     OW71954   0.948   6.469   6.084  0.2107  0.2649  0.0814
23427SOL    HW171955   0.910   6.506   6.005 -1.0087 -0.7774  0.1486
23427SOL    HW271956   0.874   6.450   6.141  0.7969 -1.6462  0.3021
23428SOL     OW71957   9.634   5.603   1.674 -0.2773  0.1870  0.8961
23428SOL    HW171958   9.541   5.588   1.687 -0.0712 -1.3520  0.7813
23428SOL    HW271959   9.642   5.627   1.581 -0.4646 -0.7790  0.6150
23429SOL     OW71960   0.661   6.853   0.364 -0.2477 -0.0042  0.2336
23429SOL    HW171961   0.717   6.777   0.358  1.6049  1.3061  0.2046
23429SOL    HW271962   0.659   6.875   0.457 -2.3692 -1.1598  0.5321
23430SOL     OW71963   8.332   2.947   3.347 -0.2745 -0.3757  0.2619
23430SOL    HW171964   8.372   2.861   3.339  1.5531  0.3112  1.3919
23430SOL    HW271965   8.316   2.957   3.441 -0.1142  0.6358  0.1921
23431SOL     OW71966   0.857   7.139   7.393 -0.1715  0.2842  0.2538
23431SOL    HW171967   0.802   7.087   7.451 -1.8173 -0.5505 -1.9465
23431SOL    HW271968   0.813   7.137   7.309  1.9510  1.7201 -0.9957
23432SOL     OW71969   7.974   7.459   8.223 -0.7757  0.0785  0.4336
23432SOL    HW171970   8.049   7.517   8.208 -1.2316  0.3190 -1.0859
23432SOL    HW271971   7.978   7.395   8.152 -2.9479  1.1321 -0.7467
23433SOL     OW71972   0.424   2.151   6.006 -0.1367  0.3104 -0.1603
23433SOL    HW171973   0.440   2.244   6.024  0.7227 -0.3864  3.5672
23433SOL    HW271974   0.504   2.122   5.962  0.7163  0.9032  0.9065
23434SOL     OW71975   7.006   8.194   0.406 -0.1624 -0.3392 -0.9741
23434SOL    HW171976   6.963   8.135   0.467 -2.9545 -0.4968 -2.9048
23434SOL    HW271977   7.049   8.137   0.343  0.7358 -0.2118 -0.4894
23435SOL     OW71978   6.808   6.798   9.268 -0.0160 -0.1659 -0.1762
23435SOL    HW171979   6.868   6.774   9.338  0.1241  0.6393 -0.0187
23435SOL    HW271980   6.828   6.735   9.198  0.0190 -0.8072  0.3983
23436SOL     OW71981   7.756   2.632   8.413 -0.0747 -0.0371  0.2466
23436SOL    HW171982   7.810   2.629   8.334 -0.0166 -0.9600  0.3222
23436SOL    HW271983   7.814   2.668   8.480 -0.0965  0.6643 -0.0924
23437SOL     OW71984   6.896   4.464   0.415  0.3491 -0.5588  0.3068
23437SOL    HW171985   6.860   4.523   0.349  0.5644  0.1813  0.8316
23437SOL    HW271986   6.949   4.402   0.365  0.5366  0.0096 -0.2193
23438SOL     OW71987   8.299   6.787   5.046 -0.5080 -0.0036  0.5334
23438SOL    HW171988   8.286   6.755   4.957  0.3998  0.6032  0.1588
23438SOL    HW271989   8.250   6.727   5.102  1.2433 -2.1237 -0.1136
23439SOL     OW71990   6.646   1.386   1.857  0.0407  0.2193  0.5763
23439SOL    HW171991   6.605   1.304   1.884  0.9577 -0.6799 -0.6453
23439SOL    HW271992   6.731   1.386   1.900 -0.1960  0.8415  1.0598
23440SOL     OW71993   7.986   5.867   7.861  0.1580  0.3993 -0.3274
23440SOL    HW171994   8.038   5.813   7.801  0.1087 -0.2593  0.1970
23440SOL    HW271995   7.906   5.815   7.876 -0.4244  1.1635 -0.7222
23441SOL     OW71996   3.616   9.311   4.177 -0.0634 -0.4411  0.2320
23441SOL    HW171997   3.594   9.223   4.147  0.9899 -0.7635  0.3657
23441SOL    HW271998   3.707   9.304   4.207 -0.2225  0.5055  0.9707
23442SOL     OW71999   6.950   2.799   0.451  0.3656  0.1094  0.2148
23442SOL    HW172000   6.888   2.863   0.485  0.7165  1.0320 -0.8183
23442SOL    HW272001   6.898   2.720   0.439 -0.3550  0.5419  0.4184
23443SOL     OW72002   8.510   5.750   5.119  0.0083  0.4239 -0.5992
23443SOL    HW172003   8.443   5.818   5.109 -1.5814 -0.9616  0.2081
23443SOL    HW272004   8.469   5.670   5.086 -0.0755 -1.2012  2.9981
23444SOL     OW72005   9.604   0.085   3.400 -0.4906  0.3343 -0.1628
23444SOL    HW172006   9.651   0.168   3.393  0.6664 -0.4441 -3.4374
23444SOL    HW272007   9.513   0.110   3.416 -0.1393  2.2436 -0.8879
23445SOL     OW72008   9.267   5.680   8.766  0.1421  0.3723 -0.1419
23445SOL    HW172009   9.332   5.617   8.796 -2.2930 -3.2550 -1.6775
23445SOL    HW272010   9.318   5.750   8.724  3.0613 -0.2028  2.1573
23446SOL     OW72011   5.233   4.325   3.516  0.3043 -0.2045  0.0678
23446SOL    HW172012   5.252   4.371   3.434  3.8270 -2.1606 -0.3777
23446SOL    HW272013   5.253   4.233   3.498 -0.2314 -0.9463  2.7491
23447SOL     OW72014   0.234   8.310   5.496 -0.0960 -0.0114  0.1810
23447SOL    HW172015   0.294   8.331   5.568  0.5054 -1.2999  0.0881
23447SOL    HW272016   0.258   8.370   5.426  0.4154  0.1590  0.5005
23448SOL     OW72017   2.360   3.564   6.948  0.3764  0.6515 -0.0509
23448SOL    HW172018   2.361   3.585   7.042  1.3465 -2.9751  0.9166
23448SOL    HW272019   2.321   3.477   6.944  0.6270  0.5766 -3.0336
23449SOL     OW72020   2.583   8.791   3.354 -0.1213 -0.0352  0.0498
23449SOL    HW172021   2.532   8.712   3.374  1.2151 -0.9213  0.0696
23449SOL    HW272022   2.542   8.826   3.275 -0.5867 -0.8723 -0.0954
23450SOL     OW72023   7.236   1.033   1.916 -0.1909 -0.7080 -0.0968
23450SOL    HW172024   7.298   1.066   1.850  0.7306 -0.4556  0.8717
23450SOL    HW272025   7.154   1.079   1.897  0.2030 -0.2564 -0.7535
23451SOL     OW72026   5.327   9.561   6.725 -0.0944 -0.3483  0.5522
23451SOL    HW172027   5.271   9.504   6.777 -0.0826 -0.9245 -0.0534
23451SOL    HW272028   5.409   9.512   6.716 -0.6621 -1.0319 -1.4160
23452SOL     OW72029   4.282   5.194   6.877 -0.5713 -0.2124  0.4457
23452SOL    HW172030   4.199   5.218   6.919 -2.0382 -0.0828 -2.2984
23452SOL    HW272031   4.288   5.253   6.802  2.6508  0.5567  1.1602
23453SOL     OW72032   7.796   3.555   8.889 -0.5188  0.6028 -0.3655
23453SOL    HW172033   7.825   3.593   8.972  0.1063 -1.1666  0.2514
23453SOL    HW272034   7.806   3.461   8.900 -0.9204  0.2954 -2.2749
23454SOL     OW72035   8.073   5.890   6.714  0.1119  0.1972 -0.2615
23454SOL    HW172036   7.999   5.892   6.775  0.9168 -0.0628  0.7415
23454SOL    HW272037   8.148   5.866   6.768  1.1140  1.4054 -1.0761
23455SOL     OW72038   3.563   2.971   4.436  0.0879 -0.3865  0.1696
23455SOL    HW172039   3.533   2.897   4.383  2.0891 -0.3771 -1.0619
23455SOL    HW272040   3.495   3.037   4.426 -0.5473 -1.1505 -0.7093
23456SOL     OW72041   7.458   0.007   0.392  0.1300 -0.0016 -0.0373
23456SOL    HW172042   7.474   0.037   0.302 -2.1751  0.0830 -0.4939
23456SOL    HW272043   7.466  -0.088   0.388 -0.1180 -0.0106 -0.3881
23457SOL     OW72044   1.465   2.873   4.172  0.7527  0.5752 -0.3424
23457SOL    HW172045   1.536   2.924   4.211 -0.3720  1.5677  0.4737
23457SOL    HW272046   1.467   2.895   4.079  1.8411  0.1612 -0.4330
23458SOL     OW72047   0.462   2.402   6.901 -0.3657  0.3119 -0.2425
23458SOL    HW172048   0.405   2.326   6.891  1.8930 -1.6918  0.9868
23458SOL    HW272049   0.476   2.433   6.812 -0.2976 -1.5874 -0.9390
23459SOL     OW72050   3.740   9.522   8.795  0.0718  0.2084  0.1009
23459SOL    HW172051   3.698   9.461   8.856 -0.8912  0.3673 -0.3849
23459SOL    HW272052   3.824   9.482   8.774 -0.6558 -1.0915 -0.4232
23460SOL     OW72053   4.538   0.105   2.911 -0.5182 -0.1735  0.7685
23460SOL    HW172054   4.485   0.148   2.978  0.3688 -0.5188  1.7281
23460SOL    HW272055   4.569   0.177   2.855 -0.6454  0.2214  1.1937
23461SOL     OW72056   9.585   4.375   1.002 -0.2711 -0.2070  0.1363
23461SOL    HW172057   9.659   4.355   0.944 -0.1801  1.4106 -0.3364
23461SOL    HW272058   9.566   4.467   0.987 -0.9290 -0.0034  1.9276
23462SOL     OW72059   2.333   1.241   9.162 -0.0618 -0.0463 -0.0783
23462SOL    HW172060   2.245   1.238   9.199 -0.2458  0.7811 -0.4486
23462SOL    HW272061   2.391   1.231   9.238 -0.4592 -0.5758  0.1681
23463SOL     OW72062   1.613   2.866   8.764  0.0653  0.1099 -0.3416
23463SOL    HW172063   1.616   2.941   8.705 -0.3039  0.2432 -0.1941
23463SOL    HW272064   1.623   2.790   8.707 -1.9870  0.1442 -0.8030
23464SOL     OW72065   2.442   7.562   9.443  0.3146 -0.4829  0.1338
23464SOL    HW172066   2.415   7.646   9.407 -0.2432 -0.0082  1.6050
23464SOL    HW272067   2.536   7.571   9.458  1.0593 -1.4424 -3.1003
23465SOL     OW72068   6.845   2.071   0.611 -0.0429  0.0849 -0.2344
23465SOL    HW172069   6.921   2.018   0.587  1.4000  1.7832  0.3200
23465SOL    HW272070   6.841   2.139   0.544  0.4347  1.4101  1.0185
23466SOL     OW72071   1.693   8.582   3.604 -0.2045  0.0798  0.0840
23466SOL    HW172072   1.771   8.588   3.549  0.1328  1.0672  0.6372
23466SOL    HW272073   1.668   8.673   3.621 -1.1403 -0.2178  0.3884
23467SOL     OW72074   7.955   6.547   3.864  0.1720  0.2891 -0.3604
23467SOL    HW172075   8.014   6.604   3.912  2.1070 -2.1391  0.3840
23467SOL    HW272076   7.884   6.528   3.925  1.1240 -0.4971  0.5261
23468SOL     OW72077   6.310   0.093   2.423  0.2315 -0.8814 -0.6871
23468SOL    HW172078   6.229   0.106   2.473  0.9412 -1.4264  0.6384
23468SOL    HW272079   6.367   0.044   2.481  1.1392 -1.4530 -2.0105
23469SOL     OW72080   3.588   6.679   0.515  0.4111  0.1727  0.4383
23469SOL    HW172081   3.558   6.598   0.476 -0.5955  1.4785 -1.6768
23469SOL    HW272082   3.684   6.676   0.506  0.4558 -1.0912  1.1265
23470SOL     OW72083   1.619   9.208   7.161 -0.3211  0.1872 -0.1355
23470SOL    HW172084   1.525   9.222   7.162 -0.0820  2.1076  1.5897
23470SOL    HW272085   1.631   9.121   7.200 -1.3804 -0.4815 -1.2375
23471SOL     OW72086   3.091   0.218   7.994 -0.5142 -0.5503  0.0982
23471SOL    HW172087   3.141   0.188   7.918  0.5423 -0.6272  0.7930
23471SOL    HW272088   3.157   0.258   8.051 -1.7257  2.7485 -0.5591
23472SOL     OW72089   7.262   4.615   3.029 -0.0756  0.1501  0.3322
23472SOL    HW172090   7.313   4.696   3.031  1.4159 -0.7137 -0.4614
23472SOL    HW272091   7.281   4.573   3.113  1.9170 -0.9184 -0.5693
23473SOL     OW72092   7.574   6.992   4.272  0.2408 -1.0459 -0.0447
23473SOL    HW172093   7.543   6.914   4.227 -0.0262 -1.2544  0.5013
23473SOL    HW272094   7.501   7.019   4.328  0.4014 -0.5182 -0.0777
23474SOL     OW72095   2.698   5.419   6.697  0.4523  0.3242  0.2528
23474SOL    HW172096   2.791   5.423   6.720  0.8146 -0.7014 -0.9752
23474SOL    HW272097   2.692   5.465   6.613  0.5398 -2.7733 -1.5756
23475SOL     OW72098   2.863   4.394   6.350 -0.1852 -0.7046  0.1890
23475SOL    HW172099   2.840   4.476   6.394  1.0032 -0.4421  0.3475
23475SOL    HW272100   2.863   4.415   6.257  3.8763  0.6141  0.2777
23476SOL     OW72101   8.052   5.231   2.153 -0.2344 -0.0554  0.2845
23476SOL    HW172102   8.130   5.176   2.158  1.1983  1.5066 -2.4826
23476SOL    HW272103   7.980   5.168   2.143  0.7752 -1.4952  1.5331
23477SOL     OW72104   4.531   6.582   9.335  0.2703 -0.3035 -0.5280
23477SOL    HW172105   4.587   6.659   9.344  0.7679 -0.8722  1.8001
23477SOL    HW272106   4.590   6.511   9.311  0.2282 -0.4755 -0.1333
23478SOL     OW72107   6.052   3.463   2.852  0.8229 -0.3590 -0.1492
23478SOL    HW172108   6.001   3.426   2.924  0.6731  0.5533  0.2293
23478SOL    HW272109   6.002   3.440   2.774 -0.4273  0.8543  0.2420
23479SOL     OW72110   6.752   4.441   4.996 -0.2649  0.1389 -0.9756
23479SOL    HW172111   6.761   4.527   4.956  2.9976  0.4706  0.1929
23479SOL    HW272112   6.842   4.411   5.010 -1.1922 -1.6093  2.5040
23480SOL     OW72113   0.169   2.253   1.076  0.4307 -0.1741 -0.3554
23480SOL    HW172114   0.077   2.279   1.070  0.8586  2.3419  2.0222
23480SOL    HW272115   0.218   2.334   1.063  2.3695 -1.4214 -1.3933
23481SOL     OW72116   6.683   9.116   1.013  0.5418  0.1348  0.3955
23481SOL    HW172117   6.619   9.174   0.972 -0.4528  0.6874  2.5794
23481SOL    HW272118   6.766   9.140   0.974 -0.3479  0.5015 -1.3650
23482SOL     OW72119   4.346   6.653   5.473 -1.1544  0.0832  0.8926
23482SOL    HW172120   4.340   6.565   5.435 -2.5961 -0.1896  1.6344
23482SOL    HW272121   4.262   6.693   5.452 -0.5434  1.2624  0.6487
23483SOL     OW72122   5.270   8.849   0.661  0.0478 -0.5530  0.1506
23483SOL    HW172123   5.312   8.872   0.578  0.3139 -1.7993 -0.0787
23483SOL    HW272124   5.329   8.883   0.728  0.5363 -0.7405 -0.1784
23484SOL     OW72125   8.843   5.077   5.700  0.8451 -0.0302 -0.4649
23484SOL    HW172126   8.932   5.112   5.689  0.8286  0.2803  0.2788
23484SOL    HW272127   8.841   4.999   5.644  1.1601  0.6796 -1.4828
23485SOL     OW72128   9.046   8.680   1.738  0.0531 -0.0087  0.2355
23485SOL    HW172129   8.981   8.633   1.791 -0.3018 -0.6724 -0.7472
23485SOL    HW272130   9.090   8.611   1.688  1.5669  0.4306  0.9117
23486SOL     OW72131   2.976   4.678   8.861  0.0040  0.0654 -0.3923
23486SOL    HW172132   3.023   4.649   8.783 -0.5950  0.0150 -0.7429
23486SOL    HW272133   2.992   4.610   8.926  0.1510 -0.1111 -0.6099
23487SOL     OW72134   6.239   1.974   8.920 -0.9067  0.0263 -0.1780
23487SOL    HW172135   6.325   2.012   8.903 -0.5089 -0.1952  1.1481
23487SOL    HW272136   6.227   1.985   9.015 -1.2913 -2.0582  0.0652
23488SOL     OW72137   3.763   1.126   6.305  0.7985 -0.3924  0.5927
23488SOL    HW172138   3.744   1.107   6.213  0.6104  0.3805  0.4639
23488SOL    HW272139   3.856   1.105   6.315  1.0570  0.3847 -0.0206
23489SOL     OW72140   0.756   3.431   3.107  0.5346  0.1616  0.2837
23489SOL    HW172141   0.776   3.388   3.190  1.4131  0.6845  0.3541
23489SOL    HW272142   0.731   3.359   3.049  0.8444 -0.3177  0.7331
23490SOL     OW72143   7.957   8.220   8.433 -0.0105 -0.0376  0.1929
23490SOL    HW172144   7.974   8.161   8.360  2.2027 -0.2985  0.8275
23490SOL    HW272145   7.948   8.163   8.509  1.3323  0.3347  0.6755
23491SOL     OW72146   7.511   8.331   0.928  0.0886  0.2145  0.6323
23491SOL    HW172147   7.522   8.412   0.879 -0.9497  1.9999  3.1484
23491SOL    HW272148   7.601   8.302   0.946  0.4883 -0.1335 -1.6008
23492SOL     OW72149   2.939   4.755   3.632  0.1231 -0.4652 -0.4120
23492SOL    HW172150   2.955   4.748   3.727  0.6358  1.0887 -0.3664
23492SOL    HW272151   2.847   4.777   3.625  0.4800  1.2180 -0.1627
23493SOL     OW72152   8.369   3.249   5.453 -0.9632 -0.0486 -0.4418
23493SOL    HW172153   8.348   3.342   5.453  0.6632  0.3454  0.2497
23493SOL    HW272154   8.291   3.207   5.490 -1.3715  1.1230  0.0540
23494SOL     OW72155   3.882   7.588   4.620  0.1919 -0.0861  0.0020
23494SOL    HW172156   3.945   7.519   4.597  0.6713  0.9402 -2.0196
23494SOL    HW272157   3.929   7.669   4.603 -1.0065  0.7381  0.4971
23495SOL     OW72158   3.717   8.579   1.878  0.0405  0.7300  0.5969
23495SOL    HW172159   3.756   8.620   1.801 -1.7315  2.0581  0.3225
23495SOL    HW272160   3.772   8.504   1.896  0.8080  0.6647 -1.6746
23496SOL     OW72161   7.366   3.411   8.634 -0.2394 -0.7279 -0.1507
23496SOL    HW172162   7.313   3.490   8.631 -0.0854 -0.5810  0.5930
23496SOL    HW272163   7.450   3.440   8.671 -0.5807 -1.4297  1.2582
23497SOL     OW72164   4.742   4.688   5.579  0.3886  0.5198 -0.1283
23497SOL    HW172165   4.776   4.774   5.555  3.1570 -0.3814  0.1840
23497SOL    HW272166   4.724   4.694   5.672  1.9928  0.4087  0.2239
23498SOL     OW72167   3.325   3.814   3.805 -0.1326  1.3484 -0.9201
23498SOL    HW172168   3.412   3.846   3.827  0.0130 -0.4068  1.4779
23498SOL    HW272169   3.270   3.843   3.878 -0.9348  0.1230 -1.0138
23499SOL     OW72170   0.986   7.865   5.380  0.3843 -0.5055  0.2349
23499SOL    HW172171   1.050   7.905   5.321  0.6550 -0.1306  0.7832
23499SOL    HW272172   0.967   7.932   5.445  0.1852 -0.9646  0.6553
23500SOL     OW72173   3.113   2.230   1.950 -0.4034 -0.7986  0.5387
23500SOL    HW172174   3.075   2.161   2.003  0.9735 -1.1394  1.1192
23500SOL    HW272175   3.191   2.190   1.911  0.1882  0.2936  0.5654
23501SOL     OW72176   5.034   9.331   4.981  0.2602 -0.0948 -0.0345
23501SOL    HW172177   5.047   9.258   4.920 -0.1543 -0.0170 -0.2153
23501SOL    HW272178   5.067   9.298   5.065 -1.4743 -1.1135  0.2864
23502SOL     OW72179   8.027   5.355   7.101  0.0394 -0.2238  0.1195
23502SOL    HW172180   7.991   5.415   7.167  1.7766  2.2672 -1.0513
23502SOL    HW272181   7.974   5.371   7.023 -0.4555 -1.3867  0.2002
23503SOL     OW72182   3.440   1.276   0.058 -0.5042 -0.2263 -0.1253
23503SOL    HW172183   3.508   1.257  -0.006  1.4165 -0.0589  1.7624
23503SOL    HW272184   3.373   1.323   0.009 -1.3518 -3.9295 -3.0477
23504SOL     OW72185   6.697   5.720   9.192  0.1535  0.2809 -0.5290
23504SOL    HW172186   6.754   5.650   9.159 -0.6195 -0.3877 -0.4905
23504SOL    HW272187   6.706   5.714   9.287  1.5082  1.4664 -0.5483
23505SOL     OW72188   5.523   6.170   5.365 -0.2332  0.6503  0.5093
23505SOL    HW172189   5.549   6.115   5.438 -2.3157 -0.8348  0.2100
23505SOL    HW272190   5.443   6.214   5.394 -0.8345  0.3907 -0.6760
23506SOL     OW72191   4.065   8.280   2.094  0.0154  0.8005  0.4987
23506SOL    HW172192   4.131   8.218   2.126 -1.1049 -0.7499 -0.0514
23506SOL    HW272193   4.076   8.357   2.150  2.6942  0.8794 -0.0092
23507SOL     OW72194   5.165   0.918   6.994  0.0291 -0.4331 -0.2213
23507SOL    HW172195   5.074   0.928   7.021  0.8928 -0.7239  3.2831
23507SOL    HW272196   5.171   0.828   6.963 -0.8666 -0.4499 -0.3574
23508SOL     OW72197   3.661   6.271   0.141  0.1739 -0.3896 -0.3237
23508SOL    HW172198   3.696   6.335   0.080 -0.0072 -0.3802 -0.4185
23508SOL    HW272199   3.728   6.203   0.147  0.1962 -0.3847 -0.5229
23509SOL     OW72200   5.325   3.507   7.483 -0.6262  0.8449  0.4270
23509SOL    HW172201   5.333   3.446   7.410 -0.6577  0.3849  0.8056
23509SOL    HW272202   5.415   3.526   7.509 -0.6038 -0.6048  1.5888
23510SOL     OW72203   1.347   5.239   6.567  0.0410  0.2103  0.2814
23510SOL    HW172204   1.368   5.330   6.548  0.0802  0.5329  1.7473
23510SOL    HW272205   1.263   5.242   6.612 -0.1865 -0.5287 -0.0740
23511SOL     OW72206   4.820   5.349   5.740 -0.8109  0.6781 -0.1065
23511SOL    HW172207   4.783   5.418   5.795 -0.5729 -0.4148  1.4869
23511SOL    HW272208   4.751   5.331   5.676 -0.6608  2.7436 -0.9304
23512SOL     OW72209   7.712   2.428   4.080 -0.0240  0.5178 -0.4326
23512SOL    HW172210   7.619   2.413   4.061 -0.4121  0.2881  1.4907
23512SOL    HW272211   7.746   2.340   4.097 -0.0963  0.8248  1.4707
23513SOL     OW72212   3.986   9.287   8.794 -0.3191 -0.4369  0.4782
23513SOL    HW172213   3.965   9.289   8.887 -0.0015 -0.3294  0.5494
23513SOL    HW272214   4.055   9.353   8.783 -1.7165  1.0078 -0.1849
23514SOL     OW72215   1.871   2.491   6.786  0.4127  0.4152  0.2121
23514SOL    HW172216   1.904   2.411   6.828  0.6497  0.6763  0.5242
23514SOL    HW272217   1.782   2.469   6.758 -0.2244  0.6420  1.9739
23515SOL     OW72218   9.480   7.883   4.471 -0.1126  0.0585 -0.1621
23515SOL    HW172219   9.505   7.806   4.420  1.4225 -0.3186  1.1002
23515SOL    HW272220   9.384   7.879   4.473 -0.0816 -2.7773  1.2284
23516SOL     OW72221   6.909   9.600   7.498  0.0766 -0.4919 -0.4038
23516SOL    HW172222   6.826   9.560   7.474 -0.0318 -0.3896 -0.1954
23516SOL    HW272223   6.886   9.685   7.535  0.0639 -1.4926  2.0666
23517SOL     OW72224   0.418   8.701   5.561  0.1730 -0.0955  0.0042
23517SOL    HW172225   0.453   8.715   5.649 -0.7461  1.2912  0.1685
23517SOL    HW272226   0.491   8.664   5.512  0.8172 -0.5134  1.2351
23518SOL     OW72227   0.283   9.139   4.076  0.2284  0.3641  0.3442
23518SOL    HW172228   0.267   9.055   4.118  2.5405 -1.9581 -2.9232
23518SOL    HW272229   0.208   9.151   4.016  1.2741 -0.9594 -1.3064
23519SOL     OW72230   1.821   5.593   0.008 -0.2250  0.6311 -0.0757
23519SOL    HW172231   1.784   5.681   0.007 -0.6982  0.4739  1.2196
23519SOL    HW272232   1.899   5.602   0.064 -0.6006  0.1084  0.5300
23520SOL     OW72233   3.422   2.700   5.668  0.0633  0.6359 -0.3177
23520SOL    HW172234   3.430   2.634   5.737 -0.1813 -0.1556 -1.0232
23520SOL    HW272235   3.444   2.782   5.711  1.4719 -0.0392  0.3263
23521SOL     OW72236   2.764   1.287   1.679  0.0585 -0.3953 -0.2223
23521SOL    HW172237   2.846   1.336   1.675  1.0828 -2.0113 -0.0352
23521SOL    HW272238   2.715   1.316   1.602  1.4270 -0.4001 -1.1324
23522SOL     OW72239   7.167   2.715   1.991  0.1778  0.9255 -0.0386
23522SOL    HW172240   7.164   2.647   2.058  0.0854 -1.6317 -2.4264
23522SOL    HW272241   7.133   2.793   2.033  0.6425 -0.3831  2.9868
23523SOL     OW72242   6.987   4.656   2.990  0.1673 -0.0085  0.2333
23523SOL    HW172243   7.078   4.626   2.991 -0.1116 -0.8558  0.9319
23523SOL    HW272244   6.938   4.583   2.951 -0.7004 -1.0777  3.0791
23524SOL     OW72245   8.661   4.875   3.918 -0.3583 -0.1769  0.0775
23524SOL    HW172246   8.592   4.937   3.941  1.7359  2.3013  0.1487
23524SOL    HW272247   8.693   4.842   4.003  0.8424  1.4122  0.2796
23525SOL     OW72248   6.439   8.081   6.143 -0.0247 -0.4649 -0.1078
23525SOL    HW172249   6.382   8.154   6.121 -0.5849 -0.9675 -0.3268
23525SOL    HW272250   6.464   8.098   6.234  2.1967  1.5397 -0.9859
23526SOL     OW72251   1.482   3.252   3.760  0.5234  0.1739  0.3610
23526SOL    HW172252   1.425   3.321   3.726  2.1021  0.8235 -1.0564
23526SOL    HW272253   1.479   3.184   3.693  2.1304  0.6202 -0.1891
23527SOL     OW72254   1.020   8.767   3.122  0.1924 -0.0808 -0.1182
23527SOL    HW172255   1.031   8.862   3.127  0.4073 -0.1580  1.7770
23527SOL    HW272256   0.933   8.754   3.086  0.5124  0.8074 -1.2657
23528SOL     OW72257   1.877   1.381   0.875  0.1363 -0.8329 -0.3540
23528SOL    HW172258   1.898   1.467   0.913 -3.7034  0.1622 -0.0766
23528SOL    HW272259   1.912   1.385   0.786  1.4812  0.3109  0.1795
23529SOL     OW72260   2.438   3.085   1.553 -0.4827  0.1260 -0.0758
23529SOL    HW172261   2.360   3.034   1.574  0.9855 -2.2712 -0.0474
23529SOL    HW272262   2.500   3.062   1.622  0.6629  0.9775 -0.7909
23530SOL     OW72263   5.062   3.181   4.691 -0.1579  0.0848  0.5818
23530SOL    HW172264   5.026   3.229   4.617  0.0361 -0.1730  0.3158
23530SOL    HW272265   5.111   3.109   4.651 -0.0335 -0.0437  0.9601
23531SOL     OW72266   1.778   2.777   4.219 -0.5523 -0.7036  0.3667
23531SOL    HW172267   1.731   2.728   4.286 -0.8492  0.3286  0.9304
23531SOL    HW272268   1.756   2.869   4.236 -1.1719 -0.4503 -1.5567
23532SOL     OW72269   3.949   1.338   0.174 -0.3692  0.2161  0.0643
23532SOL    HW172270   3.995   1.417   0.205  0.6760 -0.1472 -0.5332
23532SOL    HW272271   3.933   1.288   0.254 -2.4089  1.6802  0.6817
23533SOL     OW72272   3.053   8.085   1.272  0.4120 -0.5053 -0.6493
23533SOL    HW172273   2.980   8.137   1.306 -0.3610 -1.4285 -0.8668
23533SOL    HW272274   3.068   8.120   1.185  1.2849  0.7331 -0.0368
23534SOL     OW72275   4.159   7.938   0.325 -0.4591  0.2729  0.2361
23534SOL    HW172276   4.155   7.980   0.239  1.4087 -0.3939 -0.2170
23534SOL    HW272277   4.089   7.980   0.376 -0.8405  1.4928 -1.2378
23535SOL     OW72278   1.440   1.829   8.157  0.7135  0.6418 -0.2274
23535SOL    HW172279   1.517   1.821   8.214  1.0184  1.1783 -0.5469
23535SOL    HW272280   1.452   1.760   8.091  1.3420  1.2215 -0.7395
23536SOL     OW72281   0.058   7.772   3.146  0.2479  0.3261 -0.1210
23536SOL    HW172282   0.056   7.790   3.240  0.6421  1.3384 -0.2887
23536SOL    HW272283  -0.027   7.804   3.114 -0.8480 -2.0603  0.1979
23537SOL     OW72284   5.283   7.106   9.602 -0.2311  0.2164 -0.0372
23537SOL    HW172285   5.252   7.043   9.537  1.8487 -0.4794 -0.4315
23537SOL    HW272286   5.207   7.123   9.657 -1.0360 -2.1479 -0.3119
23538SOL     OW72287   6.482   2.792   5.299  0.5016  0.0391  0.7690
23538SOL    HW172288   6.397   2.751   5.315  0.0898 -0.3191 -1.8004
23538SOL    HW272289   6.462   2.885   5.286 -0.0057 -0.3903 -2.3449
23539SOL     OW72290   2.658   0.105   5.648  0.0914 -0.2386  0.1631
23539SOL    HW172291   2.563   0.115   5.657  0.1071 -1.3953  2.3323
23539SOL    HW272292   2.687   0.187   5.610 -1.6005  0.8328  1.0426
23540SOL     OW72293   1.110   8.340   8.105 -0.2530  0.2855 -0.0796
23540SOL    HW172294   1.124   8.429   8.137 -1.2050  0.6221 -0.5488
23540SOL    HW272295   1.180   8.289   8.145  0.8125  1.3966 -0.4570
23541SOL     OW72296   5.232   3.567   2.401 -0.3734  0.1668  0.2379
23541SOL    HW172297   5.215   3.474   2.388 -2.4897  0.7040 -1.4871
23541SOL    HW272298   5.155   3.599   2.448 -0.5566  1.3365 -0.8004
23542SOL     OW72299   1.011   6.753   6.156  0.4952 -0.0286  0.0689
23542SOL    HW172300   0.975   6.669   6.184 -0.3913 -0.0865 -1.1795
23542SOL    HW272301   0.981   6.815   6.223  0.2850 -0.5188  0.4347
23543SOL     OW72302   2.175   7.715   9.669 -0.0450 -0.0000  0.4753
23543SOL    HW172303   2.219   7.683   9.748  0.2334 -0.5763  0.0998
23543SOL    HW272304   2.194   7.648   9.603 -0.2245  0.5014 -0.0943
23544SOL     OW72305   2.140   4.017   7.907  0.5934  0.3841 -0.6195
23544SOL    HW172306   2.161   4.092   7.962  0.7000  1.1455 -1.6608
23544SOL    HW272307   2.108   3.951   7.967  2.2123  0.6106  0.5512
23545SOL     OW72308   7.536   4.839   9.089 -0.0624  0.0951 -0.7907
23545SOL    HW172309   7.529   4.763   9.032 -2.3712 -1.5801  1.5180
23545SOL    HW272310   7.560   4.804   9.175  5.5014  2.6881 -0.8014
23546SOL     OW72311   5.216   9.052   5.467 -0.2122  0.0935 -0.0988
23546SOL    HW172312   5.254   9.084   5.548 -0.7511 -0.5176  0.4147
23546SOL    HW272313   5.134   9.010   5.494 -1.5134  1.7586 -1.2049
23547SOL     OW72314   6.555   0.586   4.078  0.4147  0.0443  0.4607
23547SOL    HW172315   6.578   0.641   4.003  1.0456  0.0300  0.6405
23547SOL    HW272316   6.568   0.642   4.154  2.3877 -0.7275  0.7468
23548SOL     OW72317   8.168   6.049   9.042  0.5655 -0.4339 -0.1618
23548SOL    HW172318   8.150   6.060   9.135 -0.4823 -0.6109 -0.3316
23548SOL    HW272319   8.188   6.137   9.010 -0.6999 -0.1030 -0.0904
23549SOL     OW72320   1.780   1.438   2.145  0.5622  0.1821  0.1044
23549SOL    HW172321   1.733   1.498   2.204  0.2221 -0.0674  0.0858
23549SOL    HW272322   1.767   1.476   2.058 -1.0530 -0.8050 -0.1163
23550SOL     OW72323   8.208   4.652   6.899  0.0142  0.5439 -0.2496
23550SOL    HW172324   8.140   4.584   6.900  2.5437 -2.1390 -0.1003
23550SOL    HW272325   8.167   4.725   6.853 -3.7511  0.0256  1.8268
23551SOL     OW72326   3.414   4.946   2.106  0.4812  0.0643 -0.4289
23551SOL    HW172327   3.456   4.890   2.170  1.7302  2.4904  1.0272
23551SOL    HW272328   3.407   4.892   2.027  2.1582 -1.8907  0.6734
23552SOL     OW72329   3.907   8.311   3.311  0.1585 -0.6548  0.3652
23552SOL    HW172330   3.912   8.358   3.228  0.1979 -1.5656 -0.1628
23552SOL    HW272331   3.994   8.320   3.350  0.4312 -1.0181 -0.1480
23553SOL     OW72332   5.471   7.783   7.716  0.1474  0.6951 -0.2872
23553SOL    HW172333   5.447   7.797   7.807  1.3454  2.2231 -0.1563
23553SOL    HW272334   5.434   7.698   7.694 -1.5142  0.9903  1.1381
23554SOL     OW72335   9.118   4.486   7.641  0.1613 -0.0634  0.4901
23554SOL    HW172336   9.065   4.564   7.623  0.0149 -0.0528  0.9375
23554SOL    HW272337   9.080   4.450   7.721 -0.3817 -1.1482 -0.2437
23555SOL     OW72338   0.189   0.485   6.361 -0.3906 -0.3564  0.3270
23555SOL    HW172339   0.128   0.481   6.287 -0.5033 -2.0832  0.4906
23555SOL    HW272340   0.269   0.523   6.324 -0.9791  0.3241 -0.2847
23556SOL     OW72341   4.375   3.567   9.657  0.1954  0.7700 -0.7254
23556SOL    HW172342   4.415   3.519   9.729  0.8178 -0.0664 -1.5990
23556SOL    HW272343   4.312   3.626   9.699  1.0685  0.8445  0.5510
23557SOL     OW72344   5.748   8.922   3.899  0.4796  0.6720  0.2750
23557SOL    HW172345   5.784   8.940   3.986 -1.0692  1.3016  0.8188
23557SOL    HW272346   5.764   9.002   3.849 -0.1305  0.9420  0.5084
23558SOL     OW72347   2.181   9.194   7.838  0.2714 -0.5934  0.2389
23558SOL    HW172348   2.140   9.110   7.854  0.1703 -0.7649 -0.8576
23558SOL    HW272349   2.148   9.251   7.908  1.3072 -1.7572  1.7482
23559SOL     OW72350   7.112   3.315   2.979  0.4118 -0.0920  0.6738
23559SOL    HW172351   7.190   3.350   3.024 -0.2990  0.3368  1.6139
23559SOL    HW272352   7.083   3.387   2.923  0.1773  0.0717  1.0027
23560SOL     OW72353   6.504   6.452   1.085  0.0110  0.0173  0.6382
23560SOL    HW172354   6.480   6.508   1.011 -0.2299 -1.0099 -0.0792
23560SOL    HW272355   6.599   6.461   1.092  0.3142 -1.2839 -1.0146
23561SOL     OW72356   3.411   5.766   1.799 -0.3521 -0.0043 -0.9511
23561SOL    HW172357   3.316   5.772   1.803 -0.3390  0.2303 -0.9645
23561SOL    HW272358   3.429   5.673   1.794 -0.6279 -0.0202 -1.9892
23562SOL     OW72359   8.169   2.990   7.758  0.2574 -0.1046  0.6885
23562SOL    HW172360   8.181   2.983   7.852  0.7641 -0.0850  0.6278
23562SOL    HW272361   8.256   2.975   7.721 -0.0614 -0.7697  0.1858
23563SOL     OW72362   9.146   5.098   7.560  0.2664  0.1063 -0.3719
23563SOL    HW172363   9.122   5.008   7.538 -1.5559 -0.0698  1.9430
23563SOL    HW272364   9.087   5.152   7.507 -0.5004 -0.1447  0.2195
23564SOL     OW72365   4.611   1.189   5.613 -0.6801  0.2498  0.0950
23564SOL    HW172366   4.662   1.135   5.553 -1.0856 -0.9856  0.8274
23564SOL    HW272367   4.641   1.278   5.596  2.1828 -0.4583  0.9312
23565SOL     OW72368   3.327   0.413   1.383  0.3496 -0.4014 -0.0608
23565SOL    HW172369   3.272   0.484   1.349  1.9674  0.1582 -1.7279
23565SOL    HW272370   3.416   0.438   1.357  1.3296 -1.6126  1.9026
23566SOL     OW72371   5.996   9.545   0.556  0.0280 -0.3607 -0.0783
23566SOL    HW172372   6.027   9.567   0.468 -2.1241 -0.7012 -0.9826
23566SOL    HW272373   5.988   9.629   0.600 -2.5343  0.2839 -1.5581
23567SOL     OW72374   1.312   8.951   2.883  0.5678 -0.0779 -0.2178
23567SOL    HW172375   1.346   9.037   2.855  0.8778 -0.6371 -1.6859
23567SOL    HW272376   1.292   8.962   2.975  1.1407  1.4175 -0.2370
23568SOL     OW72377   4.408   6.274   4.171  0.0794 -0.1376 -0.2446
23568SOL    HW172378   4.442   6.199   4.220  0.0977  0.1083  0.1274
23568SOL    HW272379   4.486   6.328   4.155  0.2558 -0.7191 -1.4672
23569SOL     OW72380   8.965   2.099   1.578 -0.0775  0.2861  0.1650
23569SOL    HW172381   9.017   2.028   1.540 -0.0808 -0.3111  1.2267
23569SOL    HW272382   8.874   2.074   1.558 -0.0554  0.2440  0.1158
23570SOL     OW72383   9.652   8.996   0.876  0.2395  0.3871  0.3157
23570SOL    HW172384   9.716   8.930   0.848  0.3033  0.5599  0.0452
23570SOL    HW272385   9.705   9.073   0.897  0.0125  1.1883 -1.7794
23571SOL     OW72386   8.739   7.835   4.853 -0.0100  0.0987 -0.1338
23571SOL    HW172387   8.811   7.897   4.855  0.5168 -0.5152  0.7746
23571SOL    HW272388   8.755   7.777   4.928 -0.5614 -1.0268 -0.8562
23572SOL     OW72389   7.498   6.669   2.222  0.1110  0.5819 -0.1664
23572SOL    HW172390   7.433   6.692   2.288  0.2637  1.4843 -0.3213
23572SOL    HW272391   7.552   6.602   2.264  0.0068  0.9080  0.5094
23573SOL     OW72392   2.215   0.910   4.979 -0.0830 -0.3691  0.4335
23573SOL    HW172393   2.231   0.841   4.915  1.2353 -0.0592  0.4140
23573SOL    HW272394   2.129   0.889   5.016 -0.8491 -0.5911 -1.3696
23574SOL     OW72395   5.802   4.028   9.152  0.1113 -0.0331  0.5236
23574SOL    HW172396   5.729   4.087   9.170 -1.1124 -1.4361  0.3335
23574SOL    HW272397   5.830   4.050   9.063  1.9387  2.5177  1.6033
23575SOL     OW72398   1.370   0.980   0.819  0.2970  0.0477  0.1764
23575SOL    HW172399   1.439   0.976   0.886  0.0294  3.3214  0.8400
23575SOL    HW272400   1.289   0.981   0.869 -0.0191  0.2317 -0.3386
23576SOL     OW72401   5.113   1.442   0.472 -0.3003 -0.0813 -0.0757
23576SOL    HW172402   5.124   1.485   0.557 -0.7013  3.5681 -1.6835
23576SOL    HW272403   5.028   1.473   0.440 -0.7973 -2.4804 -1.2676
23577SOL     OW72404   2.683   7.878   5.324 -0.3011  0.7592  0.0435
23577SOL    HW172405   2.634   7.843   5.250  0.2170  0.3923 -0.1296
23577SOL    HW272406   2.774   7.869   5.298 -0.0950  0.0541  0.9833
23578SOL     OW72407   7.247   5.759   0.403  0.1348  0.3375  0.4574
23578SOL    HW172408   7.292   5.699   0.463  2.0709  0.8419 -0.3982
23578SOL    HW272409   7.236   5.839   0.454  0.4242  0.2775  0.6179
23579SOL     OW72410   1.735   7.290   7.832 -0.8664  0.4541  0.0524
23579SOL    HW172411   1.652   7.337   7.835 -0.7392  0.7965 -1.4593
23579SOL    HW272412   1.797   7.347   7.879 -1.9128 -0.8729  3.3989
23580SOL     OW72413   4.585   4.227   5.131  0.2327 -0.1317  0.0835
23580SOL    HW172414   4.625   4.294   5.186 -0.1939 -0.7601  1.1773
23580SOL    HW272415   4.514   4.272   5.086  1.1024  0.5883 -0.6186
23581SOL     OW72416   2.468   4.207   4.280  0.2909 -0.1236  0.1661
23581SOL    HW172417   2.472   4.226   4.187  1.7147  0.4149  0.3074
23581SOL    HW272418   2.559   4.212   4.309  0.1162 -2.0447  1.2410
23582SOL     OW72419   5.956   8.217   6.953  0.6357  0.5238 -0.3802
23582SOL    HW172420   5.949   8.121   6.956  2.3073  0.3829  1.1569
23582SOL    HW272421   5.955   8.238   6.860  0.7675 -1.0429 -0.7728
23583SOL     OW72422   5.339   7.207   7.186 -0.0270  0.6877 -0.8555
23583SOL    HW172423   5.289   7.288   7.193 -2.4908 -0.8582  1.6512
23583SOL    HW272424   5.346   7.175   7.277  3.7754 -0.3239 -1.3163
23584SOL     OW72425   4.978   5.844   8.538  0.0822 -0.0217 -0.1004
23584SOL    HW172426   5.062   5.862   8.495 -0.7611  1.7614 -1.1095
23584SOL    HW272427   4.977   5.901   8.615 -0.5056  0.5104 -0.4973
23585SOL     OW72428   2.548   2.387   9.609 -0.0266  0.1397 -0.0508
23585SOL    HW172429   2.595   2.304   9.602  0.1666  0.2114  0.3518
23585SOL    HW272430   2.456   2.363   9.603 -0.0124 -0.2080  0.9154
23586SOL     OW72431   2.085   0.167   6.382  0.3501  0.2218 -0.3758
23586SOL    HW172432   2.172   0.133   6.362 -0.1701 -1.2031 -0.3800
23586SOL    HW272433   2.079   0.249   6.334  1.7829  0.4751 -0.1648
23587SOL     OW72434   5.062   1.290   1.314 -0.1687 -0.0490  0.2885
23587SOL    HW172435   5.101   1.327   1.393  0.9992  0.0029 -0.2977
23587SOL    HW272436   5.110   1.209   1.299 -0.3485 -0.0348 -0.3867
23588SOL     OW72437   1.302   0.443   3.285  0.0265 -0.2195 -0.2034
23588SOL    HW172438   1.393   0.468   3.304 -0.4249  1.6242 -0.3375
23588SOL    HW272439   1.296   0.352   3.314  1.2443  0.3615  2.0849
23589SOL     OW72440   1.696   2.161   2.212 -0.0516  0.4350  0.6074
23589SOL    HW172441   1.696   2.215   2.290 -1.3769 -1.1010  1.7438
23589SOL    HW272442   1.719   2.073   2.244 -0.6400 -0.2284 -0.7037
23590SOL     OW72443   6.274   1.600   6.466 -0.1155 -0.7014 -0.1586
23590SOL    HW172444   6.183   1.631   6.465  0.0425 -0.0542  1.9671
23590SOL    HW272445   6.307   1.620   6.378 -1.4001  0.9886 -0.3020
23591SOL     OW72446   8.384   3.501   8.111 -0.3639 -0.9548  0.0199
23591SOL    HW172447   8.384   3.429   8.173  0.1556  0.1078  1.3112
23591SOL    HW272448   8.475   3.506   8.080 -0.9321 -2.4603 -2.0716
23592SOL     OW72449   2.205   0.248   0.346  0.6704  0.4228  0.0956
23592SOL    HW172450   2.155   0.249   0.265  0.1769  0.0702  0.3913
23592SOL    HW272451   2.139   0.245   0.416  1.0806  0.8808  0.5214
23593SOL     OW72452   3.803   5.234   0.999  0.0518 -0.0438  0.0539
23593SOL    HW172453   3.751   5.164   0.959  0.1724 -0.7345  1.0611
23593SOL    HW272454   3.887   5.194   1.017 -0.2923 -0.0575  1.8264
23594SOL     OW72455   6.139   3.375   8.557 -0.2687 -0.2840 -0.1805
23594SOL    HW172456   6.113   3.412   8.472  1.6152  0.9408 -0.2769
23594SOL    HW272457   6.234   3.366   8.551  0.1288  1.4145  2.3869
23595SOL     OW72458   0.175   7.534   8.701 -0.5139  0.1451 -0.5973
23595SOL    HW172459   0.160   7.521   8.794 -0.2056  1.8329 -0.2873
23595SOL    HW272460   0.122   7.610   8.679  0.1361  0.3267 -1.6001
23596SOL     OW72461   6.457   6.361   4.954  0.3084  0.1028  0.3468
23596SOL    HW172462   6.515   6.293   4.990 -0.6407  0.5777  2.9965
23596SOL    HW272463   6.439   6.418   5.028 -3.0361  0.3266 -0.5089
23597SOL     OW72464   6.100   0.388   9.190 -0.6360 -0.2523  0.3032
23597SOL    HW172465   6.126   0.444   9.263 -5.2029  0.5068  1.6835
23597SOL    HW272466   6.089   0.301   9.227  0.6175 -0.7590 -0.4416
23598SOL     OW72467   8.911   2.406   1.874  0.3156 -0.0470 -0.5637
23598SOL    HW172468   8.921   2.500   1.887 -0.2692 -0.1821  1.0652
23598SOL    HW272469   8.912   2.395   1.779 -1.6778  1.8547 -0.8828
23599SOL     OW72470   8.375   2.780   8.363  0.5737 -0.6160 -0.1168
23599SOL    HW172471   8.419   2.761   8.445 -3.3309  1.0555  2.7103
23599SOL    HW272472   8.327   2.700   8.342  0.2078 -0.4945  0.2427
23600SOL     OW72473   6.737   8.612   8.403  0.2237  0.0462  0.0166
23600SOL    HW172474   6.681   8.684   8.433 -2.4689 -1.5968 -0.6719
23600SOL    HW272475   6.737   8.551   8.477  1.3895  0.1438  0.1053
23601SOL     OW72476   2.059   6.281   3.983  0.6891  0.2679 -0.6058
23601SOL    HW172477   2.074   6.191   4.010  0.7788  1.0285  2.1899
23601SOL    HW272478   2.001   6.274   3.907  0.4127 -2.1089 -0.2519
23602SOL     OW72479   1.370   0.527   8.192  0.6266  0.7140  0.8668
23602SOL    HW172480   1.407   0.472   8.262  1.3054  1.5461  1.1706
23602SOL    HW272481   1.401   0.615   8.211 -0.2943  1.1823  0.2644
23603SOL     OW72482   3.789   8.466   6.505 -0.6562 -0.3106 -0.2460
23603SOL    HW172483   3.823   8.555   6.516  1.4010 -0.9857 -0.6576
23603SOL    HW272484   3.829   8.435   6.424  0.9632 -2.5567  1.2765
23604SOL     OW72485   6.302   6.047   8.184  0.2762 -0.8701 -0.0432
23604SOL    HW172486   6.373   6.022   8.243 -0.8389 -1.1025  1.2626
23604SOL    HW272487   6.307   6.142   8.180  1.0976 -0.9231 -0.5589
23605SOL     OW72488   5.311   8.227   1.535 -0.1586 -0.2919  0.5665
23605SOL    HW172489   5.251   8.248   1.607  0.2464  1.5589  0.4198
23605SOL    HW272490   5.372   8.163   1.572 -0.2509  0.2666  1.7325
23606SOL     OW72491   9.019   7.040   8.170  0.1852  0.1979 -0.2483
23606SOL    HW172492   8.929   7.056   8.141 -0.3620  0.8485  1.6798
23606SOL    HW272493   9.040   6.953   8.135 -1.9233 -0.8343  0.8712
23607SOL     OW72494   1.754   1.869   4.046 -0.0129  0.1429 -0.1665
23607SOL    HW172495   1.764   1.946   3.990  0.8440  0.6447  0.6627
23607SOL    HW272496   1.760   1.902   4.135 -0.2230 -0.8080  0.2149
23608SOL     OW72497   4.329   6.122   6.859 -0.1351  0.7535  0.3496
23608SOL    HW172498   4.259   6.116   6.924 -1.1738 -0.2490 -0.7923
23608SOL    HW272499   4.295   6.184   6.794  0.1005  0.3646 -0.1482
23609SOL     OW72500   2.205   8.354   1.234  0.0019  0.0526  0.6823
23609SOL    HW172501   2.122   8.401   1.238  0.4143  1.0694 -1.4183
23609SOL    HW272502   2.185   8.268   1.272 -1.3808  1.0415  2.3566
23610SOL     OW72503   6.457   3.319   2.804  0.2280 -0.3521  0.3072
23610SOL    HW172504   6.462   3.273   2.887  2.0088  0.2132  0.5636
23610SOL    HW272505   6.427   3.407   2.826 -1.0329 -0.7183  0.1027
23611SOL     OW72506   4.688   2.756   4.428  0.2338 -0.5576  0.0633
23611SOL    HW172507   4.701   2.663   4.407  1.7527 -0.7214  1.4384
23611SOL    HW272508   4.668   2.756   4.522  0.1744  0.5035  0.0562
23612SOL     OW72509   4.519   2.917   4.301  0.2063  0.2963 -0.6912
23612SOL    HW172510   4.570   2.849   4.345 -3.4382 -3.4276 -1.6525
23612SOL    HW272511   4.558   2.924   4.214 -0.4527 -2.1047 -1.2447
23613SOL     OW72512   1.330   1.921   2.109 -0.0490 -0.2387  0.2684
23613SOL    HW172513   1.283   2.004   2.104  1.5837  0.7415  0.8410
23613SOL    HW272514   1.359   1.915   2.200  3.6672  0.7876 -0.6852
23614SOL     OW72515   5.770   8.017   7.334 -0.0564 -0.1401 -0.0752
23614SOL    HW172516   5.822   7.957   7.388  0.3321  0.3813  0.1323
23614SOL    HW272517   5.693   7.966   7.310 -0.0385 -0.5169  0.6346
23615SOL     OW72518   4.556   8.830   6.651  0.7554  0.9755 -0.4036
23615SOL    HW172519   4.556   8.901   6.716  2.6930  1.5060 -0.9422
23615SOL    HW272520   4.645   8.828   6.617  0.7411 -1.7086 -0.4670
23616SOL     OW72521   6.559   1.521   7.472 -0.4135  0.0035 -0.1916
23616SOL    HW172522   6.562   1.477   7.387  0.3525  0.8051 -0.6040
23616SOL    HW272523   6.480   1.575   7.469 -0.8663 -0.6527 -0.0430
23617SOL     OW72524   8.971   4.708   3.147  0.3701  0.1633 -0.3718
23617SOL    HW172525   8.950   4.615   3.144 -1.1085  0.4679 -0.0969
23617SOL    HW272526   9.065   4.711   3.168  0.4501 -1.2521 -0.4598
23618SOL     OW72527   6.792   5.587   8.310 -0.2867 -0.0131  0.1304
23618SOL    HW172528   6.720   5.525   8.318 -0.5431  0.3660  0.8846
23618SOL    HW272529   6.864   5.536   8.274 -0.6940 -0.5880  0.1138
23619SOL     OW72530   5.956   4.480   8.447 -0.1590 -0.0614 -0.2218
23619SOL    HW172531   5.896   4.426   8.497  0.7855  0.1542  1.2026
23619SOL    HW272532   5.906   4.559   8.425 -0.8943 -0.5989 -0.5301
23620SOL     OW72533   4.802   1.544   4.785  0.1506  0.2576 -0.2131
23620SOL    HW172534   4.728   1.587   4.740  1.4008  3.3501  0.4533
23620SOL    HW272535   4.880   1.578   4.740  1.2854 -2.3785 -0.4297
23621SOL     OW72536   5.430   0.792   5.457  0.1306  0.0377  0.3826
23621SOL    HW172537   5.362   0.856   5.477  0.1425  0.0806  0.2836
23621SOL    HW272538   5.393   0.708   5.485 -0.9028 -0.2858 -1.7896
23622SOL     OW72539   0.078   6.827   5.959  0.2364 -0.0836  0.2389
23622SOL    HW172540   0.171   6.842   5.938 -0.6688  2.4043 -2.8514
23622SOL    HW272541   0.058   6.892   6.026  0.4683  0.2374  0.0004
23623SOL     OW72542   2.001   5.447   4.705 -0.3844 -0.5852  0.5062
23623SOL    HW172543   1.942   5.383   4.743  0.5626 -2.7363 -1.3900
23623SOL    HW272544   1.952   5.487   4.634 -0.1628 -1.0785  0.0691
23624SOL     OW72545   8.741   0.080   1.825  0.0230  0.0757 -0.2070
23624SOL    HW172546   8.703   0.147   1.768  2.5605  2.1718  0.3902
23624SOL    HW272547   8.671   0.016   1.836 -1.7851  1.4491 -2.6594
23625SOL     OW72548   2.173   4.299   9.343 -0.4451 -0.1333  0.7647
23625SOL    HW172549   2.212   4.360   9.280  0.3171  0.3100  1.6359
23625SOL    HW272550   2.149   4.354   9.418 -2.1844 -0.5023  0.5262
23626SOL     OW72551   1.674   4.266   7.096 -0.0834 -0.1901 -0.4484
23626SOL    HW172552   1.666   4.172   7.081 -0.1145  0.2277 -3.7249
23626SOL    HW272553   1.583   4.297   7.096 -0.0189 -0.0051 -0.5766
23627SOL     OW72554   3.189   0.997   5.790 -0.5763 -0.0651 -0.3394
23627SOL    HW172555   3.171   1.066   5.854 -1.1432  0.4078 -0.9958
23627SOL    HW272556   3.241   0.933   5.838 -0.4717  0.5748  0.4248
23628SOL     OW72557   0.223   4.931   0.591 -0.1424 -0.8518  0.5643
23628SOL    HW172558   0.168   5.005   0.570  0.2555 -0.2446  1.5646
23628SOL    HW272559   0.307   4.969   0.616  0.8322 -1.7600 -1.1040
23629SOL     OW72560   4.672   2.127   3.123  0.0032  0.2234  0.8906
23629SOL    HW172561   4.746   2.096   3.072  0.3166 -0.9840  2.0029
23629SOL    HW272562   4.709   2.192   3.183  0.3046 -0.7208  1.7727
23630SOL     OW72563   2.769   1.896   0.266 -0.6816 -0.0900 -1.0758
23630SOL    HW172564   2.730   1.951   0.334 -1.2082 -0.4930 -1.0478
23630SOL    HW272565   2.861   1.923   0.264 -0.6567 -0.0808 -0.2004
23631SOL     OW72566   5.865   1.750   1.114 -0.2462  0.4902 -0.1755
23631SOL    HW172567   5.824   1.672   1.150  0.0753  0.4031  0.0106
23631SOL    HW272568   5.823   1.823   1.159  0.0210  0.3898  0.2409
23632SOL     OW72569   7.061   3.764   4.439 -0.2593 -0.5854 -0.2923
23632SOL    HW172570   7.129   3.739   4.502 -0.1603  2.8695  1.1621
23632SOL    HW272571   6.979   3.740   4.481 -0.1142 -0.4218  0.0809
23633SOL     OW72572   1.568   9.430   2.029 -0.3792 -0.0426 -0.0306
23633SOL    HW172573   1.496   9.466   1.978 -1.1602  2.2898  2.4885
23633SOL    HW272574   1.528   9.400   2.110  1.0793 -1.7256  0.1226
23634SOL     OW72575   4.282   6.511   3.920 -0.4702 -0.3258  0.0056
23634SOL    HW172576   4.349   6.464   3.970 -0.5095  1.8596  2.3509
23634SOL    HW272577   4.314   6.511   3.830  1.0413 -2.0819  0.4916
23635SOL     OW72578   6.415   4.290   5.885  0.0357  0.4150 -0.0946
23635SOL    HW172579   6.428   4.256   5.796 -0.7192  0.6519 -0.3047
23635SOL    HW272580   6.320   4.285   5.899  0.2079 -0.3204  0.9886
23636SOL     OW72581   8.227   0.990   2.161  0.3729 -0.3422 -0.3094
23636SOL    HW172582   8.167   1.035   2.220 -0.2967  0.5749 -1.6445
23636SOL    HW272583   8.311   0.992   2.206  0.4055  2.3746 -0.3407
23637SOL     OW72584   9.289   4.659   1.611  0.5816  0.7846 -0.0404
23637SOL    HW172585   9.260   4.711   1.535 -0.8817 -0.7169 -0.5900
23637SOL    HW272586   9.384   4.665   1.609  0.8669 -1.5125 -3.8176
23638SOL     OW72587   8.834   0.955   5.570 -0.0998  0.1747  0.3534
23638SOL    HW172588   8.807   0.996   5.487 -0.4628  1.1421  0.9351
23638SOL    HW272589   8.896   0.887   5.544 -0.3948  0.3043 -0.7364
23639SOL     OW72590   5.590   3.082   6.862 -0.0884 -0.4439  0.1278
23639SOL    HW172591   5.541   3.103   6.782  1.6802  1.2427 -0.5968
23639SOL    HW272592   5.581   3.161   6.915 -1.5583 -1.6876  1.8279
23640SOL     OW72593   8.024   8.885   5.240 -0.3572  0.2539 -0.1282
23640SOL    HW172594   7.948   8.861   5.293 -0.6161  2.6736  0.7420
23640SOL    HW272595   7.993   8.959   5.187  1.7225  2.3723  1.3888
23641SOL     OW72596   1.462   6.134   0.703 -0.1302  0.1001  0.1309
23641SOL    HW172597   1.544   6.152   0.656  0.7574 -0.7978  1.2408
23641SOL    HW272598   1.402   6.203   0.674  0.4465 -0.2201 -2.0292
23642SOL     OW72599   2.653   8.552   4.407 -0.5107  0.1227 -0.1662
23642SOL    HW172600   2.696   8.519   4.486 -0.7561  0.7581  0.2402
23642SOL    HW272601   2.720   8.604   4.363 -0.4886  0.0906 -0.1700
23643SOL     OW72602   6.908   2.934   7.644 -0.0857  0.1189  0.4330
23643SOL    HW172603   6.818   2.901   7.637 -1.6231  3.8787  0.2153
23643SOL    HW272604   6.922   2.947   7.738 -1.0411  2.4195  0.3102
23644SOL     OW72605   0.071   9.027   5.403 -0.1006 -0.5859  0.5407
23644SOL    HW172606  -0.008   9.020   5.457 -0.5861 -1.7658 -0.2744
23644SOL    HW272607   0.142   8.999   5.460 -0.3148  0.0728  1.1540
23645SOL     OW72608   2.679   4.020   2.224  0.0692 -0.4649 -0.0140
23645SOL    HW172609   2.701   4.098   2.274  0.0050 -1.3978  1.5125
23645SOL    HW272610   2.742   3.954   2.254 -1.6546 -1.7845  0.8087
23646SOL     OW72611   2.053   0.347   5.636  0.1303 -0.0283  0.7314
23646SOL    HW172612   2.029   0.257   5.658 -1.0403  0.0555 -0.0942
23646SOL    HW272613   2.118   0.338   5.566 -1.7307 -0.2780 -1.0783
23647SOL     OW72614   9.050   4.932   6.462  0.2265  0.3536 -0.2858
23647SOL    HW172615   8.956   4.917   6.448  0.2574  0.6861 -0.8759
23647SOL    HW272616   9.060   4.930   6.557 -0.8552  2.9310 -0.0174
23648SOL     OW72617   1.693   9.523   1.496 -0.2223 -0.0990  0.3025
23648SOL    HW172618   1.733   9.501   1.411 -1.1682 -1.6351  0.2060
23648SOL    HW272619   1.675   9.616   1.491 -0.2808 -0.1653 -1.2112
23649SOL     OW72620   2.274   4.796   5.888  0.0996  0.1160  0.5425
23649SOL    HW172621   2.362   4.769   5.862  0.3806  0.5880  0.9880
23649SOL    HW272622   2.259   4.879   5.841  0.6694  1.0525  1.9469
23650SOL     OW72623   8.546   3.752   1.950  0.1586  0.3141 -0.0577
23650SOL    HW172624   8.624   3.697   1.944 -1.6864 -2.3904 -2.1328
23650SOL    HW272625   8.512   3.736   2.038  2.1340  1.9705  1.0843
23651SOL     OW72626   9.279   1.048   9.410 -0.0838  0.4624  0.3944
23651SOL    HW172627   9.337   1.044   9.333 -0.7997  0.1549 -0.1387
23651SOL    HW272628   9.267   0.956   9.434 -0.3449  0.5295  0.5099
23652SOL     OW72629   0.503   6.984   4.544  0.4486  0.6905 -0.1295
23652SOL    HW172630   0.564   6.990   4.617  2.1776  1.3416 -1.5516
23652SOL    HW272631   0.557   6.997   4.466 -1.7893  3.4124 -1.3992
23653SOL     OW72632   5.321   1.326   0.323 -0.2430  0.2551  0.9604
23653SOL    HW172633   5.278   1.252   0.279 -0.1707  1.3277 -1.0591
23653SOL    HW272634   5.249   1.378   0.359 -0.5056  0.6272 -0.0563
23654SOL     OW72635   7.624   0.370   6.965  0.6332 -0.7784 -1.3098
23654SOL    HW172636   7.658   0.341   6.881 -0.0259 -0.6264 -1.6387
23654SOL    HW272637   7.533   0.340   6.966  0.0628  0.8398 -1.4697
23655SOL     OW72638   1.831   3.753   1.560 -0.4703  0.1710 -0.7622
23655SOL    HW172639   1.839   3.711   1.646 -0.3222 -0.4547 -1.0703
23655SOL    HW272640   1.920   3.781   1.539 -0.6654  1.1579 -0.3102
23656SOL     OW72641   8.509   4.650   6.265  0.1488 -0.0093  0.5500
23656SOL    HW172642   8.432   4.594   6.279  1.0294 -1.2258  0.7036
23656SOL    HW272643   8.491   4.728   6.316 -0.6964 -0.5700  1.1389
23657SOL     OW72644   9.027   2.962   4.762 -0.5784 -0.0305 -0.6953
23657SOL    HW172645   9.000   3.006   4.843  0.8124  1.4007 -0.9362
23657SOL    HW272646   8.980   3.008   4.693  0.8231  1.1218 -0.9426
23658SOL     OW72647   1.012   3.513   8.109  0.4267 -0.1599  0.2781
23658SOL    HW172648   1.045   3.464   8.185  0.1831  0.6220  0.8981
23658SOL    HW272649   0.936   3.560   8.143  1.0732  1.2106 -0.1297
23659SOL     OW72650   3.145   7.600   3.942 -1.2269 -0.0607  0.1896
23659SOL    HW172651   3.176   7.630   4.027  0.5808 -1.5327  0.1050
23659SOL    HW272652   3.050   7.611   3.946 -0.9620  2.6396  1.2751
23660SOL     OW72653   1.795   4.487   5.697  0.2167  0.1490 -0.0431
23660SOL    HW172654   1.801   4.397   5.729 -0.7805 -0.6007 -1.8421
23660SOL    HW272655   1.806   4.480   5.602  1.1347  2.0552 -0.1256
23661SOL     OW72656   3.934   5.401   2.989 -0.8555  0.3622 -0.2605
23661SOL    HW172657   3.870   5.382   3.057 -0.0658  0.3919  0.4983
23661SOL    HW272658   3.911   5.340   2.918 -0.4416 -1.1062  0.8207
23662SOL     OW72659   6.517   4.195   7.910 -0.2249  0.0425 -0.0765
23662SOL    HW172660   6.558   4.280   7.926 -0.3547 -0.1428  1.3157
23662SOL    HW272661   6.501   4.194   7.815  0.9081  1.0459 -0.3033
23663SOL     OW72662   7.417   3.196   2.136 -0.0668 -0.1181  0.0849
23663SOL    HW172663   7.486   3.259   2.152 -0.8295  1.9497 -3.6230
23663SOL    HW272664   7.440   3.155   2.052 -2.6693 -0.2086 -0.6872
23664SOL     OW72665   7.799   3.076   9.333  0.0859  0.4436  0.8589
23664SOL    HW172666   7.837   3.133   9.401 -1.8667  2.0047  0.7291
23664SOL    HW272667   7.769   2.999   9.381 -0.2638  1.0348  1.6203
23665SOL     OW72668   9.167   9.662   5.030  0.1515  0.1146  0.2299
23665SOL    HW172669   9.224   9.685   4.956 -0.3689 -0.5042 -0.3697
23665SOL    HW272670   9.150   9.746   5.073 -0.4083  0.6468 -0.9871
23666SOL     OW72671   1.225   0.053   2.124  0.6918  0.2367  0.0281
23666SOL    HW172672   1.266   0.128   2.166 -0.4635  1.3171 -0.6927
23666SOL    HW272673   1.145   0.088   2.085  1.0049 -0.9917 -1.8650
23667SOL     OW72674   1.425   7.696   3.097 -0.2915 -0.0646  0.5530
23667SOL    HW172675   1.513   7.660   3.108  0.3922  1.4187  0.3054
23667SOL    HW272676   1.369   7.641   3.150  1.3881  1.2109  3.9467
23668SOL     OW72677   2.034   2.977   5.712 -0.0668  0.6107 -0.3530
23668SOL    HW172678   2.048   2.897   5.661 -2.1934  0.6039 -0.9987
23668SOL    HW272679   2.048   3.048   5.649  0.3281  0.7128 -0.1550
23669SOL     OW72680   7.492   1.498   1.579 -0.1001  0.0672 -0.1951
23669SOL    HW172681   7.446   1.525   1.500  0.5322  0.6228 -0.3813
23669SOL    HW272682   7.494   1.402   1.574 -0.1755  0.0925 -0.7864
23670SOL     OW72683   9.461   8.798   4.661 -0.2203  0.0428 -0.0529
23670SOL    HW172684   9.377   8.773   4.625  0.4058  0.2623 -1.7511
23670SOL    HW272685   9.473   8.740   4.737 -0.4863 -2.2166 -1.6521
23671SOL     OW72686   4.970   5.284   0.129 -0.0880 -0.1464 -0.4458
23671SOL    HW172687   5.033   5.299   0.058  0.1742 -0.2724 -0.2431
23671SOL    HW272688   4.973   5.363   0.182  0.7236 -0.5885  0.1875
23672SOL     OW72689   8.326   6.623   7.325 -0.4749  0.1101  0.2567
23672SOL    HW172690   8.408   6.597   7.285 -0.0405  0.1074  1.1353
23672SOL    HW272691   8.301   6.704   7.279 -0.0598  0.0353 -0.1013
23673SOL     OW72692   2.894   5.925   0.057 -0.2032 -0.7649  0.1895
23673SOL    HW172693   2.956   5.991   0.088  0.7097 -1.4054 -0.2039
23673SOL    HW272694   2.909   5.919  -0.037 -0.7861 -1.0106  0.1066
23674SOL     OW72695   3.507   9.301   0.922 -0.1901  0.0647  0.0944
23674SOL    HW172696   3.577   9.295   0.987 -1.9881 -0.1906  2.1041
23674SOL    HW272697   3.540   9.249   0.847  2.3355  1.1618  0.3286
23675SOL     OW72698   6.227   7.190   9.148  0.3105  0.1987  0.0902
23675SOL    HW172699   6.285   7.266   9.144  2.1245 -1.0200  1.5717
23675SOL    HW272700   6.142   7.227   9.172  0.7283  1.9225 -0.8938
23676SOL     OW72701   8.000   7.640   3.578 -0.1377  0.0478  0.5513
23676SOL    HW172702   8.091   7.648   3.552  0.1352 -0.9875  1.1391
23676SOL    HW272703   7.961   7.724   3.554  1.1326  0.7837  0.9666
23677SOL     OW72704   6.641   2.351   4.691 -0.2732  0.9158 -0.2363
23677SOL    HW172705   6.623   2.351   4.597 -1.9653  0.6247  0.0561
23677SOL    HW272706   6.676   2.438   4.709 -1.9776  1.7494 -0.8018
23678SOL     OW72707   0.619   9.215   8.140  0.3896 -0.1022  0.2517
23678SOL    HW172708   0.619   9.144   8.204  0.1722  1.1873  1.7588
23678SOL    HW272709   0.660   9.178   8.062  0.9641 -1.6364  1.2442
23679SOL     OW72710   1.434   7.137   5.125  0.2500  0.5327 -0.2644
23679SOL    HW172711   1.363   7.108   5.182  1.1508 -1.9291 -0.2570
23679SOL    HW272712   1.510   7.146   5.183  1.2767 -2.3916 -0.9691
23680SOL     OW72713   1.812   9.273   2.142 -0.2347  0.3789  0.0117
23680SOL    HW172714   1.750   9.337   2.174 -0.4133  0.1919  0.0427
23680SOL    HW272715   1.801   9.197   2.201 -1.2553 -0.3435 -1.0771
23681SOL     OW72716   8.948   5.908   1.025  0.1905  0.0229 -0.0133
23681SOL    HW172717   8.867   5.933   0.980 -0.2032  1.1425  1.2534
23681SOL    HW272718   9.015   5.966   0.988  0.4575 -0.9395 -1.1000
23682SOL     OW72719   2.777   5.019   6.672  0.2506  0.6446 -0.3383
23682SOL    HW172720   2.789   5.088   6.607  0.3688 -0.1044 -1.1341
23682SOL    HW272721   2.722   5.058   6.740  1.2064  1.8478 -0.2339
23683SOL     OW72722   3.034   8.478   8.838 -0.4212 -0.1305 -0.1439
23683SOL    HW172723   3.124   8.508   8.849 -0.4309  0.2072 -0.9609
23683SOL    HW272724   3.002   8.524   8.760 -1.5468  0.3178  0.5640
23684SOL     OW72725   2.965   3.111   8.194  0.0405 -0.4332  0.2839
23684SOL    HW172726   2.926   3.197   8.179  0.4929  0.1120  2.1063
23684SOL    HW272727   2.889   3.052   8.203 -0.2935 -0.0237  0.1919
23685SOL     OW72728   2.947   3.823   0.111 -0.2241 -0.2307 -0.0576
23685SOL    HW172729   3.039   3.799   0.116  0.1432  1.2573  0.9187
23685SOL    HW272730   2.943   3.911   0.148 -2.0705 -0.3553  0.1362
23686SOL     OW72731   5.251   1.161   7.037 -0.1052 -0.2227  0.0599
23686SOL    HW172732   5.179   1.218   7.008  0.6633  0.2368 -1.0000
23686SOL    HW272733   5.222   1.072   7.016 -0.5453 -0.0777  0.0501
23687SOL     OW72734   9.437   4.427   4.858  0.0583 -0.3492  0.1866
23687SOL    HW172735   9.441   4.521   4.878 -1.6033 -0.3232  0.5346
23687SOL    HW272736   9.364   4.418   4.798  0.8612 -1.3091 -0.6840
23688SOL     OW72737   1.707   6.522   7.483  0.6671  0.4573 -0.3112
23688SOL    HW172738   1.642   6.463   7.520  3.0420 -1.3444  1.3279
23688SOL    HW272739   1.660   6.605   7.470 -2.3098 -1.1661 -0.8789
23689SOL     OW72740   7.052   2.359   8.259  0.2527  0.1076 -0.3873
23689SOL    HW172741   6.976   2.418   8.250 -0.2330 -0.4522 -0.0070
23689SOL    HW272742   7.125   2.410   8.224 -0.5184  0.1766 -1.9528
23690SOL     OW72743   6.964   4.466   8.891  0.0498 -0.1733  0.2120
23690SOL    HW172744   6.994   4.555   8.907 -1.2621  0.1734  0.8153
23690SOL    HW272745   7.037   4.411   8.921  0.9380  0.6844 -0.3305
23691SOL     OW72746   0.137   5.575   8.784 -0.0652 -0.3491 -0.4366
23691SOL    HW172747   0.161   5.648   8.841  0.6388 -0.4602 -0.5841
23691SOL    HW272748   0.131   5.500   8.843  0.3049 -0.3905 -0.4485
23692SOL     OW72749   4.576   8.130   8.560  0.6187  0.7128  0.0117
23692SOL    HW172750   4.554   8.045   8.600  3.2869 -0.4295 -0.7624
23692SOL    HW272751   4.608   8.183   8.633 -2.2025  1.6275  0.7381
23693SOL     OW72752   1.310   1.781   7.207  0.0109  0.0323  0.3156
23693SOL    HW172753   1.228   1.759   7.164  0.4815 -1.7271  0.2254
23693SOL    HW272754   1.286   1.843   7.276 -1.3560 -0.3314  0.1897
23694SOL     OW72755   6.700   0.699   9.513 -0.1825  0.1141 -0.0522
23694SOL    HW172756   6.794   0.717   9.520  0.0501 -1.1430  0.2754
23694SOL    HW272757   6.695   0.619   9.461 -0.8687 -1.5013  2.3163
23695SOL     OW72758   0.917   0.809   1.188  0.1817 -0.0422 -0.1506
23695SOL    HW172759   0.870   0.886   1.219 -1.5622 -1.2870  0.5043
23695SOL    HW272760   0.855   0.737   1.202  2.1815 -1.7402  0.3667
23696SOL     OW72761   7.728   4.330   9.056 -0.2854  0.2827 -0.1988
23696SOL    HW172762   7.654   4.359   9.110 -1.1572 -1.2374 -0.5098
23696SOL    HW272763   7.688   4.274   8.989  1.1891 -1.1408  0.0452
23697SOL     OW72764   5.117   7.674   4.149  0.0170 -0.3020 -0.7223
23697SOL    HW172765   5.106   7.600   4.089 -0.0275 -0.6724 -0.2585
23697SOL    HW272766   5.211   7.691   4.147 -0.0003 -0.2268 -0.9985
23698SOL     OW72767   6.450   6.944   7.887 -0.4532  0.2345  0.3165
23698SOL    HW172768   6.535   6.948   7.842 -0.5878  0.6604  0.0940
23698SOL    HW272769   6.395   6.890   7.831  0.5550 -2.7613  1.9711
23699SOL     OW72770   0.609   2.148   6.815 -0.2119 -0.1865 -0.1188
23699SOL    HW172771   0.679   2.143   6.880 -0.6554 -0.4315  0.3500
23699SOL    HW272772   0.544   2.207   6.855 -0.5676 -0.4808 -0.2609
23700SOL     OW72773   8.387   1.528   1.783 -0.7407 -0.0088  0.2905
23700SOL    HW172774   8.363   1.608   1.738  0.0281  1.2061  1.9281
23700SOL    HW272775   8.312   1.470   1.773 -1.8873  1.4445  0.2552
23701SOL     OW72776   7.463   8.300   2.017  0.1399 -0.2800  0.1146
23701SOL    HW172777   7.368   8.307   2.023  0.0815 -1.4632  0.9204
23701SOL    HW272778   7.482   8.311   1.924 -0.7801  0.0102 -0.0454
23702SOL     OW72779   3.800   0.017   2.794 -0.3447 -0.1307  0.2909
23702SOL    HW172780   3.851   0.054   2.722  0.4471  0.2874  1.0572
23702SOL    HW272781   3.730   0.081   2.811 -1.6075 -1.0326 -1.2316
23703SOL     OW72782   0.840   2.273   5.200  0.2090 -0.5236 -0.0549
23703SOL    HW172783   0.824   2.229   5.116 -0.1041 -0.6972  0.0952
23703SOL    HW272784   0.768   2.245   5.256  0.5323 -0.5692  0.3389
23704SOL     OW72785   5.985   3.919   8.007 -0.0529 -0.3606  0.1800
23704SOL    HW172786   5.985   3.833   8.048  0.3756 -0.4030  0.0987
23704SOL    HW272787   5.943   3.906   7.922  0.5430 -0.6169 -0.0824
23705SOL     OW72788   2.529   4.988   5.415  0.7162  0.7292  0.4407
23705SOL    HW172789   2.518   5.078   5.385  0.6297  0.2928 -0.9004
23705SOL    HW272790   2.572   4.943   5.342  1.5745 -0.1199  1.4285
23706SOL     OW72791   7.871   6.715   3.384 -0.0353 -0.1215 -0.0855
23706SOL    HW172792   7.868   6.792   3.328 -1.5214  1.1398  1.6027
23706SOL    HW272793   7.846   6.748   3.471  0.2218 -2.3416  0.8908
23707SOL     OW72794   2.819   1.770   5.193 -0.6323 -0.6951  0.2701
23707SOL    HW172795   2.726   1.747   5.186 -0.4912 -1.1540 -0.1664
23707SOL    HW272796   2.861   1.717   5.126 -0.4288  1.7211 -1.6145
23708SOL     OW72797   6.268   6.015   3.230 -0.3745  0.8091 -0.0754
23708SOL    HW172798   6.303   6.076   3.295  2.3305 -0.7836  0.1060
23708SOL    HW272799   6.342   5.995   3.173 -1.6213 -0.9861 -1.1891
23709SOL     OW72800   7.171   6.324   2.877 -0.4318  0.5975 -0.4155
23709SOL    HW172801   7.230   6.287   2.811  1.0995  1.7897  0.2270
23709SOL    HW272802   7.139   6.405   2.837  1.3029  1.8673  0.6075
23710SOL     OW72803   4.882   4.920   4.706 -0.5937  0.4033  0.1907
23710SOL    HW172804   4.881   4.868   4.787 -0.1120 -0.3157 -0.2582
23710SOL    HW272805   4.849   4.861   4.639 -0.1151  0.6916 -0.3087
23711SOL     OW72806   7.328   4.926   6.932 -0.1806  0.4438 -0.7081
23711SOL    HW172807   7.334   4.887   7.019  1.7017 -0.0321 -1.0063
23711SOL    HW272808   7.237   4.954   6.924 -0.6621 -0.5313  0.9660
23712SOL     OW72809   8.387   7.983   6.317  0.4270  0.5429  0.1900
23712SOL    HW172810   8.427   7.900   6.343  0.5180  0.8219  0.9782
23712SOL    HW272811   8.453   8.049   6.337  0.1699  0.8558  0.0226
23713SOL     OW72812   8.693   3.566   0.948  0.2041  0.2451 -0.1736
23713SOL    HW172813   8.745   3.535   0.874 -0.0827  0.2090 -0.3617
23713SOL    HW272814   8.624   3.619   0.908  1.6400  2.5550  0.2319
23714SOL     OW72815   0.692   9.383   0.033  0.5172  0.4646 -0.1378
23714SOL    HW172816   0.627   9.444  -0.001  0.6956  1.3674  1.1046
23714SOL    HW272817   0.689   9.309  -0.028 -0.1779  1.4026 -1.2856
23715SOL     OW72818   7.992   4.140   9.047  0.0937 -0.4225  0.3918
23715SOL    HW172819   7.989   4.142   9.143  2.8204 -0.0296  0.5652
23715SOL    HW272820   7.987   4.232   9.021 -2.4758 -0.6185 -0.0259
23716SOL     OW72821   9.581   4.798   8.195 -0.1056 -0.1055 -0.2723
23716SOL    HW172822   9.583   4.709   8.161 -0.9308 -0.6441  1.0307
23716SOL    HW272823   9.629   4.849   8.130 -2.7503 -0.8085 -2.9903
23717SOL     OW72824   9.622   2.889   2.807 -0.4900  0.3749 -0.5590
23717SOL    HW172825   9.697   2.899   2.748 -0.0477 -0.6518 -0.1878
23717SOL    HW272826   9.583   2.976   2.811  1.5050  1.2863  0.3323
23718SOL     OW72827   6.638   7.351   2.373  0.2895  0.5101  0.7500
23718SOL    HW172828   6.640   7.437   2.332  0.1258 -0.1257 -0.6209
23718SOL    HW272829   6.704   7.300   2.326  1.9661  0.4694  2.9677
23719SOL     OW72830   4.984   3.937   6.171  0.2975 -0.1088  0.7357
23719SOL    HW172831   4.940   3.886   6.103  0.3391 -0.1940  0.7728
23719SOL    HW272832   5.067   3.892   6.185  0.7591  0.5086  0.0845
23720SOL     OW72833   3.989   7.892   6.393  0.1510 -0.5546  0.3252
23720SOL    HW172834   3.987   7.897   6.297 -0.3933  0.2245  0.3709
23720SOL    HW272835   3.907   7.933   6.421  0.1194 -1.1381  1.1173
23721SOL     OW72836   7.456   9.255   4.744  0.8716  0.1054  0.4180
23721SOL    HW172837   7.526   9.246   4.809  0.2657  1.0438  1.2259
23721SOL    HW272838   7.482   9.197   4.673  1.3199 -1.3461  1.7017
23722SOL     OW72839   3.077   3.056   5.137  0.2616 -0.2594 -0.4686
23722SOL    HW172840   2.995   3.009   5.149 -0.5541  1.3331  0.5202
23722SOL    HW272841   3.098   3.042   5.044 -1.3048 -0.4272 -0.8404
23723SOL     OW72842   2.430   8.750   1.333  0.8281  0.2138 -0.5849
23723SOL    HW172843   2.336   8.754   1.350  1.2316  0.4533  2.0459
23723SOL    HW272844   2.453   8.658   1.347  1.2691  0.5214  0.9196
23724SOL     OW72845   5.321   6.805   6.920 -0.1411  0.0381 -0.2606
23724SOL    HW172846   5.250   6.782   6.980  0.3482  0.3549  0.4528
23724SOL    HW272847   5.383   6.853   6.974  0.2884  0.3696 -1.0400
23725SOL     OW72848   2.592   2.033   8.490  0.2482 -0.1624  0.1877
23725SOL    HW172849   2.649   2.029   8.413  0.0232 -1.3731  0.0628
23725SOL    HW272850   2.652   2.039   8.564  0.4653  1.1901 -0.0607
23726SOL     OW72851   1.705   3.363   9.340 -0.4854 -0.5593 -0.0898
23726SOL    HW172852   1.795   3.378   9.312 -1.0204  1.1064 -1.0258
23726SOL    HW272853   1.694   3.417   9.418 -0.5453 -1.1603  0.3309
23727SOL     OW72854   8.494   7.762   1.518 -1.1741  0.3160  0.1808
23727SOL    HW172855   8.498   7.775   1.424  1.5893  0.2941  0.2120
23727SOL    HW272856   8.485   7.850   1.554  0.1911  0.5843 -0.0778
23728SOL     OW72857   7.263   8.764   4.802  0.4575  0.0799  0.4265
23728SOL    HW172858   7.344   8.767   4.853  0.1493  1.1234  0.8675
23728SOL    HW272859   7.275   8.829   4.733  1.5265 -2.3895 -1.9234
23729SOL     OW72860   1.784   2.367   5.269 -0.0497  0.6076  0.0076
23729SOL    HW172861   1.703   2.418   5.257 -0.9439 -0.6736  0.4143
23729SOL    HW272862   1.789   2.353   5.364  1.1615  1.4505  0.0913
23730SOL     OW72863   1.669   6.005   0.197  0.7342 -0.0981  0.2399
23730SOL    HW172864   1.702   5.926   0.241  0.0495 -1.1357 -1.0540
23730SOL    HW272865   1.607   6.043   0.259  0.9593 -0.6542  0.8145
23731SOL     OW72866   3.646   7.346   0.977 -0.2500  0.2853  0.1140
23731SOL    HW172867   3.562   7.390   0.962 -1.4293 -1.7773  0.3440
23731SOL    HW272868   3.712   7.410   0.950 -1.9516  0.3370 -4.8505
23732SOL     OW72869   3.262   9.115   8.426 -0.3085  0.0781 -0.4090
23732SOL    HW172870   3.236   9.060   8.353 -0.8827 -0.1159 -0.0615
23732SOL    HW272871   3.250   9.205   8.395  0.1949  0.0132 -0.8163
23733SOL     OW72872   1.819   6.254   7.529 -1.0010 -0.4788 -0.9617
23733SOL    HW172873   1.780   6.336   7.500  0.4211  0.0763 -1.3666
23733SOL    HW272874   1.814   6.258   7.625 -1.4607 -0.1844 -0.9965
23734SOL     OW72875   7.307   0.248   1.729 -0.2493  0.6490  0.4707
23734SOL    HW172876   7.386   0.284   1.689 -0.2910 -0.4869 -0.6827
23734SOL    HW272877   7.235   0.290   1.683 -0.3525  1.4666  1.3283
23735SOL     OW72878   3.919   2.613   4.955  0.3884  0.5214 -0.2279
23735SOL    HW172879   3.886   2.548   5.017  0.3178  0.9002  0.1398
23735SOL    HW272880   3.973   2.671   5.008 -0.5945  1.5226 -0.2780
23736SOL     OW72881   1.869   0.829   8.059 -0.2344 -0.2271 -0.4266
23736SOL    HW172882   1.889   0.784   7.977 -1.4184 -1.4522 -0.0799
23736SOL    HW272883   1.791   0.785   8.092  0.4945 -0.1248  1.6060
23737SOL     OW72884   1.896   8.314   8.500  0.2413 -0.1046  0.4154
23737SOL    HW172885   1.850   8.357   8.428  0.9166 -2.7137 -1.7362
23737SOL    HW272886   1.827   8.291   8.562 -0.7429  0.0274 -0.5921
23738SOL     OW72887   1.159   2.360   0.054 -0.0824  0.5093  0.1664
23738SOL    HW172888   1.134   2.406  -0.027 -0.4482 -0.1928 -0.1257
23738SOL    HW272889   1.081   2.310   0.078  0.0227  0.7216  0.9645
23739SOL     OW72890   2.069   0.302   8.921 -0.4597  0.0695  0.0468
23739SOL    HW172891   2.138   0.240   8.945 -0.3791  0.6452  1.3876
23739SOL    HW272892   2.095   0.384   8.963 -2.0343  0.2642  0.7175
23740SOL     OW72893   6.977   0.629   0.275 -0.6016  0.1934 -1.0325
23740SOL    HW172894   7.041   0.577   0.226  0.9192  1.8031 -0.8628
23740SOL    HW272895   7.012   0.631   0.364 -2.4929 -1.3566 -0.1999
23741SOL     OW72896   4.323   2.791   3.537 -0.1868  1.0440  0.1448
23741SOL    HW172897   4.407   2.757   3.569 -0.6308  0.7162  0.9973
23741SOL    HW272898   4.339   2.813   3.445  0.6752  0.4520  0.1445
23742SOL     OW72899   2.775   1.485   1.098  0.1003  1.1138  0.3579
23742SOL    HW172900   2.865   1.502   1.124 -0.0371  0.0042  1.6579
23742SOL    HW272901   2.778   1.482   1.002  1.7953 -0.5954  0.3999
23743SOL     OW72902   6.367   8.361   0.537 -0.2902  1.1493  0.4080
23743SOL    HW172903   6.294   8.394   0.485 -0.7134 -0.4174 -0.0568
23743SOL    HW272904   6.446   8.390   0.490 -0.5829  2.6977  0.8150
23744SOL     OW72905   2.886   1.943   7.353 -0.0711  0.8547 -0.5191
23744SOL    HW172906   2.828   1.958   7.428 -0.2211 -0.3845 -0.3642
23744SOL    HW272907   2.901   2.030   7.316 -1.0461  1.3291  0.1669
23745SOL     OW72908   7.578   5.447   7.242  0.0963  0.6153  0.3131
23745SOL    HW172909   7.551   5.374   7.297 -1.3476  1.1230  0.3279
23745SOL    HW272910   7.497   5.478   7.202  0.9612  0.9368 -1.2842
23746SOL     OW72911   6.718   4.041   6.845 -0.0071 -0.3089  0.4007
23746SOL    HW172912   6.742   4.120   6.796  0.7925 -0.0386  1.2182
23746SOL    HW272913   6.758   4.052   6.931  2.8849 -2.9799 -0.3832
23747SOL     OW72914   4.461   2.015   4.643 -0.2275 -0.1784 -0.5727
23747SOL    HW172915   4.489   2.103   4.669 -1.8643  0.9040 -2.1972
23747SOL    HW272916   4.442   1.970   4.725  3.0902  0.0073  0.4717
23748SOL     OW72917   8.921   6.616   9.181  0.0359 -0.0614 -0.0082
23748SOL    HW172918   8.859   6.584   9.247 -1.3659  1.7361 -0.3627
23748SOL    HW272919   8.912   6.554   9.108 -1.1848 -0.0141  0.0661
23749SOL     OW72920   4.237   8.335   5.747 -0.6906  0.5653 -0.0843
23749SOL    HW172921   4.232   8.305   5.837 -0.0692  0.0479 -0.2156
23749SOL    HW272922   4.147   8.362   5.726 -0.6058  1.8404  1.0607
23750SOL     OW72923   3.808   8.104   3.150  0.2409  0.0888  0.0596
23750SOL    HW172924   3.867   8.134   3.219  0.4180 -0.3192  0.0844
23750SOL    HW272925   3.798   8.010   3.165 -0.8010  0.2260  0.3517
23751SOL     OW72926   8.099   6.080   9.311  0.2371  0.1175 -0.2404
23751SOL    HW172927   8.057   5.994   9.321  0.6106  0.0023  0.4057
23751SOL    HW272928   8.040   6.141   9.356 -0.4728  0.3478 -1.4472
23752SOL     OW72929   0.287   0.185   6.995  0.2307  0.2232  0.3726
23752SOL    HW172930   0.281   0.215   6.904  0.3241 -1.6784 -0.2886
23752SOL    HW272931   0.374   0.148   7.002 -0.2717 -0.9011  0.8261
23753SOL     OW72932   4.310   0.954   9.307 -0.2182  0.3580 -0.4994
23753SOL    HW172933   4.326   0.955   9.212 -0.5967 -0.7030 -0.5877
23753SOL    HW272934   4.393   0.926   9.345 -0.3834 -0.3137 -0.6110
23754SOL     OW72935   3.927   2.147   0.831  0.3685  0.3132 -0.8188
23754SOL    HW172936   3.972   2.129   0.748 -0.4628 -2.3905 -0.7642
23754SOL    HW272937   3.949   2.073   0.887 -0.5161  1.2076  0.7746
23755SOL     OW72938   0.235   0.240   8.527  0.4035 -0.2540  0.2302
23755SOL    HW172939   0.216   0.220   8.619  0.5505  0.2690  0.3831
23755SOL    HW272940   0.331   0.236   8.522  0.4470  0.4717  0.2932
23756SOL     OW72941   9.631   4.277   7.486 -0.0679 -0.0092  0.2967
23756SOL    HW172942   9.604   4.368   7.482 -0.9454 -0.2676  0.2071
23756SOL    HW272943   9.613   4.251   7.576  2.0872  0.4652  0.9214
23757SOL     OW72944   6.239   4.603   8.291  0.0444 -0.2568  0.1267
23757SOL    HW172945   6.155   4.646   8.273 -1.4992 -3.0436  0.1102
23757SOL    HW272946   6.247   4.606   8.386 -0.4030 -0.5278  0.1769
23758SOL     OW72947   2.428   3.225   5.794 -0.1603  0.4325 -0.1223
23758SOL    HW172948   2.339   3.199   5.770  0.6547 -0.7584 -2.1440
23758SOL    HW272949   2.471   3.142   5.815 -0.1196  1.1891  3.4169
23759SOL     OW72950   8.398   5.595   9.669 -0.1367  0.3073  0.1908
23759SOL    HW172951   8.428   5.522   9.724 -1.1590 -0.8669 -0.7320
23759SOL    HW272952   8.313   5.620   9.705 -0.0348  0.6695  0.1785
23760SOL     OW72953   6.909   0.562   9.375  0.2192 -0.2143  0.1721
23760SOL    HW172954   6.955   0.645   9.390 -0.4102  0.3185 -0.7559
23760SOL    HW272955   6.894   0.560   9.280  0.8179 -1.7076  0.0831
23761SOL     OW72956   6.020   0.496   0.965  0.1135  0.0071  0.5291
23761SOL    HW172957   5.940   0.518   0.918  0.3869 -1.5716 -0.7532
23761SOL    HW272958   6.079   0.570   0.947 -0.4753  0.3809  0.1006
23762SOL     OW72959   1.776   9.635   2.185  0.2485  0.2155 -0.1742
23762SOL    HW172960   1.718   9.688   2.130 -1.6159 -0.6631  0.8707
23762SOL    HW272961   1.816   9.573   2.124  0.2263  0.9363 -0.9426
23763SOL     OW72962   2.814   7.036   9.495 -0.6563  0.1714 -0.3336
23763SOL    HW172963   2.733   6.990   9.517 -0.9409  0.3114 -1.0471
23763SOL    HW272964   2.818   7.109   9.557 -1.5952  0.7379 -0.9023
23764SOL     OW72965   1.220   3.646   9.344  0.3980  0.1442 -0.9260
23764SOL    HW172966   1.184   3.569   9.387 -1.8607  1.7055  0.1259
23764SOL    HW272967   1.165   3.659   9.267 -0.1350  1.4870 -0.3359
23765SOL     OW72968   6.410   0.640   1.968  0.1093  0.2214 -0.4163
23765SOL    HW172969   6.473   0.573   1.992 -1.4534 -1.7979 -1.6064
23765SOL    HW272970   6.409   0.639   1.872 -2.4259 -0.5985 -0.4529
23766SOL     OW72971   5.034   9.069   1.156 -0.5854 -0.0608  0.0950
23766SOL    HW172972   5.060   9.160   1.146 -0.6194 -0.0601  0.0172
23766SOL    HW272973   5.029   9.056   1.251  1.3268 -0.5235  0.1623
23767SOL     OW72974   5.029   2.368   0.058  0.8430 -0.6257 -0.4147
23767SOL    HW172975   4.958   2.373   0.122  0.3404  0.6271 -1.0363
23767SOL    HW272976   5.050   2.275   0.052  0.7945 -0.7891  1.4372
23768SOL     OW72977   1.494   1.027   7.521 -0.5709 -0.2313 -0.1697
23768SOL    HW172978   1.522   1.103   7.571 -3.4495  0.3166  0.8273
23768SOL    HW272979   1.447   1.063   7.446  0.9200 -1.0699 -1.5623
23769SOL     OW72980   9.354   1.242   2.998 -0.1162 -0.6058 -0.0461
23769SOL    HW172981   9.261   1.237   2.979  0.0080 -0.1911 -0.8194
23769SOL    HW272982   9.397   1.193   2.928  0.3869  1.4577 -1.2653
23770SOL     OW72983   1.346   1.349   1.576 -0.1528  0.9042 -0.5333
23770SOL    HW172984   1.261   1.368   1.614 -0.3179  1.4843 -1.1775
23770SOL    HW272985   1.362   1.420   1.515  1.0827  1.1380  0.0285
23771SOL     OW72986   4.613   5.372   8.812  0.0107 -0.0134 -0.3498
23771SOL    HW172987   4.552   5.330   8.752 -2.7334  0.6671  1.7216
23771SOL    HW272988   4.664   5.300   8.849  0.7892 -0.5708 -2.3660
23772SOL     OW72989   8.212   5.536   9.224  0.6772  0.6552 -0.7372
23772SOL    HW172990   8.254   5.603   9.278  1.7981 -0.6359  0.0715
23772SOL    HW272991   8.119   5.559   9.225  0.5605  0.4274  2.2201
23773SOL     OW72992   1.841   9.002   1.458  0.0089 -0.8355  0.2411
23773SOL    HW172993   1.867   8.912   1.479 -1.0346 -1.4142 -0.8292
23773SOL    HW272994   1.785   9.029   1.531 -0.0025 -1.2029  0.3673
23774SOL     OW72995   2.370   8.064   7.266 -0.2161 -0.3511 -0.2493
23774SOL    HW172996   2.371   8.019   7.350 -1.7425 -0.1728 -0.1078
23774SOL    HW272997   2.299   8.023   7.217 -0.5636  0.7716 -0.7396
23775SOL     OW72998   1.511   9.264   5.469  0.4226 -0.9153  0.2924
23775SOL    HW172999   1.572   9.190   5.479 -0.1251 -1.2317  1.4784
23775SOL    HW273000   1.456   9.260   5.547  0.6581  1.0213  0.6062
23776SOL     OW73001   9.665   0.445   2.253 -0.1466 -0.2815 -0.2543
23776SOL    HW173002   9.751   0.470   2.287 -1.1421  0.7326  1.7170
23776SOL    HW273003   9.646   0.510   2.185  0.7888 -0.7521 -0.9844
23777SOL     OW73004   0.814   4.962   6.461  0.1042  0.5031  0.2221
23777SOL    HW173005   0.760   5.038   6.484  0.4127  0.7929 -0.0047
23777SOL    HW273006   0.750   4.893   6.441 -0.2139  1.0902 -0.8840
23778SOL     OW73007   0.183   1.672   2.336 -0.7417  0.3492  0.0588
23778SOL    HW173008   0.278   1.674   2.328 -0.8521  0.0717 -1.8961
23778SOL    HW273009   0.159   1.581   2.317 -1.2961 -0.0753  2.5369
23779SOL     OW73010   0.346   7.140   2.796  0.7395  0.0170  0.4929
23779SOL    HW173011   0.328   7.217   2.850 -0.3411 -0.2319  0.5035
23779SOL    HW273012   0.379   7.075   2.858  1.0921  0.2747  0.5791
23780SOL     OW73013   7.748   7.695   5.851  0.6860 -0.2704  0.3903
23780SOL    HW173014   7.832   7.654   5.831  0.4021 -0.7866  0.2415
23780SOL    HW273015   7.707   7.710   5.766  0.9148  0.6109  0.4257
23781SOL     OW73016   4.192   8.886   5.167  0.5799  0.2948 -0.6632
23781SOL    HW173017   4.171   8.977   5.146 -0.9992  0.2215  0.4660
23781SOL    HW273018   4.108   8.846   5.188  1.6692 -0.2563  3.3771
23782SOL     OW73019   6.818   0.053   8.195  0.1131 -0.2623  0.5283
23782SOL    HW173020   6.884   0.064   8.263 -0.6742  1.9419  1.0134
23782SOL    HW273021   6.781  -0.034   8.210  2.5878 -1.4071  0.4626
23783SOL     OW73022   5.919   8.353   6.049  0.2957 -0.7175 -0.1716
23783SOL    HW173023   5.971   8.295   5.994  1.6036 -0.7796  1.0620
23783SOL    HW273024   5.966   8.437   6.047 -1.2171  0.1689 -1.4159
23784SOL     OW73025   5.948   5.108   8.579  0.5306 -0.1609 -0.0888
23784SOL    HW173026   5.937   5.044   8.649  0.6699  0.6171  0.6566
23784SOL    HW273027   6.010   5.067   8.518  0.2527 -0.9219  0.1329
23785SOL     OW73028   6.228   8.750   9.217  0.2336  0.2738  0.3486
23785SOL    HW173029   6.264   8.684   9.277 -0.3735 -1.0107 -0.6594
23785SOL    HW273030   6.134   8.750   9.234  0.1254  0.2862 -0.2185
23786SOL     OW73031   4.756   8.575   7.242  0.2839  1.1103 -0.4485
23786SOL    HW173032   4.736   8.667   7.262  0.7805  1.0716  0.2515
23786SOL    HW273033   4.797   8.541   7.322  0.8937  0.5185 -0.9999
23787SOL     OW73034   3.804   8.766   3.534 -0.0310 -0.1909  0.5727
23787SOL    HW173035   3.759   8.822   3.597  2.7676  0.2261  2.3855
23787SOL    HW273036   3.772   8.794   3.449 -0.6553  2.3930  1.5782
23788SOL     OW73037   2.569   9.105   5.352  0.0661 -0.3084  0.1614
23788SOL    HW173038   2.567   9.012   5.329 -0.9065 -0.3169  0.2149
23788SOL    HW273039   2.481   9.122   5.387  0.6484  0.3255  1.3775
23789SOL     OW73040   4.239   7.508   5.950  0.7536 -0.1979 -0.1624
23789SOL    HW173041   4.242   7.464   6.035 -0.6525 -0.4031 -0.1947
23789SOL    HW273042   4.288   7.450   5.892  0.6497 -0.6901  0.2337
23790SOL     OW73043   6.588   0.883   8.510 -0.5395  0.2261 -0.1798
23790SOL    HW173044   6.630   0.798   8.524  0.0049  0.3091 -1.2251
23790SOL    HW273045   6.572   0.887   8.416 -1.2965  0.9565 -0.0380
23791SOL     OW73046   1.384   8.447   6.194  0.2224  0.4362  0.3974
23791SOL    HW173047   1.361   8.387   6.123 -0.9118 -0.3238  1.3772
23791SOL    HW273048   1.479   8.437   6.204 -0.2063 -3.4965  2.4547
23792SOL     OW73049   7.589   3.805   7.668 -0.3643 -0.1578 -0.2796
23792SOL    HW173050   7.683   3.818   7.657 -0.1543 -0.8223  0.5839
23792SOL    HW273051   7.578   3.709   7.667 -0.4490 -0.3412  3.6244
23793SOL     OW73052   5.390   2.091   6.154 -0.0858 -0.3640 -0.1165
23793SOL    HW173053   5.401   2.109   6.060 -1.4491 -3.1817 -0.9469
23793SOL    HW273054   5.390   2.177   6.195  2.8666  0.8939 -2.3714
23794SOL     OW73055   4.434   9.652   2.585 -0.0024  0.1638  0.0751
23794SOL    HW173056   4.472   9.614   2.505  0.1337 -1.6289  0.9436
23794SOL    HW273057   4.499   9.716   2.614  1.2970 -1.1703  0.2393
23795SOL     OW73058   8.733   5.692   6.325  0.0838  0.3216  0.2451
23795SOL    HW173059   8.740   5.743   6.405 -0.1103 -2.0071  1.8288
23795SOL    HW273060   8.822   5.661   6.308  0.3473  1.6411 -1.1275
23796SOL     OW73061   7.593   3.473   5.291  0.3498 -0.2180 -0.2245
23796SOL    HW173062   7.510   3.461   5.336  0.1978  0.0299 -0.4334
23796SOL    HW273063   7.658   3.480   5.361  0.2916 -1.0626 -0.0745
23797SOL     OW73064   9.022   1.441   0.478 -0.4311 -0.4636  0.1907
23797SOL    HW173065   9.068   1.422   0.396 -0.5664  1.3793 -0.3649
23797SOL    HW273066   8.933   1.408   0.464 -0.1513 -1.1806  0.0495
23798SOL     OW73067   6.458   4.719   3.069  0.1083 -0.4152  0.3452
23798SOL    HW173068   6.418   4.716   2.982 -0.1649 -1.6363  0.5063
23798SOL    HW273069   6.399   4.669   3.125  1.3223 -1.3927  0.8051
23799SOL     OW73070   2.913   8.491   2.987  0.3892 -0.1482  0.1360
23799SOL    HW173071   2.900   8.458   2.898 -0.5258 -0.8162  0.4983
23799SOL    HW273072   3.008   8.485   3.001  0.6792  0.9962 -1.1634
23800SOL     OW73073   9.454   5.039   4.068 -0.1806  0.0833 -0.0200
23800SOL    HW173074   9.416   4.957   4.037 -0.2542  0.3274 -0.5789
23800SOL    HW273075   9.502   5.074   3.993  0.3306  0.2694  0.3877
23801SOL     OW73076   9.424   0.366   6.383 -0.2938 -0.3207  0.3721
23801SOL    HW173077   9.456   0.448   6.345  1.3559 -1.0038  0.1945
23801SOL    HW273078   9.503   0.318   6.406 -1.2239 -0.9925  2.4336
23802SOL     OW73079   0.431   4.217   1.451  0.5543  0.0646  0.1850
23802SOL    HW173080   0.496   4.271   1.495  0.6553 -1.0309  1.4494
23802SOL    HW273081   0.458   4.127   1.469  0.2402 -0.4321 -1.6405
23803SOL     OW73082   8.802   3.269   3.164  0.7654 -0.1902  0.4295
23803SOL    HW173083   8.748   3.215   3.222 -0.0071 -2.7649 -2.4402
23803SOL    HW273084   8.876   3.213   3.141  1.1334  0.8025 -0.9296
23804SOL     OW73085   0.455   5.594   8.091  0.5783 -0.3782  0.0786
23804SOL    HW173086   0.380   5.632   8.137  0.4826  0.6284 -0.8629
23804SOL    HW273087   0.530   5.646   8.123  0.5911 -0.0710 -0.4414
23805SOL     OW73088   4.158   7.182   6.904 -0.1172 -0.1292  0.2094
23805SOL    HW173089   4.230   7.243   6.884 -0.5309  0.0346 -0.8597
23805SOL    HW273090   4.129   7.151   6.818 -0.5290 -1.1287  0.6969
23806SOL     OW73091   1.571   7.241   9.068  0.2145 -0.2785  0.1596
23806SOL    HW173092   1.588   7.332   9.043  0.0438 -0.5315 -0.9372
23806SOL    HW273093   1.648   7.214   9.118  0.9749 -0.0017 -0.8326
23807SOL     OW73094   4.046   4.296   3.669 -0.2483 -0.5071 -0.3059
23807SOL    HW173095   4.064   4.232   3.737 -1.0029  0.7642  1.1445
23807SOL    HW273096   3.971   4.347   3.702  1.3153  2.1878 -0.6061
23808SOL     OW73097   0.374   1.605   5.810  0.0897  0.1037 -0.5132
23808SOL    HW173098   0.433   1.673   5.843  0.7369 -0.9027  0.4922
23808SOL    HW273099   0.371   1.540   5.881 -1.5582 -0.2906 -0.9025
23809SOL     OW73100   1.359   3.499   7.108  0.0920 -0.1766 -0.6620
23809SOL    HW173101   1.375   3.473   7.199 -0.0653 -0.6126 -0.7557
23809SOL    HW273102   1.341   3.593   7.112  0.8178 -0.0467 -0.3289
23810SOL     OW73103   2.762   7.199   7.131 -0.0295 -0.5971 -0.1268
23810SOL    HW173104   2.797   7.116   7.099  0.3614 -0.3534 -0.3334
23810SOL    HW273105   2.838   7.248   7.163 -0.2917 -0.4330  0.2612
23811SOL     OW73106   9.101   7.274   3.841 -0.0335  0.0373  0.0818
23811SOL    HW173107   9.061   7.303   3.923 -1.9421 -1.7165 -0.1281
23811SOL    HW273108   9.072   7.339   3.776 -1.0080 -0.1656  0.2948
23812SOL     OW73109   6.612   0.886   1.525  0.2369 -0.1414  0.1596
23812SOL    HW173110   6.526   0.901   1.563 -0.3423 -0.8075 -0.8419
23812SOL    HW273111   6.652   0.821   1.583 -0.2996 -0.5109  0.1254
23813SOL     OW73112   5.516   0.915   4.728 -0.0271  0.4004 -0.1225
23813SOL    HW173113   5.554   0.928   4.815 -0.1793 -0.3772  0.0649
23813SOL    HW273114   5.562   0.839   4.693  0.5509  1.1463 -1.0262
23814SOL     OW73115   3.028   7.265   5.119 -0.0161  0.4648 -0.2329
23814SOL    HW173116   2.946   7.219   5.135 -1.0059  2.4877  0.8503
23814SOL    HW273117   3.007   7.357   5.130  2.3493  1.0746 -0.1948
23815SOL     OW73118   5.275   8.951   3.418  0.3323  0.6584  0.5089
23815SOL    HW173119   5.327   8.941   3.338 -1.3528 -0.6977 -0.4786
23815SOL    HW273120   5.332   8.917   3.487  1.8450  1.9201 -0.0583
23816SOL     OW73121   3.653   2.004   9.198  0.4153 -0.4608  0.1481
23816SOL    HW173122   3.626   2.083   9.245  1.6175 -0.8173  1.4977
23816SOL    HW273123   3.624   2.019   9.108 -2.4629  0.0028  1.0488
23817SOL     OW73124   7.222   4.011   2.747  0.1295  0.7602  0.7003
23817SOL    HW173125   7.160   4.061   2.801  0.9002  0.5999  1.7733
23817SOL    HW273126   7.182   3.924   2.740 -0.3342  0.9949  0.3685
23818SOL     OW73127   9.505   8.397   5.424  0.3073  0.2720  0.0443
23818SOL    HW173128   9.583   8.451   5.415 -0.0680  0.6089 -1.3031
23818SOL    HW273129   9.538   8.307   5.425  0.5881  0.2774 -2.8080
23819SOL     OW73130   5.338   6.832   3.622 -0.2126 -0.0692  0.5014
23819SOL    HW173131   5.318   6.790   3.539 -2.0633  0.4970  0.5954
23819SOL    HW273132   5.403   6.899   3.601 -1.5410  0.8770 -0.7592
23820SOL     OW73133   4.009   2.691   8.267  0.3956  0.1483  0.2670
23820SOL    HW173134   3.914   2.703   8.257  0.3996  1.0379  1.0887
23820SOL    HW273135   4.019   2.605   8.307  0.1453 -1.4132 -2.7329
23821SOL     OW73136   4.775   2.042   8.931 -0.5761 -0.3598  0.1662
23821SOL    HW173137   4.710   2.110   8.912  1.2072  1.6872  0.8511
23821SOL    HW273138   4.757   1.973   8.868 -2.2015  0.9616 -0.9237
23822SOL     OW73139   3.930   1.456   3.192  0.0027 -0.4251  0.3787
23822SOL    HW173140   3.842   1.420   3.201 -0.4422  0.7574  0.9415
23822SOL    HW273141   3.970   1.406   3.121 -1.4066 -0.4296 -0.4302
23823SOL     OW73142   5.148   3.134   6.915  0.3889  0.0933  0.3116
23823SOL    HW173143   5.084   3.205   6.917 -0.6394 -0.7037 -1.5841
23823SOL    HW273144   5.194   3.146   6.832  1.9913  0.0012  1.1459
23824SOL     OW73145   3.435   3.338   3.683  0.0725  0.4946  0.7032
23824SOL    HW173146   3.345   3.313   3.703 -0.9478  1.9983 -1.6387
23824SOL    HW273147   3.432   3.433   3.672  1.6057  0.4211 -0.8230
23825SOL     OW73148   9.643   5.143   3.511  0.3375 -1.0129  0.0882
23825SOL    HW173149   9.594   5.223   3.533  0.8824 -0.3294 -1.0941
23825SOL    HW273150   9.644   5.093   3.593  0.1763  0.2838  0.9222
23826SOL     OW73151   5.060   6.168   2.979 -0.9459 -0.0640 -0.0003
23826SOL    HW173152   5.025   6.136   3.062  0.7276  0.1799  0.8439
23826SOL    HW273153   5.040   6.262   2.979 -1.1335 -0.1024  0.0076
23827SOL     OW73154   4.086   1.415   2.181 -0.1453  0.2455 -0.1566
23827SOL    HW173155   4.143   1.474   2.133  1.3613 -2.3670 -1.8090
23827SOL    HW273156   4.135   1.395   2.262 -0.0676  0.2816 -0.1946
23828SOL     OW73157   1.551   6.096   5.009  0.3919  0.2088 -0.2219
23828SOL    HW173158   1.642   6.075   4.987  0.4873  0.7311 -0.3476
23828SOL    HW273159   1.536   6.183   4.970  0.4554  1.0338  1.4978
23829SOL     OW73160   8.398   1.452   8.960 -0.1139  0.1632 -0.6296
23829SOL    HW173161   8.338   1.378   8.960 -1.6161  1.3039  0.4036
23829SOL    HW273162   8.367   1.508   9.032  2.2473  0.7947  0.0032
23830SOL     OW73163   5.692   0.704   7.518  0.0612  0.1108  0.3240
23830SOL    HW173164   5.744   0.635   7.478 -0.3443  0.9696 -1.7802
23830SOL    HW273165   5.757   0.763   7.557  0.4448 -0.8885  1.2596
23831SOL     OW73166   8.565   7.506   9.434  0.2193 -0.4336 -0.7056
23831SOL    HW173167   8.646   7.508   9.382  0.5730 -0.4473 -0.1699
23831SOL    HW273168   8.536   7.415   9.429  0.3557 -0.4770 -0.7265
23832SOL     OW73169   9.414   6.240   3.963 -0.4116  0.4181 -0.2120
23832SOL    HW173170   9.420   6.167   3.903  0.5233  0.5705 -0.3108
23832SOL    HW273171   9.331   6.283   3.940 -0.6005 -0.1673 -0.6408
23833SOL     OW73172   2.464   2.048   2.228  0.4141 -0.0004  0.1321
23833SOL    HW173173   2.505   2.050   2.314 -0.4226 -1.6766  0.6005
23833SOL    HW273174   2.410   1.969   2.228 -0.9727  0.8732 -1.3038
23834SOL     OW73175   0.880   1.378   3.368 -0.1990  0.1261 -0.9963
23834SOL    HW173176   0.936   1.432   3.312 -0.9509  0.0110 -1.8805
23834SOL    HW273177   0.820   1.440   3.409 -1.9908 -0.1200 -3.0927
23835SOL     OW73178   3.551   7.088   9.059  0.2940 -0.2903  0.3661
23835SOL    HW173179   3.587   7.147   8.993  0.7582 -0.4399  0.4837
23835SOL    HW273180   3.482   7.139   9.101  0.8867  0.2745  0.6620
23836SOL     OW73181   7.648   3.429   5.560 -0.1495 -0.1040  0.6885
23836SOL    HW173182   7.658   3.339   5.528 -0.5611 -0.0398  0.3669
23836SOL    HW273183   7.558   3.433   5.591 -0.1673  0.2332  0.5946
23837SOL     OW73184   8.567   4.709   1.277 -0.3130 -0.3786 -0.4784
23837SOL    HW173185   8.617   4.753   1.209  0.1524  0.2476  0.2602
23837SOL    HW273186   8.481   4.693   1.237  0.3613 -1.2111 -1.6525
23838SOL     OW73187   0.351   6.844   5.879  0.4105  0.3427  0.2478
23838SOL    HW173188   0.289   6.841   5.806 -1.4638 -0.1700  1.7810
23838SOL    HW273189   0.405   6.766   5.869  1.9957  1.6189 -2.0256
23839SOL     OW73190   8.033   5.535   7.801 -0.0608  0.9179 -0.3173
23839SOL    HW173191   8.046   5.549   7.707  0.0711  1.2288 -0.2543
23839SOL    HW273192   8.113   5.570   7.842  0.9267 -1.2612 -0.2388
23840SOL     OW73193   0.056   3.833   5.182 -0.3054 -0.1362  0.0269
23840SOL    HW173194   0.143   3.850   5.146 -0.6840  1.8689 -0.0787
23840SOL    HW273195  -0.002   3.838   5.106 -0.8818  2.1664  0.5443
23841SOL     OW73196   0.664   4.027   0.966 -0.1702  0.1258  0.8440
23841SOL    HW173197   0.623   3.944   0.941 -0.5829  0.5953 -0.0799
23841SOL    HW273198   0.592   4.080   1.001  0.2516 -0.2135  2.3023
23842SOL     OW73199   9.058   4.870   5.097 -0.2970  0.7416 -0.0229
23842SOL    HW173200   9.050   4.801   5.163 -0.9202  1.8250  1.0685
23842SOL    HW273201   9.048   4.951   5.146 -0.0745  1.6007 -1.3621
23843SOL     OW73202   4.710   9.089   3.587 -0.5895  0.0292  0.7161
23843SOL    HW173203   4.767   9.135   3.648 -2.2103  2.1181  0.7729
23843SOL    HW273204   4.641   9.051   3.642 -0.2611 -0.9148  0.4863
23844SOL     OW73205   1.965   1.593   0.615 -0.0966  0.0184  0.1207
23844SOL    HW173206   1.961   1.497   0.610  0.3527 -0.1645  2.3376
23844SOL    HW273207   2.054   1.611   0.644 -1.0434  0.8890  2.7046
23845SOL     OW73208   2.182   6.388   1.127 -0.5732 -0.4925  0.1594
23845SOL    HW173209   2.177   6.356   1.218 -1.0618  0.0063  0.3160
23845SOL    HW273210   2.155   6.480   1.133  0.3969 -0.1667 -0.3478
23846SOL     OW73211   8.117   8.121   7.977  0.5037  0.4673 -0.3296
23846SOL    HW173212   8.039   8.109   7.924  1.0126 -2.2797 -0.6006
23846SOL    HW273213   8.173   8.178   7.924 -0.7892  1.4690 -0.6632
23847SOL     OW73214   7.080   8.526   7.684 -0.2220 -0.4067  0.1518
23847SOL    HW173215   7.128   8.577   7.749 -1.4791  0.9296  0.1002
23847SOL    HW273216   7.105   8.563   7.600 -0.4794 -0.4540  0.0502
23848SOL     OW73217   9.036   1.571   0.851  0.5633 -0.2048 -0.1356
23848SOL    HW173218   9.056   1.618   0.769 -0.9279  1.2722  0.3065
23848SOL    HW273219   9.120   1.568   0.897  1.4075 -0.9582 -1.6392
23849SOL     OW73220   0.690   6.012   1.815  0.4196  0.1000 -0.0483
23849SOL    HW173221   0.772   6.062   1.815  0.7747 -0.4083 -1.9743
23849SOL    HW273222   0.671   5.997   1.723 -1.0073 -1.1783  0.4140
23850SOL     OW73223   2.824   4.534   3.013  0.2619  0.0461 -0.0323
23850SOL    HW173224   2.894   4.598   3.025  1.0299 -0.6469 -0.6981
23850SOL    HW273225   2.856   4.454   3.055 -0.3442 -0.1298  0.1012
23851SOL     OW73226   8.057   5.427   6.130 -0.1694  0.3226 -0.2506
23851SOL    HW173227   8.137   5.416   6.079 -0.2580  0.7494 -0.4870
23851SOL    HW273228   8.010   5.498   6.086 -0.1467  0.8427  0.5331
23852SOL     OW73229   6.019   2.337   3.655 -0.1870 -0.3557  0.3565
23852SOL    HW173230   6.048   2.379   3.574 -3.7512  2.2188  0.2006
23852SOL    HW273231   6.017   2.408   3.719 -0.0999 -1.7593  1.9864
23853SOL     OW73232   2.602   1.817   5.981  0.0615  0.3492 -0.3667
23853SOL    HW173233   2.591   1.878   5.909  0.2306  0.9930  0.1396
23853SOL    HW273234   2.540   1.847   6.048 -1.1042 -1.0537 -0.7414
23854SOL     OW73235   4.676   8.595   2.751  0.5915 -0.1101 -0.2731
23854SOL    HW173236   4.700   8.627   2.838 -0.5439 -1.2241  0.4774
23854SOL    HW273237   4.581   8.585   2.754  0.6548 -1.2471 -1.2625
23855SOL     OW73238   8.466   8.441   4.257 -0.0845 -0.1194 -0.4313
23855SOL    HW173239   8.443   8.382   4.329 -1.2101 -0.9227 -1.4077
23855SOL    HW273240   8.561   8.443   4.256 -0.0502 -0.8709  0.4658
23856SOL     OW73241   1.949   8.239   5.216  0.2028 -0.1387 -0.2655
23856SOL    HW173242   1.952   8.317   5.272  1.0784  0.0065 -0.4947
23856SOL    HW273243   2.037   8.202   5.221  0.3630 -0.0242 -1.6663
23857SOL     OW73244   7.493   0.667   3.360 -0.6237 -0.4754 -0.3511
23857SOL    HW173245   7.410   0.698   3.397 -1.0849 -0.7623 -1.1250
23857SOL    HW273246   7.545   0.641   3.436 -1.0700  0.1119  0.1716
23858SOL     OW73247   2.629   5.809   8.072 -0.6528 -0.7565  0.2433
23858SOL    HW173248   2.567   5.760   8.126  0.3728 -0.6040  1.6140
23858SOL    HW273249   2.710   5.758   8.076  0.1099  0.4706  0.7862
23859SOL     OW73250   6.947   2.141   7.909 -0.4384 -0.6003  0.4846
23859SOL    HW173251   6.966   2.170   7.820 -1.9885  0.1994  0.3946
23859SOL    HW273252   6.887   2.067   7.898  1.0033 -1.8921  0.8296
23860SOL     OW73253   9.501   4.333   0.602  0.0218 -0.0747 -0.2522
23860SOL    HW173254   9.500   4.421   0.640 -0.3568  0.4695 -1.4682
23860SOL    HW273255   9.589   4.323   0.566  0.6437 -0.9028  1.4174
23861SOL     OW73256   7.058   1.179   4.744 -0.2027  0.2877  0.3326
23861SOL    HW173257   6.967   1.168   4.715 -0.1927  0.9215  0.0536
23861SOL    HW273258   7.052   1.243   4.815  0.3590  2.7949 -1.7468
23862SOL     OW73259   8.479   9.506   9.087 -0.1042  0.0865  0.0184
23862SOL    HW173260   8.513   9.559   9.159 -0.5770 -1.4821  1.4773
23862SOL    HW273261   8.424   9.440   9.130 -1.9162  0.1972 -1.9418
23863SOL     OW73262   8.941   4.856   2.592  0.0620 -0.5974  0.1084
23863SOL    HW173263   8.956   4.771   2.549 -0.3106 -0.3184 -0.5807
23863SOL    HW273264   9.026   4.878   2.630  0.6592 -0.4252 -1.2728
23864SOL     OW73265   4.952   5.800   7.767 -0.8275  0.2704  0.1922
23864SOL    HW173266   4.954   5.840   7.680  1.2449 -0.5643 -0.2049
23864SOL    HW273267   4.987   5.867   7.825  0.4897 -0.1352 -0.1055
23865SOL     OW73268   7.697   6.201   2.384 -0.6213 -0.2298 -0.6245
23865SOL    HW173269   7.652   6.267   2.435  1.0918  0.8860 -0.4751
23865SOL    HW273270   7.790   6.212   2.406  0.2748  0.5012 -4.0959
23866SOL     OW73271   1.326   2.610   6.180  0.2635  0.3745 -0.0313
23866SOL    HW173272   1.235   2.602   6.151  0.7691  1.1752 -1.9981
23866SOL    HW273273   1.375   2.552   6.122  1.1794  1.0698  0.0264
23867SOL     OW73274   5.257   7.418   2.934 -0.5851  0.3178  0.7217
23867SOL    HW173275   5.279   7.326   2.949  0.1043  0.3039 -0.2985
23867SOL    HW273276   5.332   7.453   2.886 -1.5065  1.0379 -0.2150
23868SOL     OW73277   4.541   7.924   3.524  0.1927 -0.0448  0.1316
23868SOL    HW173278   4.579   7.908   3.610  0.1417 -0.5830  0.0612
23868SOL    HW273279   4.525   7.836   3.488  1.3561  0.1453 -0.9391
23869SOL     OW73280   6.613   3.285   7.671 -0.1203  0.0395 -0.0534
23869SOL    HW173281   6.600   3.379   7.663  0.5820  0.1581  0.1122
23869SOL    HW273282   6.706   3.275   7.690 -0.6682 -0.5042  2.9494
23870SOL     OW73283   3.068   8.150   2.163  0.1277  0.5906  0.4790
23870SOL    HW173284   3.073   8.077   2.102  0.1830  0.6095  0.4601
23870SOL    HW273285   3.080   8.111   2.249 -0.5114  0.4842  0.5284
23871SOL     OW73286   0.322   3.076   1.227  0.2030 -0.3292  0.0692
23871SOL    HW173287   0.360   3.020   1.160  1.7189  1.2582 -0.4602
23871SOL    HW273288   0.319   3.163   1.188 -1.7956  0.0746  0.9774
23872SOL     OW73289   5.775   9.491   6.094 -0.3849  0.4376 -0.2321
23872SOL    HW173290   5.725   9.547   6.154 -1.2357  0.9407 -1.3923
23872SOL    HW273291   5.857   9.539   6.079 -0.3334  0.4937  0.2121
23873SOL     OW73292   4.361   8.758   4.110 -0.6965 -0.3744 -0.1937
23873SOL    HW173293   4.451   8.725   4.114  0.0536  1.5371 -0.0320
23873SOL    HW273294   4.336   8.747   4.018  1.2560  2.6588 -1.2439
23874SOL     OW73295   2.698   9.498   4.678  0.0437  0.5266 -0.4675
23874SOL    HW173296   2.698   9.467   4.769  0.5559  0.0924 -0.6090
23874SOL    HW273297   2.710   9.593   4.685  1.7354  0.3084 -0.1328
23875SOL     OW73298   6.308   4.274   9.252  0.4324 -0.0628  0.4325
23875SOL    HW173299   6.319   4.357   9.206  0.8147 -0.2601  0.1628
23875SOL    HW273300   6.386   4.223   9.229 -0.2461 -0.8626 -0.1854
23876SOL     OW73301   5.745   2.428   6.328 -0.1306 -0.4937  0.5792
23876SOL    HW173302   5.799   2.350   6.313 -0.6736 -0.4901 -1.7972
23876SOL    HW273303   5.675   2.422   6.262 -0.5916  1.6422  0.7993
23877SOL     OW73304   2.762   1.435   5.178  0.3148 -0.0716  0.0685
23877SOL    HW173305   2.697   1.495   5.143  2.7400  2.2307 -0.8201
23877SOL    HW273306   2.738   1.426   5.271 -1.7764 -0.1369 -0.4240
23878SOL     OW73307   8.858   0.145   0.500 -0.7782 -0.6784 -0.0791
23878SOL    HW173308   8.924   0.149   0.569 -0.0670 -2.1564 -0.6174
23878SOL    HW273309   8.815   0.230   0.502 -0.3997 -0.4836  1.8063
23879SOL     OW73310   7.722   4.342   8.277  0.1165 -0.1394  0.2555
23879SOL    HW173311   7.662   4.270   8.299  0.1901 -0.4955 -0.6293
23879SOL    HW273312   7.788   4.341   8.346 -0.8713  0.2360  1.2325
23880SOL     OW73313   3.807   8.180   4.986 -0.1633  0.2373 -0.4712
23880SOL    HW173314   3.813   8.119   4.912  1.6886 -0.0490 -0.1266
23880SOL    HW273315   3.878   8.242   4.972  0.0282  0.3580  0.9020
23881SOL     OW73316   7.852   0.665   4.623  0.4465  0.1447  0.1370
23881SOL    HW173317   7.756   0.668   4.625  0.4440 -0.0840  0.4411
23881SOL    HW273318   7.878   0.661   4.715  0.7038 -0.9445  0.0352
23882SOL     OW73319   3.643   4.323   5.562  0.0911  0.2220 -0.3708
23882SOL    HW173320   3.651   4.414   5.592 -1.6151  0.1489  0.3792
23882SOL    HW273321   3.716   4.312   5.500  0.0182  2.2569 -0.8872
23883SOL     OW73322   1.513   8.464   4.445 -0.0096  0.0795  0.1381
23883SOL    HW173323   1.527   8.386   4.391 -0.5399  0.3859 -0.4629
23883SOL    HW273324   1.589   8.520   4.426  0.5867 -0.4610  0.8929
23884SOL     OW73325   2.518   0.625   8.696 -0.3384  0.3890 -0.3415
23884SOL    HW173326   2.442   0.568   8.693  0.3211 -0.6680  1.4553
23884SOL    HW273327   2.487   0.706   8.736 -1.2442  1.3300 -2.7677
23885SOL     OW73328   3.049   4.527   5.549 -0.5461  0.3572  0.3534
23885SOL    HW173329   3.140   4.525   5.580 -0.8452  0.0861  1.2410
23885SOL    HW273330   3.056   4.541   5.455  0.3722  2.1719  0.6497
23886SOL     OW73331   3.662   3.448   0.816 -0.1812  0.1148 -0.3534
23886SOL    HW173332   3.600   3.441   0.888  0.9008 -0.8520  0.5260
23886SOL    HW273333   3.614   3.417   0.739 -1.0802  0.3111  0.1224
23887SOL     OW73334   4.740   3.111   4.462  0.1814 -0.2356 -0.0524
23887SOL    HW173335   4.787   3.175   4.408 -0.3233  0.3242  0.1589
23887SOL    HW273336   4.784   3.028   4.444  1.0218  0.2110 -0.1320
23888SOL     OW73337   5.020   2.961   5.173  0.1143  0.0829 -0.0919
23888SOL    HW173338   4.943   2.991   5.125 -0.2485 -0.6371  0.0151
23888SOL    HW273339   5.094   2.993   5.123 -0.2523 -1.2177 -1.5312
23889SOL     OW73340   9.516   2.201   3.030  0.6319 -0.3705  0.0407
23889SOL    HW173341   9.472   2.143   2.969 -2.9923  2.2008 -0.1084
23889SOL    HW273342   9.586   2.241   2.979  0.1312 -1.0880 -1.2496
23890SOL     OW73343   4.011   4.726   8.488 -0.0586 -0.6716  0.1939
23890SOL    HW173344   4.103   4.705   8.504 -0.1833 -2.0475 -0.7308
23890SOL    HW273345   3.994   4.802   8.543  1.4420 -0.8136  0.9059
23891SOL     OW73346   3.958   5.353   9.497  0.1916  0.4647 -0.3556
23891SOL    HW173347   4.021   5.425   9.493 -0.0251  0.6394 -0.6680
23891SOL    HW273348   3.943   5.329   9.405  3.5716 -2.9006 -0.2862
23892SOL     OW73349   4.395   4.011   8.795 -0.9971  0.3094  0.3950
23892SOL    HW173350   4.337   3.945   8.834 -1.0660  0.7277  1.0154
23892SOL    HW273351   4.483   3.984   8.820 -0.9970  0.2482  0.3296
23893SOL     OW73352   3.937   3.179   6.847  1.0230 -0.0812  0.2826
23893SOL    HW173353   3.867   3.145   6.791  1.9314  1.0008 -1.6115
23893SOL    HW273354   3.963   3.104   6.901  1.3046 -1.7353 -1.9913
23894SOL     OW73355   5.881   9.209   5.938  0.1641 -0.1692 -0.5581
23894SOL    HW173356   5.962   9.237   5.980  0.8621 -1.9092 -0.6790
23894SOL    HW273357   5.883   9.250   5.852  0.6855  0.1708 -0.3895
23895SOL     OW73358   9.413   5.545   7.694  0.5432 -0.0999  0.1957
23895SOL    HW173359   9.362   5.618   7.659  0.7878 -0.1697 -0.3229
23895SOL    HW273360   9.363   5.514   7.770  0.6252  0.8514  0.6594
23896SOL     OW73361   9.550   3.599   9.162  0.4412  0.2815  0.1339
23896SOL    HW173362   9.529   3.685   9.198  0.1235  0.4425 -0.4211
23896SOL    HW273363   9.514   3.537   9.225  0.4537  0.5566  0.4109
23897SOL     OW73364   8.655   7.181   6.119 -0.0616 -0.2195  0.1390
23897SOL    HW173365   8.726   7.207   6.178  0.0029 -0.6820  0.2755
23897SOL    HW273366   8.679   7.218   6.034  0.1150  0.0070  0.2883
23898SOL     OW73367   7.000   8.085   2.529 -0.0438  0.2750  0.3427
23898SOL    HW173368   7.081   8.136   2.535 -0.2604  0.7193 -0.4394
23898SOL    HW273369   6.938   8.143   2.485  0.4510 -1.5040 -3.0427
23899SOL     OW73370   7.100   3.940   1.659  0.1750  0.5588  0.1859
23899SOL    HW173371   7.023   3.984   1.696 -0.2057 -0.2720  0.4017
23899SOL    HW273372   7.114   3.984   1.575 -0.3152  0.9587  0.3084
23900SOL     OW73373   3.578   4.364   0.641 -0.8968  0.4137  0.1621
23900SOL    HW173374   3.516   4.428   0.605  0.2678  1.1775 -0.5680
23900SOL    HW273375   3.650   4.363   0.578 -0.3666 -0.7850  0.7605
23901SOL     OW73376   5.937   6.258   2.280 -0.1041  0.4884 -0.2854
23901SOL    HW173377   5.861   6.274   2.224  1.0925  1.6775 -1.6545
23901SOL    HW273378   6.010   6.243   2.219  0.4446 -2.6241  0.9736
23902SOL     OW73379   8.472   5.868   7.965  0.3385 -0.5068  0.0541
23902SOL    HW173380   8.448   5.918   8.043  0.3727 -1.9716  1.0334
23902SOL    HW273381   8.553   5.823   7.989  1.3910  0.4671 -1.4890
23903SOL     OW73382   9.159   2.283   1.204 -0.0272 -0.0940  0.1291
23903SOL    HW173383   9.183   2.228   1.279  0.4101  1.1087  0.9027
23903SOL    HW273384   9.232   2.273   1.143  0.9531  0.9947  1.0584
23904SOL     OW73385   2.538   2.625   8.476  0.5659  0.0184 -0.3788
23904SOL    HW173386   2.596   2.687   8.432  0.2924 -0.0781 -0.8849
23904SOL    HW273387   2.559   2.540   8.436  1.1572 -0.2730  0.5278
23905SOL     OW73388   2.497   4.537   0.497  0.4656  0.3918  0.7739
23905SOL    HW173389   2.511   4.563   0.588  1.8191  1.9432  0.1797
23905SOL    HW273390   2.581   4.555   0.454  0.1143 -1.0642 -0.6199
23906SOL     OW73391   6.367   5.060   5.134 -0.2408  0.5313 -0.6296
23906SOL    HW173392   6.452   5.079   5.094 -0.1869 -0.7628 -1.1798
23906SOL    HW273393   6.383   5.064   5.228  1.0846 -2.0825 -0.6380
23907SOL     OW73394   6.717   4.840   8.409  0.3650  0.1949 -0.0704
23907SOL    HW173395   6.762   4.764   8.446 -1.6734 -0.8061  0.4435
23907SOL    HW273396   6.718   4.825   8.314 -0.9803 -1.0689  0.0875
23908SOL     OW73397   3.299   8.015   6.762  0.0415 -0.4563 -0.4541
23908SOL    HW173398   3.224   8.027   6.820  0.4657 -1.3254  0.3068
23908SOL    HW273399   3.281   8.072   6.688  0.6923  2.7349  1.6591
23909SOL     OW73400   3.837   9.235   7.526 -0.1081 -0.5413 -0.5978
23909SOL    HW173401   3.762   9.211   7.580  0.1580  1.1791  0.6091
23909SOL    HW273402   3.897   9.161   7.534 -0.9015 -1.1506 -0.1093
23910SOL     OW73403   8.512   7.291   5.618 -0.1180  0.0822  0.7930
23910SOL    HW173404   8.419   7.268   5.618 -0.2739  0.6241 -0.5281
23910SOL    HW273405   8.542   7.271   5.530  1.0654 -0.2103  1.2421
23911SOL     OW73406   0.487   6.577   8.397  0.4063 -0.6701 -0.8169
23911SOL    HW173407   0.505   6.562   8.305 -0.0791 -0.8667 -0.8820
23911SOL    HW273408   0.566   6.619   8.431  0.6406 -0.7332 -1.2869
23912SOL     OW73409   7.295   7.400   2.359  0.1128 -0.1620 -0.1285
23912SOL    HW173410   7.296   7.467   2.291 -1.9763 -1.3376 -1.4615
23912SOL    HW273411   7.377   7.353   2.348 -0.0879 -0.1995 -1.7797
23913SOL     OW73412   8.238   6.782   1.482 -0.0289  0.5943  0.5913
23913SOL    HW173413   8.282   6.755   1.562  1.5143  1.8931  0.2277
23913SOL    HW273414   8.257   6.876   1.474 -0.5596  0.6014 -1.0184
23914SOL     OW73415   4.193   8.240   5.284  0.1329 -0.3156 -0.7485
23914SOL    HW173416   4.111   8.193   5.264 -0.5404 -0.2258  1.5117
23914SOL    HW273417   4.176   8.282   5.368  2.2951  0.2766 -0.5618
23915SOL     OW73418   0.560   0.085   0.869  0.0842  0.1533  0.1830
23915SOL    HW173419   0.627   0.149   0.893  0.4859  0.1223 -0.8009
23915SOL    HW273420   0.597   0.038   0.794 -2.3128  2.4525 -2.7512
23916SOL     OW73421   5.262   0.393   7.754  0.2050  0.1513  0.2103
23916SOL    HW173422   5.214   0.327   7.704  0.6777 -0.9070  1.1151
23916SOL    HW273423   5.336   0.346   7.791  0.1714  1.0336  1.4648
23917SOL     OW73424   0.896   0.312   3.434  0.0077 -0.6235  0.2515
23917SOL    HW173425   0.801   0.320   3.433 -0.0291 -1.0245 -0.5234
23917SOL    HW273426   0.921   0.325   3.525 -0.6927  0.5906  0.2797
23918SOL     OW73427   9.337   0.395   2.836  0.0568 -0.0187  0.5975
23918SOL    HW173428   9.260   0.421   2.785 -0.6289 -1.1786  1.0069
23918SOL    HW273429   9.343   0.459   2.906  0.7801  1.3753 -0.6710
23919SOL     OW73430   4.306   8.901   5.399  0.1481  0.1152 -0.0381
23919SOL    HW173431   4.351   8.950   5.330  0.3173  0.1677  0.1077
23919SOL    HW273432   4.229   8.863   5.356 -0.2359  0.8883 -0.0498
23920SOL     OW73433   1.779   9.520   7.744  0.3130  0.0830  0.0621
23920SOL    HW173434   1.727   9.467   7.805 -1.7158  1.8101 -0.0722
23920SOL    HW273435   1.844   9.563   7.800  0.2855 -0.4965  0.5548
23921SOL     OW73436   9.127   7.319   8.512 -0.5341  0.4265  0.1931
23921SOL    HW173437   9.104   7.346   8.601  0.1453  0.5624  0.3310
23921SOL    HW273438   9.222   7.311   8.513 -0.5456  0.1595 -0.4495
23922SOL     OW73439   3.420   4.544   2.969 -0.3939 -0.4003  0.4201
23922SOL    HW173440   3.472   4.473   2.933 -1.1520 -1.0517  0.5672
23922SOL    HW273441   3.346   4.553   2.909 -0.2669  0.3089  0.3671
23923SOL     OW73442   0.414   5.864   2.746 -0.2565  0.4175  0.8833
23923SOL    HW173443   0.363   5.796   2.790  0.2772 -0.3430  0.3354
23923SOL    HW273444   0.396   5.944   2.797  0.1300 -0.3773  2.3318
23924SOL     OW73445   7.418   3.614   7.270 -0.6393  0.3651  0.1148
23924SOL    HW173446   7.418   3.691   7.327  0.2221  0.9565 -0.6525
23924SOL    HW273447   7.361   3.551   7.314 -1.1184  1.3319  0.9046
23925SOL     OW73448   2.537   7.339   3.754  0.6211 -0.3750  0.3111
23925SOL    HW173449   2.589   7.410   3.791  0.5527 -0.4687  0.5852
23925SOL    HW273450   2.593   7.302   3.686  1.2070 -0.9444  1.0852
23926SOL     OW73451   3.994   7.866   0.062  0.2069 -0.1795 -0.4103
23926SOL    HW173452   3.918   7.866   0.004 -0.6076 -3.1520  0.4839
23926SOL    HW273453   3.971   7.925   0.133 -0.2937  0.6814 -1.2759
23927SOL     OW73454   9.673   1.027   3.159 -0.3181 -0.0204  0.2213
23927SOL    HW173455   9.600   1.013   3.219 -0.2277 -0.3310  0.2570
23927SOL    HW273456   9.751   1.011   3.211 -0.2451 -2.7433 -0.5533
23928SOL     OW73457   5.663   2.741   5.046 -0.1029  0.3475 -0.2865
23928SOL    HW173458   5.568   2.728   5.048  0.0769 -1.0803  0.5324
23928SOL    HW273459   5.691   2.695   4.967 -0.0257  0.2334 -0.1928
23929SOL     OW73460   0.111   2.695   9.628 -0.0074  0.2539 -0.0156
23929SOL    HW173461   0.074   2.776   9.591 -1.7655 -0.4501  0.0886
23929SOL    HW273462   0.164   2.725   9.701  1.2756  1.4687 -1.3723
23930SOL     OW73463   5.323   8.890   8.439  0.2815 -0.4138  0.0016
23930SOL    HW173464   5.403   8.905   8.489  0.9091 -1.9771 -0.4743
23930SOL    HW273465   5.317   8.966   8.381  0.8919  0.1918  0.6990
23931SOL     OW73466   0.810   5.551   9.300 -0.2367  0.2775 -0.3119
23931SOL    HW173467   0.807   5.489   9.372  0.1834 -1.3087 -1.6014
23931SOL    HW273468   0.719   5.582   9.291 -0.8839 -1.6225 -0.8283
23932SOL     OW73469   6.741   4.661   6.813  0.0226 -0.6013 -0.7274
23932SOL    HW173470   6.696   4.582   6.784 -1.7886  0.3758 -0.7216
23932SOL    HW273471   6.740   4.719   6.738  0.1752 -0.0873 -0.3422
23933SOL     OW73472   9.453   2.329   6.608 -0.1342 -0.7641 -0.0891
23933SOL    HW173473   9.516   2.369   6.548  0.5530  1.1408  1.7939
23933SOL    HW273474   9.374   2.383   6.599  0.4338  0.4378  1.6601
23934SOL     OW73475   1.374   4.626   5.253 -0.1599 -0.0672  0.3833
23934SOL    HW173476   1.396   4.559   5.188 -1.5432  0.6080 -0.8781
23934SOL    HW273477   1.428   4.606   5.329  1.0709 -1.2756 -0.7609
23935SOL     OW73478   6.467   0.230   1.735 -0.4144 -0.8654 -0.3723
23935SOL    HW173479   6.453   0.140   1.706 -1.6696 -0.1309 -2.1793
23935SOL    HW273480   6.380   0.263   1.754  0.1970 -0.7182  2.6940
23936SOL     OW73481   6.467   4.948   4.692 -0.3070  0.3723  0.5937
23936SOL    HW173482   6.431   5.027   4.732  0.4988  0.8962  0.2935
23936SOL    HW273483   6.431   4.948   4.602  0.5251  0.9575  0.2563
23937SOL     OW73484   6.986   1.165   1.837  0.4111  0.2331 -0.6279
23937SOL    HW173485   6.904   1.123   1.810 -0.6989 -0.1949  2.9432
23937SOL    HW273486   6.968   1.259   1.829 -0.5351  0.1491  0.2766
23938SOL     OW73487   5.713   5.344   6.870 -0.1491  0.2809  0.2319
23938SOL    HW173488   5.796   5.332   6.916 -0.2210 -0.3691  0.2098
23938SOL    HW273489   5.738   5.383   6.786  0.6535 -3.3305 -1.4336
23939SOL     OW73490   7.662   6.578   7.657  0.3864  0.1687  0.1687
23939SOL    HW173491   7.645   6.632   7.734  0.7388  0.3947  0.0900
23939SOL    HW273492   7.692   6.639   7.590  0.4725 -0.0781 -0.0217
23940SOL     OW73493   4.282   4.790   2.797 -0.2493 -0.1898 -0.0947
23940SOL    HW173494   4.365   4.799   2.751 -0.6525  1.2608 -0.5989
23940SOL    HW273495   4.216   4.784   2.728 -0.6750 -0.0138  0.2906
23941SOL     OW73496   8.235   7.219   3.446 -0.6700  0.1970  0.1480
23941SOL    HW173497   8.329   7.207   3.433 -0.6010 -0.0339  0.8150
23941SOL    HW273498   8.201   7.130   3.455 -0.7000  0.3250  1.5436
23942SOL     OW73499   2.477   5.167   9.197 -0.3283 -0.1398 -0.1667
23942SOL    HW173500   2.476   5.240   9.135 -2.3503  2.2411  2.3755
23942SOL    HW273501   2.410   5.107   9.164  0.6946 -0.4469 -1.7930
23943SOL     OW73502   7.052   4.922   6.939 -0.0265 -0.4053 -0.0868
23943SOL    HW173503   6.999   4.972   6.877  2.0414 -0.6143 -2.1765
23943SOL    HW273504   6.989   4.869   6.987 -1.8153  0.3384 -1.4871
23944SOL     OW73505   5.971   0.289   6.602 -0.4262  0.1574 -0.2447
23944SOL    HW173506   6.003   0.378   6.593  0.5671 -0.3910 -2.9383
23944SOL    HW273507   5.890   0.298   6.653  0.9014  2.2452  1.6855
23945SOL     OW73508   3.201   8.481   7.175  0.0678 -0.0024  0.3060
23945SOL    HW173509   3.272   8.434   7.219 -0.8083 -1.1395  0.5180
23945SOL    HW273510   3.205   8.452   7.084  0.5181  0.7365  0.0735
23946SOL     OW73511   7.402   6.640   0.043  0.5178  0.0570 -0.3757
23946SOL    HW173512   7.432   6.686   0.122 -1.4259  2.2567 -0.7985
23946SOL    HW273513   7.472   6.654  -0.021  1.6010 -0.7872  0.5789
23947SOL     OW73514   5.424   1.455   3.024  0.2613 -0.1277 -0.1330
23947SOL    HW173515   5.448   1.367   3.052  2.6348  0.4608 -0.0439
23947SOL    HW273516   5.398   1.445   2.932  1.1944 -0.8418 -0.3359
23948SOL     OW73517   3.133   3.395   8.206  0.9976  0.1551  0.0399
23948SOL    HW173518   3.211   3.410   8.153  0.8100  0.0819 -0.2606
23948SOL    HW273519   3.165   3.355   8.286  1.2594  0.0351 -0.1246
23949SOL     OW73520   5.288   5.739   9.196 -0.1315  0.5120 -0.6363
23949SOL    HW173521   5.368   5.723   9.246  1.1916  1.4444 -2.3036
23949SOL    HW273522   5.235   5.795   9.253 -0.0978 -0.9780  0.9193
23950SOL     OW73523   4.012   2.540   8.025  0.2530  0.5428 -0.3711
23950SOL    HW173524   4.105   2.529   8.042 -0.1858 -0.4344  1.7889
23950SOL    HW273525   3.987   2.617   8.077 -0.4985 -0.4242  0.7568
23951SOL     OW73526   7.631   3.991   6.929  0.4640 -0.1647  0.6439
23951SOL    HW173527   7.650   3.910   6.881 -0.1237 -0.0752  0.2476
23951SOL    HW273528   7.591   3.961   7.011 -3.0892 -0.2636 -0.9613
23952SOL     OW73529   3.435   9.228   6.670  0.0202  0.3640 -0.2094
23952SOL    HW173530   3.433   9.162   6.601 -1.2439  0.9529 -0.7615
23952SOL    HW273531   3.370   9.293   6.644 -0.6300  0.5153  1.6394
23953SOL     OW73532   4.118   2.438   4.668  0.0945  0.0041 -0.2572
23953SOL    HW173533   4.029   2.473   4.671  0.8208  2.0416 -1.1556
23953SOL    HW273534   4.134   2.421   4.575  1.3646  1.6782 -0.3733
23954SOL     OW73535   7.400   2.339   6.541 -0.0489 -0.5440  0.0058
23954SOL    HW173536   7.459   2.360   6.613  0.6700  0.9899 -0.9714
23954SOL    HW273537   7.422   2.403   6.473 -2.0024 -0.7122 -0.8555
23955SOL     OW73538   1.530   0.028   5.436 -0.2880  0.6419 -0.6207
23955SOL    HW173539   1.482  -0.013   5.364 -0.7728  0.5222 -0.2277
23955SOL    HW273540   1.550   0.116   5.404 -0.1387  0.4506 -1.0643
23956SOL     OW73541   4.610   0.292   2.728  0.5122  0.0737  0.5108
23956SOL    HW173542   4.576   0.344   2.655 -0.5714  2.0860  2.3290
23956SOL    HW273543   4.691   0.254   2.695 -0.7121 -0.3816 -2.2131
23957SOL     OW73544   1.887   6.794   0.077 -0.2670 -0.1889 -0.6222
23957SOL    HW173545   1.879   6.724   0.011  0.6487  0.6591 -1.6949
23957SOL    HW273546   1.979   6.789   0.105 -0.0608  0.8388 -1.0499
23958SOL     OW73547   7.330   8.873   4.540  0.6601 -0.2258 -0.2542
23958SOL    HW173548   7.289   8.948   4.497  1.3732  0.3819  0.1025
23958SOL    HW273549   7.291   8.797   4.498 -0.5679  0.3286 -0.1678
23959SOL     OW73550   4.110   1.429   0.460  0.4733  0.4711  0.5446
23959SOL    HW173551   4.161   1.400   0.384  0.5600 -0.6978  1.0367
23959SOL    HW273552   4.117   1.358   0.523 -1.2386  0.5604  0.8849
23960SOL     OW73553   2.389   1.760   0.506  0.4720 -0.1749 -0.2293
23960SOL    HW173554   2.332   1.692   0.542  0.6109  0.8310  2.0911
23960SOL    HW273555   2.472   1.748   0.551  0.5663  1.3459  0.0547
23961SOL     OW73556   5.581   3.388   4.450  0.0169  0.2739  0.4038
23961SOL    HW173557   5.611   3.338   4.374  1.9131  1.7193  0.1403
23961SOL    HW273558   5.622   3.344   4.525  2.0786  1.5851  0.1349
23962SOL     OW73559   5.294   1.620   3.328  0.5310 -0.1506 -0.1895
23962SOL    HW173560   5.359   1.554   3.305  1.7654  1.4495 -1.5386
23962SOL    HW273561   5.345   1.693   3.365 -0.3105  1.5385 -2.1407
23963SOL     OW73562   5.879   9.106   0.869 -0.3555 -0.2429  0.3128
23963SOL    HW173563   5.833   9.022   0.877  0.0699 -0.4538  0.5867
23963SOL    HW273564   5.971   9.084   0.883 -0.5095  0.7375  3.7982
23964SOL     OW73565   3.840   2.308   4.454 -0.4818 -0.6138  0.3884
23964SOL    HW173566   3.862   2.375   4.518 -0.3912  1.1791 -1.4193
23964SOL    HW273567   3.917   2.251   4.450 -0.3282 -0.4991  1.5193
23965SOL     OW73568   9.370   9.041   0.820  0.2581  0.2390  0.5065
23965SOL    HW173569   9.459   9.044   0.855 -0.1554 -0.1280  1.6421
23965SOL    HW273570   9.364   8.956   0.778  0.1637 -0.1236  1.2400
23966SOL     OW73571   8.569   2.097   4.482 -0.1263 -0.3213  0.1966
23966SOL    HW173572   8.500   2.105   4.548  0.9924 -1.3948  1.5824
23966SOL    HW273573   8.603   2.008   4.495  1.1051 -0.0223 -0.8536
23967SOL     OW73574   4.798   4.233   7.888 -0.3883 -0.4435  0.9047
23967SOL    HW173575   4.869   4.291   7.913 -0.4313  0.8407 -1.6200
23967SOL    HW273576   4.842   4.152   7.861  0.1333  0.1463 -0.1024
23968SOL     OW73577   4.299   1.855   5.434  0.0019 -0.1854 -0.1511
23968SOL    HW173578   4.312   1.844   5.340  2.4516  1.3549 -0.0659
23968SOL    HW273579   4.282   1.948   5.446 -1.4145 -0.5358  0.8622
23969SOL     OW73580   7.100   1.709   9.466 -0.3215 -0.0900 -0.0258
23969SOL    HW173581   7.009   1.687   9.444 -0.1782  0.0091 -0.7227
23969SOL    HW273582   7.130   1.765   9.394  0.3257 -0.2054  0.1469
23970SOL     OW73583   9.051   0.267   3.517  0.4233 -0.1961 -0.5641
23970SOL    HW173584   9.070   0.360   3.518 -0.8167  0.0866  0.7511
23970SOL    HW273585   9.014   0.250   3.431  0.0238  0.6744 -0.5693
23971SOL     OW73586   9.212   1.887   3.861 -0.2480 -0.6247 -0.2348
23971SOL    HW173587   9.266   1.925   3.930  0.6882 -2.8305  0.3649
23971SOL    HW273588   9.124   1.886   3.897 -0.1812  0.3433 -0.0215
23972SOL     OW73589   5.577   6.125   1.727  0.0315 -0.5255  0.1339
23972SOL    HW173590   5.669   6.146   1.715 -0.1634  1.5892  1.7867
23972SOL    HW273591   5.565   6.121   1.822 -1.4288 -1.6516 -0.0499
23973SOL     OW73592   3.428   7.755   3.911  0.4529 -0.0528  0.4181
23973SOL    HW173593   3.407   7.678   3.964 -1.7266 -1.0937 -1.7886
23973SOL    HW273594   3.390   7.829   3.959 -0.4834 -0.8136  0.8704
23974SOL     OW73595   2.330   6.154   4.923 -0.1980 -0.0872  0.0768
23974SOL    HW173596   2.340   6.102   4.843  2.4072 -1.2658  1.0503
23974SOL    HW273597   2.340   6.245   4.894  0.4856 -0.4821 -0.9721
23975SOL     OW73598   8.972   2.665   2.419 -0.0629  0.4490  0.1192
23975SOL    HW173599   8.974   2.760   2.425  1.5836  0.4291  0.3620
23975SOL    HW273600   8.902   2.638   2.479 -0.6332  1.4964 -0.0577
23976SOL     OW73601   2.392   3.088   2.361  1.1593 -0.1625 -0.0939
23976SOL    HW173602   2.332   3.123   2.426 -1.0009  1.2171 -2.6468
23976SOL    HW273603   2.448   3.162   2.337  1.7533 -0.5813 -0.0370
23977SOL     OW73604   0.797   9.148   2.355 -0.2539 -0.3059 -0.2546
23977SOL    HW173605   0.768   9.161   2.264 -2.1123 -0.2282  0.3057
23977SOL    HW273606   0.759   9.221   2.403 -0.6326 -1.1904  0.8480
23978SOL     OW73607   2.985   9.382   7.689  0.3991  0.1692  0.4767
23978SOL    HW173608   3.072   9.358   7.660  0.5586  0.0928  1.0078
23978SOL    HW273609   2.954   9.444   7.623  0.6913 -0.1140  0.0688
23979SOL     OW73610   5.168   1.963   9.194 -0.4239 -0.0716 -0.2123
23979SOL    HW173611   5.170   1.926   9.282 -0.7116  0.4281  0.0045
23979SOL    HW273612   5.222   1.903   9.142  1.0251  0.4658  0.6201
23980SOL     OW73613   1.882   4.919   1.907  0.5396 -0.2209  0.0079
23980SOL    HW173614   1.820   4.896   1.839 -0.6789  0.2147  0.9460
23980SOL    HW273615   1.929   4.838   1.925  1.6309 -0.1104 -2.0532
23981SOL     OW73616   5.212   7.444   0.721  0.1661 -0.9566  0.4548
23981SOL    HW173617   5.157   7.374   0.686  0.6564 -1.1107 -0.0240
23981SOL    HW273618   5.235   7.415   0.809  0.2162 -1.3111  0.3250
23982SOL     OW73619   6.591   0.127   2.688 -0.4514 -0.2260  0.3783
23982SOL    HW173620   6.537   0.048   2.683 -0.1356 -0.4313  0.2336
23982SOL    HW273621   6.669   0.107   2.636 -0.4159  0.2159  0.2541
23983SOL     OW73622   5.965   2.057   3.624 -0.1671  0.2309 -0.1455
23983SOL    HW173623   5.976   2.149   3.644  0.2132  0.2615 -0.4713
23983SOL    HW273624   5.947   2.055   3.529 -3.6612  0.2387  0.3787
23984SOL     OW73625   8.145   7.706   1.046 -0.1520 -0.3955 -0.1158
23984SOL    HW173626   8.145   7.705   0.950 -0.8448 -1.7051 -0.1227
23984SOL    HW273627   8.176   7.618   1.070  1.5367  0.4295  0.8855
23985SOL     OW73628   4.744   8.130   2.059 -0.3838  0.0460 -0.6939
23985SOL    HW173629   4.738   8.143   1.965  1.7553  0.0741 -0.8765
23985SOL    HW273630   4.821   8.180   2.085 -0.8461 -0.0889  1.0652
23986SOL     OW73631   4.026   4.989   7.401 -0.2479  0.2250 -1.0274
23986SOL    HW173632   4.054   4.901   7.377  0.3766 -0.2994  1.3789
23986SOL    HW273633   3.963   4.976   7.471  0.0786  1.6898 -0.4276
23987SOL     OW73634   2.623   5.921   1.031 -0.0882 -0.0955  0.6336
23987SOL    HW173635   2.669   5.852   1.079 -0.6107  0.7384  2.4427
23987SOL    HW273636   2.649   6.002   1.077 -0.4062  0.7795 -0.6931
23988SOL     OW73637   7.749   4.405   4.792  0.0415  0.0434  0.4702
23988SOL    HW173638   7.801   4.474   4.751 -0.4965 -0.1909 -0.6223
23988SOL    HW273639   7.683   4.452   4.843  0.5117  0.3347  0.8213
23989SOL     OW73640   1.438   0.635   0.215  0.0852 -0.6828  0.5131
23989SOL    HW173641   1.353   0.622   0.175  0.9834 -1.1087 -1.3495
23989SOL    HW273642   1.438   0.575   0.290 -1.2342 -0.6596  0.5574
23990SOL     OW73643   1.518   3.099   8.925 -0.3808 -0.1387  0.0540
23990SOL    HW173644   1.588   3.059   8.874  0.3726  1.1965 -0.0216
23990SOL    HW273645   1.475   3.159   8.863 -1.7650 -1.1236  0.0314
23991SOL     OW73646   3.260   9.187   8.679  0.1223 -0.7065 -0.2616
23991SOL    HW173647   3.199   9.119   8.708 -2.2823  1.1909 -0.6193
23991SOL    HW273648   3.278   9.164   8.588  0.1938 -1.4256 -0.0798
23992SOL     OW73649   1.482   9.049   2.482 -0.3889 -0.6505  0.0218
23992SOL    HW173650   1.499   9.037   2.575 -1.7020 -2.4987  0.0675
23992SOL    HW273651   1.534   9.126   2.458  1.1538 -1.0275  1.9231
23993SOL     OW73652   5.269   6.387   3.076 -0.7222 -0.1397 -0.2096
23993SOL    HW173653   5.278   6.319   3.009  1.1882  2.6995 -3.1039
23993SOL    HW273654   5.340   6.369   3.138 -0.8409 -1.3241 -0.4013
23994SOL     OW73655   3.156   0.672   4.527 -0.1901 -0.2025  0.0806
23994SOL    HW173656   3.147   0.578   4.515 -2.5006 -0.1414  0.8384
23994SOL    HW273657   3.066   0.706   4.527  0.5125  1.8651  0.8113
23995SOL     OW73658   6.539   9.378   0.926  0.2028 -0.2750 -0.7275
23995SOL    HW173659   6.495   9.463   0.920 -1.1288 -0.9377 -0.8507
23995SOL    HW273660   6.617   9.387   0.872 -0.4404  0.5632 -1.5480
23996SOL     OW73661   3.593   1.384   0.263  0.6569 -0.4179 -0.2756
23996SOL    HW173662   3.528   1.356   0.199  0.0845  0.4084 -0.0697
23996SOL    HW273663   3.569   1.339   0.344 -0.7038  1.1616  0.2512
23997SOL     OW73664   7.910   2.291   2.537  0.4452  0.4186  0.6636
23997SOL    HW173665   7.928   2.257   2.449  1.5574  0.5116  0.8358
23997SOL    HW273666   7.934   2.384   2.532 -1.3851  0.9347  0.5423
23998SOL     OW73667   5.948   8.953   3.582 -0.3978  0.0742  0.1582
23998SOL    HW173668   5.877   8.998   3.535  1.1669  0.0406 -2.4179
23998SOL    HW273669   5.905   8.880   3.626 -2.1795  0.9185 -0.0909
23999SOL     OW73670   2.329   2.493   7.397 -0.4567 -0.2414 -0.1741
23999SOL    HW173671   2.384   2.491   7.476 -0.1829  0.1196 -0.3472
23999SOL    HW273672   2.301   2.403   7.385  0.7522 -0.5979 -0.5238
24000SOL     OW73673   6.514   1.920   3.784  0.6200 -0.2273 -0.0395
24000SOL    HW173674   6.518   1.834   3.825 -0.9008 -0.5863 -0.5811
24000SOL    HW273675   6.501   1.902   3.691 -0.0582  0.5822 -0.1145
24001SOL     OW73676   1.240   0.947   7.617  0.0262 -0.3026 -0.3705
24001SOL    HW173677   1.204   0.890   7.550  1.1681 -2.2967  0.6240
24001SOL    HW273678   1.333   0.952   7.597  0.0694  0.6115  0.0086
24002SOL     OW73679   1.535   9.230   4.197  0.5287 -0.2139  0.8483
24002SOL    HW173680   1.468   9.179   4.151 -0.8184 -0.0159  2.5001
24002SOL    HW273681   1.502   9.320   4.195  1.8037  0.2574 -0.1292
24003SOL     OW73682   4.345   9.240   8.900  0.2260 -0.2076  0.1031
24003SOL    HW173683   4.302   9.155   8.906 -0.2498 -0.1196 -1.4505
24003SOL    HW273684   4.418   9.226   8.839  0.4321  0.3907  0.2014
24004SOL     OW73685   0.617   5.423   9.491 -0.3652 -0.2139 -0.3366
24004SOL    HW173686   0.572   5.346   9.456 -1.7081  0.7973 -0.9204
24004SOL    HW273687   0.549   5.474   9.533  0.3810  0.9554 -0.4898
24005SOL     OW73688   5.042   7.595   1.906 -0.4588 -0.6659  0.5318
24005SOL    HW173689   5.116   7.560   1.957  0.3497 -0.4193 -0.4398
24005SOL    HW273690   4.975   7.527   1.911  1.0909 -2.4410 -1.3597
24006SOL     OW73691   3.871   6.167   4.498  0.4593  0.0256 -0.7332
24006SOL    HW173692   3.884   6.160   4.592 -0.8584  1.9580 -0.3622
24006SOL    HW273693   3.959   6.180   4.462  0.8542  0.4587  0.3553
24007SOL     OW73694   7.460   7.831   1.718 -0.1154 -0.1234 -0.0775
24007SOL    HW173695   7.374   7.872   1.715  0.2443  0.7620  0.9812
24007SOL    HW273696   7.481   7.813   1.626 -1.4230 -0.3806 -0.3543
24008SOL     OW73697   7.736   7.923   6.941 -0.1319  0.4881 -0.7047
24008SOL    HW173698   7.716   7.879   6.858  0.0496  1.4524 -1.2900
24008SOL    HW273699   7.655   7.918   6.991  0.0400 -0.9308 -0.5434
24009SOL     OW73700   7.971   9.183   1.675 -0.0151 -0.1302 -0.2756
24009SOL    HW173701   7.989   9.252   1.610 -0.1128 -0.4721 -0.6727
24009SOL    HW273702   7.880   9.197   1.700 -0.2922 -0.6080 -0.9716
24010SOL     OW73703   8.638   3.982   3.797 -0.1711  0.6281 -0.4971
24010SOL    HW173704   8.669   3.910   3.743  1.7684  1.6888 -0.9252
24010SOL    HW273705   8.554   3.953   3.832  0.0961 -1.4059 -1.4351
24011SOL     OW73706   8.540   1.322   3.789  0.0010 -0.2729  0.1384
24011SOL    HW173707   8.468   1.273   3.829  0.1098  0.9522  1.9419
24011SOL    HW273708   8.520   1.321   3.696 -1.9627 -0.5954  0.5060
24012SOL     OW73709   0.118   2.656   4.652  0.0696  0.1246 -1.2282
24012SOL    HW173710   0.168   2.621   4.725  0.7379  1.7287 -0.8636
24012SOL    HW273711   0.031   2.673   4.688  0.0605 -0.1577 -1.1185
24013SOL     OW73712   4.885   8.122   8.887  0.0524 -0.4383  0.2807
24013SOL    HW173713   4.950   8.066   8.844 -0.7030 -0.7153 -0.5326
24013SOL    HW273714   4.898   8.108   8.980  1.4700 -0.1320  0.1459
24014SOL     OW73715   5.977   5.826   5.620 -0.2459 -0.5418 -0.4569
24014SOL    HW173716   5.948   5.770   5.548 -0.2767 -1.0754 -0.0327
24014SOL    HW273717   6.072   5.823   5.615 -0.2463  0.0037 -0.9176
24015SOL     OW73718   5.781   5.982   4.814 -0.6913  0.2070  0.0862
24015SOL    HW173719   5.698   5.935   4.812 -0.0441 -0.9736  0.3266
24015SOL    HW273720   5.813   5.979   4.724  1.3197 -3.5359  0.7056
24016SOL     OW73721   6.658   4.341   4.396 -0.0687 -0.3499  0.5298
24016SOL    HW173722   6.652   4.423   4.445 -1.1115 -0.5153  0.7012
24016SOL    HW273723   6.717   4.361   4.323 -0.7451  0.7272  0.2453
24017SOL     OW73724   1.254   7.630   1.696  0.2638 -0.0543  0.0709
24017SOL    HW173725   1.321   7.679   1.744 -0.0349  0.4467 -0.0248
24017SOL    HW273726   1.295   7.545   1.678  1.2941  0.6404 -0.9743
24018SOL     OW73727   3.331   5.804   0.746  0.2620  0.3104 -0.4332
24018SOL    HW173728   3.384   5.789   0.824 -1.5713 -1.0619  0.6315
24018SOL    HW273729   3.359   5.737   0.684  0.5410  0.3054 -0.3036
24019SOL     OW73730   5.260   2.506   1.902 -0.2876 -0.0908  0.4601
24019SOL    HW173731   5.305   2.437   1.951  0.6224 -0.3662 -0.7206
24019SOL    HW273732   5.200   2.459   1.844 -0.8312  0.1968  0.7830
24020SOL     OW73733   9.049   7.338   1.513  0.2763 -0.1030 -0.2195
24020SOL    HW173734   9.095   7.325   1.596 -1.2370 -0.2195  0.6177
24020SOL    HW273735   8.961   7.303   1.527 -0.3007  0.7087 -1.5783
24021SOL     OW73736   7.993   7.996   1.305  0.3298 -0.6333 -1.0718
24021SOL    HW173737   7.951   7.915   1.333  1.0455 -1.0479 -1.1923
24021SOL    HW273738   8.085   7.974   1.294  0.7314  0.4369 -0.1242
24022SOL     OW73739   5.234   2.351   1.320 -0.3900  0.1935  0.0590
24022SOL    HW173740   5.189   2.280   1.275  0.4632  0.1246 -0.7196
24022SOL    HW273741   5.302   2.379   1.258 -0.2339  1.1821  0.6597
24023SOL     OW73742   3.829   7.200   2.297  0.4812 -0.0520 -0.1258
24023SOL    HW173743   3.901   7.219   2.237  1.4905 -0.0777  1.0462
24023SOL    HW273744   3.751   7.203   2.242  1.4572 -1.1035 -1.6636
24024SOL     OW73745   5.956   8.882   7.391  0.4177 -0.0461 -0.1358
24024SOL    HW173746   6.007   8.801   7.387  0.3867 -0.0549 -0.3572
24024SOL    HW273747   5.986   8.932   7.315  1.2539  0.6299  0.6159
24025SOL     OW73748   6.466   2.452   1.157  0.2389  0.3648  0.6027
24025SOL    HW173749   6.417   2.479   1.080  2.4535  3.3633  0.0714
24025SOL    HW273750   6.413   2.482   1.231 -0.0755  0.9454  0.1465
24026SOL     OW73751   6.086   8.195   4.418  0.0382 -0.0950  0.2143
24026SOL    HW173752   6.132   8.258   4.474  1.5892  1.1551 -2.2696
24026SOL    HW273753   6.110   8.221   4.329 -1.9304 -2.2473 -1.0412
24027SOL     OW73754   2.218   6.516   7.869  0.0517 -0.2130  0.4654
24027SOL    HW173755   2.245   6.430   7.836 -0.7816 -0.0707 -0.6434
24027SOL    HW273756   2.300   6.564   7.880  0.7273 -1.8110  3.1458
24028SOL     OW73757   8.418   6.192   8.560  0.7916 -0.3513  0.4669
24028SOL    HW173758   8.456   6.279   8.548 -0.4474  0.1751  0.1520
24028SOL    HW273759   8.493   6.134   8.572  1.7683  0.4170 -1.4898
24029SOL     OW73760   4.351   8.724   5.654  0.0611 -0.5790  0.2182
24029SOL    HW173761   4.351   8.634   5.620  0.1409 -0.0619 -1.2186
24029SOL    HW273762   4.359   8.779   5.576  2.4777  0.6303  1.2275
24030SOL     OW73763   1.666   6.917   6.861 -0.2593 -0.1793 -0.5964
24030SOL    HW173764   1.591   6.970   6.837 -0.0405  0.4656  0.1192
24030SOL    HW273765   1.736   6.946   6.803 -0.2786 -0.0450 -0.5518
24031SOL     OW73766   8.476   9.020   8.059 -0.2769  0.5321  0.1632
24031SOL    HW173767   8.446   8.997   8.146  1.2570  0.9192  0.8219
24031SOL    HW273768   8.433   8.957   8.001 -2.0936  0.8851  1.0495
24032SOL     OW73769   8.542   4.245   0.996 -0.0385 -0.2168  0.2787
24032SOL    HW173770   8.564   4.171   0.939 -1.5321  0.4858 -1.3267
24032SOL    HW273771   8.546   4.322   0.938 -1.1839  0.5890  1.2264
24033SOL     OW73772   8.811   8.359   0.135 -0.1619  0.6369 -0.2107
24033SOL    HW173773   8.870   8.317   0.073  0.1101 -0.7417  0.9031
24033SOL    HW273774   8.730   8.373   0.086 -0.9962 -3.0583 -0.2524
24034SOL     OW73775   2.694   2.366   5.725  0.4438 -0.0905  0.3166
24034SOL    HW173776   2.631   2.300   5.699  0.8139 -1.0677  1.7902
24034SOL    HW273777   2.652   2.449   5.703 -0.3413 -0.7696 -0.8692
24035SOL     OW73778   1.173   6.363   6.176 -0.0493 -0.0680  0.7898
24035SOL    HW173779   1.113   6.422   6.130 -0.0795  1.3934  2.5979
24035SOL    HW273780   1.260   6.400   6.160 -0.0103  0.1165  1.3860
24036SOL     OW73781   0.174   2.489   3.697  0.0098  0.0385 -0.2244
24036SOL    HW173782   0.120   2.529   3.630 -1.2675 -0.6275  0.3727
24036SOL    HW273783   0.149   2.396   3.696 -1.0459  0.2266  2.0484
24037SOL     OW73784   6.427   1.422   1.507 -0.4636 -0.4802  0.0026
24037SOL    HW173785   6.344   1.386   1.535 -0.5540  0.3323  0.8144
24037SOL    HW273786   6.453   1.367   1.432 -1.4174 -1.1145  0.1218
24038SOL     OW73787   6.949   5.934   7.617  0.4583 -0.2620  0.0985
24038SOL    HW173788   6.957   5.838   7.615  0.1141 -0.3113  0.6764
24038SOL    HW273789   6.923   5.958   7.528 -0.6979 -0.8344  0.2686
24039SOL     OW73790   2.648   5.851   9.450  0.0685  0.6401 -0.4652
24039SOL    HW173791   2.648   5.841   9.355 -3.3697  0.1158 -0.5269
24039SOL    HW273792   2.626   5.943   9.464 -3.0323 -0.0262 -0.3259
24040SOL     OW73793   0.544   4.825   3.147 -0.1301  0.1521  0.1116
24040SOL    HW173794   0.456   4.857   3.168 -0.3653  0.4394 -1.2143
24040SOL    HW273795   0.588   4.818   3.231 -1.6782 -0.7411  0.8868
24041SOL     OW73796   3.000   9.455   7.978  0.2433 -0.8542 -0.6648
24041SOL    HW173797   3.012   9.438   7.885 -2.0887 -0.7036 -1.0382
24041SOL    HW273798   2.951   9.537   7.982 -0.2967 -1.2141  0.6711
24042SOL     OW73799   5.118   4.765   8.647  0.3775 -0.0300  0.5471
24042SOL    HW173800   5.057   4.824   8.603  1.4538  1.1325  0.5521
24042SOL    HW273801   5.142   4.701   8.580 -3.1075 -2.4425  1.3342
24043SOL     OW73802   4.053   6.456   2.018 -0.6918  0.4737  0.1601
24043SOL    HW173803   4.083   6.367   2.002 -0.1572  0.5462  0.7294
24043SOL    HW273804   3.999   6.450   2.097 -0.9506  0.5948 -0.0048
24044SOL     OW73805   7.274   8.172   1.731 -0.2454  0.4140 -0.3240
24044SOL    HW173806   7.226   8.150   1.811  0.5702  0.1218  0.0916
24044SOL    HW273807   7.229   8.123   1.662  0.7111 -1.5472  0.3763
24045SOL     OW73808   0.072   1.064   5.387  0.0230 -0.2300 -0.2979
24045SOL    HW173809   0.104   1.043   5.299  0.5516 -1.1374  0.0889
24045SOL    HW273810   0.075   1.159   5.392  1.1307 -0.2243 -0.8474
24046SOL     OW73811   7.878   7.086   9.517 -0.0025  0.0522  0.2116
24046SOL    HW173812   7.880   7.073   9.422  0.2472 -2.2096  0.4649
24046SOL    HW273813   7.941   7.022   9.551 -0.6337  0.3010  1.9386
24047SOL     OW73814   9.009   2.458   5.759  0.3430 -0.3633 -0.6627
24047SOL    HW173815   8.917   2.449   5.734  0.9520 -1.8599 -2.5529
24047SOL    HW273816   9.054   2.485   5.679  1.1505  3.9681  0.9901
24048SOL     OW73817   4.682   8.200   0.051 -0.5299 -0.0899  0.0836
24048SOL    HW173818   4.624   8.273   0.033  0.5362  0.6143 -0.6008
24048SOL    HW273819   4.641   8.125   0.006 -0.1819  0.7082 -1.6428
24049SOL     OW73820   6.478   4.808   0.432 -0.0724 -0.0058  0.6455
24049SOL    HW173821   6.516   4.720   0.428 -0.1202 -0.0301  0.7267
24049SOL    HW273822   6.506   4.841   0.518 -0.0045  0.0802  0.5894
24050SOL     OW73823   8.804   4.161   5.050  0.0680 -0.2103  0.2660
24050SOL    HW173824   8.841   4.183   4.965 -0.9369 -2.6301 -0.9022
24050SOL    HW273825   8.723   4.212   5.055  0.4912  0.4809  0.0944
24051SOL     OW73826   1.745   2.743   6.959  0.6745  0.2920 -0.6702
24051SOL    HW173827   1.679   2.783   7.016  0.3856  1.8102 -1.9752
24051SOL    HW273828   1.694   2.698   6.892  0.9601  0.5075 -1.0380
24052SOL     OW73829   9.240   6.730   5.058 -0.8032 -0.3915  0.4137
24052SOL    HW173830   9.274   6.758   5.143  1.9127  0.8577 -0.9675
24052SOL    HW273831   9.202   6.810   5.020  1.7895  0.2080 -1.1747
24053SOL     OW73832   5.893   6.815   7.438  0.3634 -0.6734  0.3017
24053SOL    HW173833   5.928   6.846   7.354  0.2583 -0.7063  0.2446
24053SOL    HW273834   5.802   6.845   7.437  0.3205 -0.8056  0.3378
24054SOL     OW73835   4.490   0.707   7.826  0.2715  0.0345  0.7396
24054SOL    HW173836   4.504   0.735   7.916  1.1670  1.4134  0.2015
24054SOL    HW273837   4.561   0.644   7.809 -0.2167 -0.6423  1.1415
24055SOL     OW73838   5.219   4.407   1.961  0.5296 -0.1414  0.1506
24055SOL    HW173839   5.174   4.488   1.983  0.7236  0.1308 -0.4236
24055SOL    HW273840   5.216   4.355   2.041  0.1742  0.3245  0.4453
24056SOL     OW73841   7.659   4.251   6.688  0.2063  0.2829  0.6418
24056SOL    HW173842   7.586   4.304   6.720 -0.2410  0.5696 -0.7896
24056SOL    HW273843   7.714   4.237   6.765 -1.0217  0.6073  1.6027
24057SOL     OW73844   5.922   0.597   6.932 -0.1519 -0.1986  0.2260
24057SOL    HW173845   5.842   0.588   6.880 -0.8168  0.4051  1.1150
24057SOL    HW273846   5.975   0.660   6.884 -0.5326 -0.0437  0.0023
24058SOL     OW73847   6.479   8.413   8.897 -0.0111 -0.5491 -0.3483
24058SOL    HW173848   6.448   8.342   8.841 -1.0284 -0.0546 -0.4180
24058SOL    HW273849   6.563   8.380   8.932 -0.5256 -1.8359 -0.2666
24059SOL     OW73850   1.256   8.697   6.077 -0.2882  0.2093 -0.0465
24059SOL    HW173851   1.349   8.716   6.080 -0.7068  2.4151  2.5804
24059SOL    HW273852   1.236   8.657   6.161 -1.9621  1.5370  0.2609
24060SOL     OW73853   4.736   2.641   3.108  0.1351 -0.3916 -0.3087
24060SOL    HW173854   4.818   2.638   3.060 -0.6140 -1.4058 -1.5707
24060SOL    HW273855   4.674   2.680   3.047 -0.2979  0.6047  0.7219
24061SOL     OW73856   6.048   8.865   6.053  0.0523  0.1852 -0.3865
24061SOL    HW173857   6.100   8.916   6.115  0.7880 -0.3225 -0.5738
24061SOL    HW273858   6.026   8.785   6.101 -0.2758  0.2514 -0.4247
24062SOL     OW73859   3.918   3.224   9.571  0.4307  0.0304 -0.3994
24062SOL    HW173860   3.983   3.242   9.639 -1.1378  0.6855  0.9953
24062SOL    HW273861   3.852   3.170   9.614 -0.1518 -0.3110 -1.6641
24063SOL     OW73862   8.079   5.899   0.387  0.1863 -0.2522 -0.0907
24063SOL    HW173863   8.113   5.921   0.474  1.0254 -0.4397 -0.3587
24063SOL    HW273864   8.020   5.971   0.365  0.3431  0.0371  0.4314
24064SOL     OW73865   4.641   3.142   3.343 -0.1444 -0.5156  0.2320
24064SOL    HW173866   4.631   3.070   3.405  0.1273 -0.2173  0.6308
24064SOL    HW273867   4.587   3.117   3.268 -0.0936 -1.1064  0.3859
24065SOL     OW73868   8.376   0.014   4.875  0.4224 -0.2721 -0.2177
24065SOL    HW173869   8.392   0.018   4.970  0.3006  0.2030 -0.2145
24065SOL    HW273870   8.326  -0.067   4.863  0.5132 -0.3816  0.1115
24066SOL     OW73871   9.469   3.779   2.336  0.2206  0.1152 -0.2165
24066SOL    HW173872   9.532   3.708   2.326 -0.5617 -0.5485 -0.5935
24066SOL    HW273873   9.520   3.852   2.372  1.2830 -0.2586 -0.9056
24067SOL     OW73874   5.881   1.504   3.154  0.1560  0.4857 -0.1775
24067SOL    HW173875   5.842   1.426   3.115 -1.4111  0.8516  0.5367
24067SOL    HW273876   5.975   1.491   3.146 -0.0889 -0.8637 -1.2371
24068SOL     OW73877   8.097   7.288   6.498  0.0535  0.2602 -0.1990
24068SOL    HW173878   8.140   7.208   6.469 -0.4457  0.1053 -0.5184
24068SOL    HW273879   8.108   7.288   6.593 -0.3253 -0.4134 -0.1488
24069SOL     OW73880   2.709   7.154   5.863  0.1387 -0.0156 -0.0329
24069SOL    HW173881   2.724   7.186   5.952  0.6028 -3.8423  1.4578
24069SOL    HW273882   2.791   7.172   5.817  1.2089 -0.9928  1.4002
24070SOL     OW73883   2.230   0.117   3.269  0.4248 -0.6178  0.5389
24070SOL    HW173884   2.229   0.061   3.347  0.7222 -0.2653  0.7993
24070SOL    HW273885   2.150   0.093   3.222  0.4830 -1.1700  0.7091
24071SOL     OW73886   5.537   0.560   8.318 -0.8934 -0.0203 -0.9648
24071SOL    HW173887   5.476   0.623   8.278 -0.5087  1.5353  0.7860
24071SOL    HW273888   5.513   0.557   8.410 -0.1549 -1.6106 -0.7837
24072SOL     OW73889   2.088   0.328   4.647  0.1008 -0.4438 -0.0006
24072SOL    HW173890   2.038   0.274   4.586 -1.2325  0.0450  0.6163
24072SOL    HW273891   2.175   0.336   4.607 -0.2807 -1.3961 -1.0618
24073SOL     OW73892   6.626   8.334   6.010 -0.0938  0.3392  0.3348
24073SOL    HW173893   6.552   8.393   6.023 -0.1171  0.9865 -2.2678
24073SOL    HW273894   6.588   8.247   6.016 -0.9702  0.6554 -0.4304
24074SOL     OW73895   5.752   8.088   8.115 -0.0040  0.5153 -0.4700
24074SOL    HW173896   5.779   8.179   8.103  1.8481  0.0705 -0.0303
24074SOL    HW273897   5.818   8.052   8.175 -1.8638 -0.5728  1.0159
24075SOL     OW73898   6.457   9.506   8.102  0.2074 -0.1958 -0.2330
24075SOL    HW173899   6.503   9.430   8.066 -0.0305 -1.6502  2.3269
24075SOL    HW273900   6.399   9.469   8.169 -1.5456  2.0462 -0.4024
24076SOL     OW73901   4.769   5.999   0.206 -0.4005 -0.1524 -0.3526
24076SOL    HW173902   4.680   5.976   0.233  0.1939 -2.5373 -0.2200
24076SOL    HW273903   4.798   6.064   0.270 -0.3430 -2.9556  2.6760
24077SOL     OW73904   8.545   2.323   1.183  0.0788 -0.4402  0.3211
24077SOL    HW173905   8.553   2.326   1.278 -2.5137 -0.0073  0.6009
24077SOL    HW273906   8.506   2.407   1.158 -0.2784 -0.9522 -0.9835
24078SOL     OW73907   9.396   3.399   3.525  0.6946  0.3195  0.1400
24078SOL    HW173908   9.467   3.450   3.488  0.2496  0.4918 -0.4877
24078SOL    HW273909   9.438   3.318   3.554  1.2190  0.6005  0.1781
24079SOL     OW73910   4.909   4.545   9.105  0.1583  0.3536  0.0252
24079SOL    HW173911   4.873   4.591   9.030  0.5479  0.2891 -0.2033
24079SOL    HW273912   5.004   4.551   9.094  0.2366 -1.2829 -0.4958
24080SOL     OW73913   3.795   5.168   2.617 -0.1905 -0.5389 -0.3605
24080SOL    HW173914   3.838   5.106   2.676  0.5690 -1.2363 -1.6197
24080SOL    HW273915   3.725   5.118   2.575 -1.3008  0.1919  0.5551
24081SOL     OW73916   1.246   2.721   7.957 -0.1966 -0.2068 -0.3102
24081SOL    HW173917   1.193   2.643   7.974  0.3363 -0.5953 -0.3894
24081SOL    HW273918   1.298   2.698   7.880  0.7890 -0.2000  0.3349
24082SOL     OW73919   8.748   5.991   0.836  0.0373 -0.0747  0.4459
24082SOL    HW173920   8.749   6.085   0.821 -0.2245 -0.1968 -0.3825
24082SOL    HW273921   8.754   5.952   0.749 -0.0430 -0.8267  0.7612
24083SOL     OW73922   6.320   2.682   9.636  0.5344  0.1445 -0.7201
24083SOL    HW173923   6.241   2.646   9.596  0.5322  0.1869 -0.7533
24083SOL    HW273924   6.305   2.776   9.641  0.9339  0.2576 -1.5051
24084SOL     OW73925   4.846   9.265   5.352  0.1146 -0.2532 -0.3913
24084SOL    HW173926   4.895   9.289   5.431  0.9395  0.2675 -1.0491
24084SOL    HW273927   4.789   9.341   5.335  0.0623 -0.2935 -0.3969
24085SOL     OW73928   4.290   3.819   9.067 -0.3917 -0.2438  0.8113
24085SOL    HW173929   4.310   3.779   9.152 -1.1921 -0.0341  1.1102
24085SOL    HW273930   4.229   3.890   9.088  0.8153  0.9949  0.2649
24086SOL     OW73931   1.296   2.739   6.907 -0.1723  0.0110 -0.6054
24086SOL    HW173932   1.300   2.759   7.001  2.7817  0.7167 -0.7915
24086SOL    HW273933   1.277   2.645   6.903  1.2054 -0.3649  0.7776
24087SOL     OW73934   5.686   1.165   1.637  0.5237 -0.1681  0.7045
24087SOL    HW173935   5.754   1.101   1.659  1.5342  1.1033  1.4259
24087SOL    HW273936   5.604   1.118   1.650  1.2449 -1.5591  0.4283
24088SOL     OW73937   5.417   5.743   3.176 -0.4711  0.2845 -0.8273
24088SOL    HW173938   5.470   5.821   3.194 -1.9612  1.3111 -0.6279
24088SOL    HW273939   5.459   5.703   3.100  1.2337  0.3911  0.0085
24089SOL     OW73940   5.268   1.937   3.271 -0.0723 -0.2560  0.6337
24089SOL    HW173941   5.316   1.881   3.332 -0.2765 -1.7924 -0.5659
24089SOL    HW273942   5.177   1.929   3.299 -0.0011  0.2283  1.0227
24090SOL     OW73943   1.427   7.080   1.197 -0.0259 -0.2587 -0.3768
24090SOL    HW173944   1.496   7.027   1.236 -1.4602 -1.7455  0.2458
24090SOL    HW273945   1.458   7.098   1.108  0.9766 -1.2294 -0.2455
24091SOL     OW73946   6.003   2.820   4.684 -0.5494 -0.0506  0.4757
24091SOL    HW173947   6.044   2.850   4.603 -0.3971 -0.6761  0.3130
24091SOL    HW273948   5.912   2.847   4.676 -0.8883 -1.3827 -0.5849
24092SOL     OW73949   1.687   8.649   1.662  0.7020  0.0207  0.2787
24092SOL    HW173950   1.611   8.663   1.605  1.3777  1.4018 -0.3280
24092SOL    HW273951   1.652   8.662   1.750 -0.0217 -0.5532  0.0896
24093SOL     OW73952   7.863   8.167   3.476  0.2523 -0.5698  0.5480
24093SOL    HW173953   7.905   8.167   3.390 -0.5804 -1.3154  0.1203
24093SOL    HW273954   7.875   8.256   3.509 -0.4073  0.0519 -0.8418
24094SOL     OW73955   6.104   1.218   9.094  0.3347 -0.1060  0.1990
24094SOL    HW173956   6.023   1.183   9.056  0.6236 -1.0000  0.3847
24094SOL    HW273957   6.174   1.179   9.041  0.6831 -0.1450  0.6851
24095SOL     OW73958   6.608   9.285   0.027 -0.0502  0.1521  0.3432
24095SOL    HW173959   6.516   9.312   0.027  0.0854  0.8014  2.7325
24095SOL    HW273960   6.628   9.266   0.118  2.0682 -0.5102 -0.1912
24096SOL     OW73961   4.012   2.654   3.561  0.0044  0.1058  0.2400
24096SOL    HW173962   4.077   2.683   3.626 -0.0408  1.2304 -0.2033
24096SOL    HW273963   4.044   2.569   3.532 -0.7423 -1.1673  2.8048
24097SOL     OW73964   2.957   3.106   5.464 -0.3430 -0.1509 -0.4469
24097SOL    HW173965   2.924   3.189   5.428  0.0509 -0.0292 -0.5399
24097SOL    HW273966   2.959   3.047   5.388 -0.4655 -0.1934 -0.4161
24098SOL     OW73967   3.058   8.690   4.003  0.1627 -0.1966 -0.0872
24098SOL    HW173968   3.125   8.624   3.985  0.5852  0.1276  0.2775
24098SOL    HW273969   3.105   8.760   4.048 -0.4617 -0.0485  0.3440
24099SOL     OW73970   8.908   3.743   6.152  0.5379 -0.4200  0.0461
24099SOL    HW173971   8.983   3.684   6.140 -0.0491 -0.7681 -2.3687
24099SOL    HW273972   8.948   3.828   6.170  1.4738 -0.8507  0.0840
24100SOL     OW73973   3.426   2.004   2.898  0.4889 -0.0460  0.0128
24100SOL    HW173974   3.350   2.018   2.842 -1.2504 -2.2490  1.6281
24100SOL    HW273975   3.425   2.076   2.961 -0.2510 -0.0408 -0.0027
24101SOL     OW73976   8.671   3.465   7.186 -0.2177 -0.1760 -0.7287
24101SOL    HW173977   8.753   3.513   7.192  1.2932 -2.4588 -1.8275
24101SOL    HW273978   8.661   3.423   7.272 -0.6148  0.5954 -0.3814
24102SOL     OW73979   5.793   0.655   5.043  0.7220 -0.5166  0.5357
24102SOL    HW173980   5.748   0.657   4.959 -0.9158  1.5402  1.3473
24102SOL    HW273981   5.838   0.739   5.048  0.9816 -0.6955  1.5962
24103SOL     OW73982   3.383   1.657   1.966  0.5005 -0.7784  0.1247
24103SOL    HW173983   3.430   1.732   2.002  1.6906  0.3878 -3.4404
24103SOL    HW273984   3.293   1.669   1.996  0.9241  1.3723  0.7213
24104SOL     OW73985   4.324   7.707   2.902 -0.4378  0.1077  0.0171
24104SOL    HW173986   4.294   7.632   2.954 -2.9885  2.0022  1.5099
24104SOL    HW273987   4.376   7.759   2.963  2.0455 -0.7371 -1.2445
24105SOL     OW73988   5.553   2.214   4.820 -0.0619  0.6491  0.4690
24105SOL    HW173989   5.464   2.249   4.827 -0.0467  0.9889 -0.7147
24105SOL    HW273990   5.540   2.123   4.796 -0.0863  0.3119  1.6998
24106SOL     OW73991   5.763   2.279   5.376 -0.0866 -0.8750 -0.1307
24106SOL    HW173992   5.683   2.232   5.400 -1.2876  0.5681 -1.0874
24106SOL    HW273993   5.740   2.323   5.294  1.2226  0.7273  0.3251
24107SOL     OW73994   8.465   6.717   8.803 -0.4157  0.3509 -0.3538
24107SOL    HW173995   8.403   6.778   8.843 -2.6768 -1.3394 -1.0651
24107SOL    HW273996   8.494   6.762   8.723  1.0015  2.0509  1.0424
24108SOL     OW73997   2.020   5.888   0.852  0.7271  0.1106 -0.3936
24108SOL    HW173998   2.014   5.932   0.937  0.0711  2.1699 -1.4426
24108SOL    HW273999   1.944   5.829   0.851  0.8249 -0.0548  0.4931
24109SOL     OW74000   3.201   7.136   8.745  0.3920 -0.1741 -0.4479
24109SOL    HW174001   3.150   7.208   8.709 -1.2191 -1.3862 -0.7208
24109SOL    HW274002   3.292   7.159   8.727 -0.0799  1.7774 -0.5019
24110SOL     OW74003   3.066   2.935   6.508  0.1164 -0.1770 -0.3047
24110SOL    HW174004   3.127   2.976   6.447 -0.2691 -0.1073 -0.6534
24110SOL    HW274005   3.045   3.004   6.571 -0.0503 -0.0226 -0.5264
24111SOL     OW74006   3.126   3.588   9.578  0.0324 -0.0750  0.5316
24111SOL    HW174007   3.144   3.537   9.499  0.4855 -0.2524  0.7472
24111SOL    HW274008   3.030   3.592   9.582  0.0081  0.2471 -0.2211
24112SOL     OW74009   6.129   4.794   4.471  0.1395 -0.2393 -0.0340
24112SOL    HW174010   6.159   4.704   4.486  0.1397 -0.3008 -0.3867
24112SOL    HW274011   6.093   4.822   4.555  0.2534 -0.5264  0.1115
24113SOL     OW74012   8.413   5.643   3.432  0.5713 -0.4625  0.1545
24113SOL    HW174013   8.335   5.651   3.376  0.8188  1.3931  0.0222
24113SOL    HW274014   8.379   5.655   3.521  0.2952 -2.6342  0.3837
24114SOL     OW74015   3.959   7.199   0.723  0.3237  0.1387  0.0886
24114SOL    HW174016   3.975   7.180   0.631  2.0756  1.4585  0.0810
24114SOL    HW274017   4.040   7.239   0.755 -1.1555  2.2794  1.4804
24115SOL     OW74018   5.919   3.263   3.381  0.6832 -0.3066 -0.0004
24115SOL    HW174019   5.983   3.195   3.404  1.7383  0.9267  0.8662
24115SOL    HW274020   5.969   3.345   3.383 -0.9592  0.7269  0.8944
24116SOL     OW74021   2.927   9.016   8.901  0.7853 -0.0073 -0.1358
24116SOL    HW174022   2.948   9.054   8.986 -3.8286  2.1666  0.3110
24116SOL    HW274023   2.876   8.938   8.921 -3.5625  2.4394 -0.4865
24117SOL     OW74024   6.709   6.802   5.942 -0.9130 -0.4590 -0.1421
24117SOL    HW174025   6.632   6.745   5.944 -0.9495 -0.3906  0.4588
24117SOL    HW274026   6.778   6.748   5.903 -0.4421 -1.5564  2.0520
24118SOL     OW74027   8.149   7.310   5.293  0.2219  0.0239 -0.3069
24118SOL    HW174028   8.242   7.327   5.308  0.5396 -1.9404  0.1262
24118SOL    HW274029   8.145   7.222   5.257 -1.4931  0.0606 -0.3156
24119SOL     OW74030   2.283   0.479   0.023 -0.2993  0.5785  0.0562
24119SOL    HW174031   2.313   0.449  -0.062 -0.3014  0.0817  0.2280
24119SOL    HW274032   2.363   0.496   0.073 -0.2908 -0.1809  0.3172
24120SOL     OW74033   3.384   4.035   9.578 -0.5399  0.5073  0.0538
24120SOL    HW174034   3.353   3.952   9.543 -1.8114  0.3439  1.4511
24120SOL    HW274035   3.360   4.100   9.511  0.9626 -0.2756 -1.2988
24121SOL     OW74036   3.552   2.228   3.498 -0.0446  0.2912  0.1113
24121SOL    HW174037   3.528   2.178   3.577  1.4666 -0.9356 -0.1523
24121SOL    HW274038   3.531   2.169   3.426  1.8081 -0.0384 -0.2043
24122SOL     OW74039   5.771   1.728   2.917 -0.3859 -0.1958  0.3264
24122SOL    HW174040   5.680   1.758   2.913 -0.6301 -0.9649 -0.0379
24122SOL    HW274041   5.773   1.667   2.991 -0.4124 -0.9429 -0.2723
24123SOL     OW74042   1.426   3.792   5.900 -0.2368  0.0263 -0.0636
24123SOL    HW174043   1.390   3.869   5.944 -1.1287  0.1154 -0.9007
24123SOL    HW274044   1.349   3.740   5.876  0.3768 -1.5847  1.2470
24124SOL     OW74045   5.063   2.715   5.654 -0.0762  0.3931  0.1337
24124SOL    HW174046   5.037   2.746   5.567  0.2580  1.2211  0.3190
24124SOL    HW274047   5.119   2.639   5.637 -0.7418  0.0056 -0.3405
24125SOL     OW74048   9.532   2.744   3.802  0.1757  0.4322  0.3567
24125SOL    HW174049   9.496   2.655   3.798  1.2304  0.0201 -0.6837
24125SOL    HW274050   9.622   2.732   3.833  0.7906  0.9576 -1.1147
24126SOL     OW74051   8.092   1.619   1.763 -0.3072  0.3954  0.6157
24126SOL    HW174052   8.111   1.533   1.800  0.4838  0.7878  1.1506
24126SOL    HW274053   8.048   1.600   1.680  0.6616 -0.5444  0.2914
24127SOL     OW74054   3.998   7.559   8.776 -0.1419  0.3435 -0.1557
24127SOL    HW174055   4.050   7.494   8.823 -1.7083 -0.2467  0.8506
24127SOL    HW274056   4.043   7.642   8.792 -0.3926  0.1099  2.1069
24128SOL     OW74057   8.256   3.070   0.523 -0.6992  0.0733 -0.1163
24128SOL    HW174058   8.350   3.067   0.503 -0.4945 -2.5823  0.8762
24128SOL    HW274059   8.249   3.130   0.596 -0.1505  2.1886 -1.7073
24129SOL     OW74060   1.264   1.346   2.603 -0.2365  0.6909 -0.0568
24129SOL    HW174061   1.297   1.356   2.692 -1.6953  0.5191  0.5240
24129SOL    HW274062   1.221   1.260   2.603 -0.0726  0.5996 -0.9883
24130SOL     OW74063   8.212   3.485   2.618  0.0572  0.2928 -0.6829
24130SOL    HW174064   8.184   3.422   2.551 -0.2851 -1.2647  0.8735
24130SOL    HW274065   8.303   3.463   2.635 -0.3941 -0.6382  0.7244
24131SOL     OW74066   7.273   9.105   6.844  0.2043 -0.4368 -0.1223
24131SOL    HW174067   7.317   9.077   6.763  0.9755 -1.1538  0.5263
24131SOL    HW274068   7.304   9.195   6.858  0.1508 -0.3468 -0.5616
24132SOL     OW74069   3.069   5.104   4.836 -0.2353 -0.4480  0.4408
24132SOL    HW174070   3.008   5.114   4.764 -0.9141 -1.7773  0.7989
24132SOL    HW274071   3.069   5.188   4.881 -0.4779  0.1007 -0.5813
24133SOL     OW74072   4.491   5.066   6.769  0.3519 -0.3435 -0.2794
24133SOL    HW174073   4.417   5.108   6.813  2.2786  0.2898  2.6812
24133SOL    HW274074   4.480   5.088   6.676 -1.8805  1.7367  0.3692
24134SOL     OW74075   7.494   0.337   5.349 -0.2749  0.3434 -0.6013
24134SOL    HW174076   7.556   0.402   5.382  1.1114 -0.6902 -1.0408
24134SOL    HW274077   7.531   0.253   5.377 -0.1271 -0.4417 -2.9274
24135SOL     OW74078   5.137   4.174   6.595  0.6121  0.5524 -0.0060
24135SOL    HW174079   5.159   4.263   6.624  0.8654  0.4431  0.1374
24135SOL    HW274080   5.167   4.171   6.504  1.2471  0.3842  0.2081
24136SOL     OW74081   1.775   9.588   5.130 -0.1582 -0.5930  0.6843
24136SOL    HW174082   1.772   9.552   5.218 -1.6480 -0.4780  0.6999
24136SOL    HW274083   1.725   9.669   5.135 -0.4380 -0.6885 -0.2976
24137SOL     OW74084   4.492   4.955   9.063 -0.0293 -0.1739 -0.0205
24137SOL    HW174085   4.466   4.905   8.986 -1.0000  2.2867 -1.3980
24137SOL    HW274086   4.456   4.907   9.137 -1.6045 -1.0684 -1.3230
24138SOL     OW74087   2.814   4.266   5.538 -0.1618  0.1966  0.0404
24138SOL    HW174088   2.730   4.232   5.567 -0.1306 -0.9573 -1.1692
24138SOL    HW274089   2.796   4.306   5.453  0.5758 -0.4052 -0.4075
24139SOL     OW74090   0.380   2.066   0.295 -0.7567 -0.5711 -0.6222
24139SOL    HW174091   0.387   2.051   0.389 -1.3286  1.0977 -0.2929
24139SOL    HW274092   0.470   2.084   0.268 -0.8761  1.2550  0.0569
24140SOL     OW74093   4.954   6.567   5.227 -0.0100 -0.0110  0.4156
24140SOL    HW174094   5.005   6.639   5.263 -0.2465  0.7191 -0.6621
24140SOL    HW274095   4.865   6.601   5.221 -0.3670 -0.8047  0.9902
24141SOL     OW74096   5.476   6.419   8.107 -0.0037 -0.1716  0.6897
24141SOL    HW174097   5.528   6.404   8.186  1.8069  0.0492 -0.4003
24141SOL    HW274098   5.490   6.511   8.086  0.0985 -0.3984 -0.2722
24142SOL     OW74099   7.363   6.004   9.468  0.2264 -0.0458  0.2711
24142SOL    HW174100   7.351   6.039   9.379  1.9700  1.0494  0.4116
24142SOL    HW274101   7.408   5.921   9.455 -1.2724 -0.8807  0.0866
24143SOL     OW74102   0.477   8.059   3.345  0.0596 -0.4305 -0.2913
24143SOL    HW174103   0.458   8.112   3.423 -0.4782  0.3428 -0.9295
24143SOL    HW274104   0.556   8.011   3.367 -0.1277 -0.2788  0.7652
24144SOL     OW74105   5.638   2.098   2.064 -0.4161 -0.3504  0.1455
24144SOL    HW174106   5.723   2.112   2.105 -0.1530 -1.7599  0.1641
24144SOL    HW274107   5.653   2.024   2.004 -1.9799 -1.7636  1.3786
24145SOL     OW74108   3.674   3.982   4.143  0.2618  0.1676 -0.3468
24145SOL    HW174109   3.618   3.910   4.171  1.6758 -0.2115  1.7258
24145SOL    HW274110   3.695   4.030   4.223  1.6449  1.1993 -1.2654
24146SOL     OW74111   2.529   7.671   4.893  0.2439  0.3955 -0.3130
24146SOL    HW174112   2.528   7.754   4.941 -0.5526  0.2403 -0.0538
24146SOL    HW274113   2.476   7.611   4.946  2.2283 -0.8183  0.4178
24147SOL     OW74114   4.385   4.704   4.029 -0.1815  0.1738 -0.5369
24147SOL    HW174115   4.326   4.778   4.040  0.3309  0.6466 -0.8796
24147SOL    HW274116   4.401   4.699   3.935 -0.4236 -0.5496 -0.5496
24148SOL     OW74117   1.000   0.589   9.599 -0.3629 -0.3602 -0.1635
24148SOL    HW174118   1.066   0.520   9.598  0.7751  0.6825 -1.6365
24148SOL    HW274119   0.957   0.582   9.513 -0.2679  0.7198 -0.3080
24149SOL     OW74120   4.825   5.035   0.868 -0.3099  0.1910 -0.1571
24149SOL    HW174121   4.796   4.980   0.796 -1.6100 -2.0389  1.9057
24149SOL    HW274122   4.755   5.099   0.879 -0.8276 -0.3805 -0.0127
24150SOL     OW74123   8.154   5.682   0.085  0.1753  0.1664  0.0866
24150SOL    HW174124   8.079   5.740   0.072 -1.0884 -1.5199 -0.5577
24150SOL    HW274125   8.120   5.609   0.136  1.4757 -0.4695  0.0928
24151SOL     OW74126   0.919   7.920   7.730 -0.2755  0.0044 -0.3778
24151SOL    HW174127   0.950   8.009   7.712  3.6926 -0.8780  1.0718
24151SOL    HW274128   0.944   7.870   7.652  0.7380 -0.4446  0.2125
24152SOL     OW74129   0.246   7.469   0.035  0.5656  0.3664  0.4485
24152SOL    HW174130   0.271   7.523   0.110  2.1969  0.6693 -0.2571
24152SOL    HW274131   0.296   7.388   0.047  2.1715  1.0664 -1.1227
24153SOL     OW74132   4.951   5.944   4.997  0.1528  0.0754 -0.5964
24153SOL    HW174133   4.905   5.901   4.925  0.1758 -3.4296  1.2598
24153SOL    HW274134   5.037   5.903   4.998 -0.0225 -0.3473  1.6810
24154SOL     OW74135   3.682   5.024   0.877 -0.5548 -0.1242 -0.3877
24154SOL    HW174136   3.744   5.004   0.806  0.6158  1.1093  0.2427
24154SOL    HW274137   3.705   4.962   0.946 -0.4144 -0.0558 -0.3724
24155SOL     OW74138   3.074   3.578   7.205  0.5124 -0.1381  0.0562
24155SOL    HW174139   3.124   3.508   7.248  1.4155 -0.4154 -1.3670
24155SOL    HW274140   3.108   3.659   7.242  1.2193 -0.3714 -0.0756
24156SOL     OW74141   0.873   8.053   7.012  0.2140 -0.1749  0.1096
24156SOL    HW174142   0.798   8.033   7.069  0.4237  0.0534  0.4672
24156SOL    HW274143   0.931   8.105   7.067  0.3764  0.1265 -0.3453
24157SOL     OW74144   4.183   6.252   6.677  0.5491  0.5298 -0.1237
24157SOL    HW174145   4.094   6.286   6.691 -0.1279 -0.8040 -0.9517
24157SOL    HW274146   4.201   6.268   6.585 -0.4558 -2.6596 -0.9916
24158SOL     OW74147   6.172   8.097   8.254  0.3528 -0.2144  0.1834
24158SOL    HW174148   6.247   8.041   8.231  1.4707  0.6569  1.5435
24158SOL    HW274149   6.179   8.171   8.193  1.4810  0.5658  1.2115
24159SOL     OW74150   3.764   2.372   8.422  0.5168  0.2244  0.8238
24159SOL    HW174151   3.670   2.360   8.433  0.4603  0.5960  0.7395
24159SOL    HW274152   3.777   2.377   8.327  0.6696 -0.2085  0.8186
24160SOL     OW74153   9.266   0.044   0.151  0.2733 -0.2514 -0.0777
24160SOL    HW174154   9.202   0.103   0.111 -0.3134 -0.5819  0.3521
24160SOL    HW274155   9.216  -0.035   0.172  1.2636 -1.3631 -1.6407
24161SOL     OW74156   9.029   0.039   7.917 -0.1424 -0.2418 -0.2514
24161SOL    HW174157   8.947   0.008   7.955 -1.8148  3.8567 -0.0927
24161SOL    HW274158   9.026   0.008   7.826 -1.3554 -0.9789  0.0086
24162SOL     OW74159   1.333   4.815   4.425  0.6884 -0.1886  0.2297
24162SOL    HW174160   1.428   4.814   4.436  0.4883  0.8823  2.4321
24162SOL    HW274161   1.300   4.755   4.492 -0.2358 -0.2455 -0.2566
24163SOL     OW74162   4.388   0.095   8.557  0.4383  0.8469 -0.6280
24163SOL    HW174163   4.467   0.113   8.608 -0.5720  1.5104  0.7623
24163SOL    HW274164   4.408   0.127   8.469  2.2674 -0.4415 -0.7460
24164SOL     OW74165   1.027   2.186   3.528 -0.6163  0.1706  0.5330
24164SOL    HW174166   0.969   2.251   3.569  0.2830  0.1433  1.9288
24164SOL    HW274167   1.034   2.214   3.437 -1.2562  1.3094  0.8139
24165SOL     OW74168   1.865   6.862   7.091  0.2244  0.0305  0.3473
24165SOL    HW174169   1.803   6.900   7.029  1.4054  0.7461 -0.4395
24165SOL    HW274170   1.821   6.867   7.176 -1.8082 -1.8216 -0.5063
24166SOL     OW74171   0.526   3.536   2.350  0.3475 -0.5105  0.1432
24166SOL    HW174172   0.504   3.445   2.328 -0.3425 -0.4106  0.4055
24166SOL    HW274173   0.525   3.582   2.266 -1.1372 -0.3687  0.2233
24167SOL     OW74174   5.768   4.728   0.484  0.0860  0.8818  0.6826
24167SOL    HW174175   5.853   4.765   0.510  1.1081 -0.1831 -0.9080
24167SOL    HW274176   5.748   4.664   0.553  1.4039  0.0022  0.3076
24168SOL     OW74177   1.899   6.465   3.352 -0.3053  0.1861 -0.5830
24168SOL    HW174178   1.957   6.520   3.404 -0.5546 -0.1831  0.1019
24168SOL    HW274179   1.921   6.375   3.377 -0.1075 -0.0200 -1.4656
24169SOL     OW74180   2.088   4.051   9.293  0.3854  0.1024 -0.2861
24169SOL    HW174181   2.029   4.042   9.368  0.6148 -0.5269 -0.1766
24169SOL    HW274182   2.129   4.136   9.305 -0.6881  0.6733 -0.4993
24170SOL     OW74183   8.639   0.874   3.336 -0.0120 -0.0325 -0.6105
24170SOL    HW174184   8.683   0.874   3.251  0.3909  4.0702 -0.6325
24170SOL    HW274185   8.702   0.917   3.395 -1.7382  0.6871  0.7890
24171SOL     OW74186   4.905   9.527   5.521  0.0145 -0.4825  0.3504
24171SOL    HW174187   4.858   9.539   5.438 -0.1832  1.1993  0.6796
24171SOL    HW274188   4.835   9.514   5.586 -0.0615  1.7612  0.7979
24172SOL     OW74189   6.876   4.801   9.155 -0.7098 -0.1491  0.0399
24172SOL    HW174190   6.914   4.881   9.120  0.1718 -0.2643  0.7081
24172SOL    HW274191   6.793   4.791   9.108 -1.2987  1.6566  0.5974
24173SOL     OW74192   7.617   6.529   9.224 -0.0769  0.2383  0.2776
24173SOL    HW174193   7.693   6.576   9.193  0.3477  0.2344  1.2552
24173SOL    HW274194   7.574   6.497   9.145  0.8170  0.4159 -0.2932
24174SOL     OW74195   2.499   7.946   9.207  0.1228  0.6503 -0.1956
24174SOL    HW174196   2.518   7.860   9.244 -1.0671  0.4157 -0.0627
24174SOL    HW274197   2.410   7.966   9.238 -0.1624  1.2947 -1.3643
24175SOL     OW74198   4.447   7.672   4.276 -0.5066  0.0119  0.0705
24175SOL    HW174199   4.519   7.679   4.214 -1.4725  0.3583 -1.0684
24175SOL    HW274200   4.437   7.578   4.290  0.4273 -0.0189  0.5682
24176SOL     OW74201   3.752   1.380   7.683  0.0228  0.4223  0.2227
24176SOL    HW174202   3.830   1.334   7.716  0.6223  0.4897 -1.0432
24176SOL    HW274203   3.779   1.472   7.680 -1.1503  0.9274  2.6982
24177SOL     OW74204   5.651   8.984   0.323  1.0951 -0.2930 -0.0320
24177SOL    HW174205   5.724   9.046   0.320  0.7971  0.0267 -0.7603
24177SOL    HW274206   5.690   8.900   0.297  0.8853  0.2031 -2.1013
24178SOL     OW74207   1.065   3.840   6.241  0.3128  0.0589 -0.0048
24178SOL    HW174208   0.999   3.771   6.252 -0.1866  0.5487  0.1470
24178SOL    HW274209   1.142   3.794   6.206 -0.5885 -0.3047 -1.6094
24179SOL     OW74210   8.733   4.678   6.872 -0.3428 -0.1766  0.7019
24179SOL    HW174211   8.639   4.688   6.886 -0.5185  0.4543 -0.7692
24179SOL    HW274212   8.741   4.654   6.779  0.8930 -1.2122  1.0536
24180SOL     OW74213   8.808   6.468   6.957 -0.3040 -0.8784  0.2046
24180SOL    HW174214   8.812   6.487   7.050  0.6418  1.5479 -0.2659
24180SOL    HW274215   8.714   6.464   6.937 -0.5282  0.0455  1.0042
24181SOL     OW74216   0.086   6.034   3.655  0.8978  0.0382  0.1153
24181SOL    HW174217   0.029   6.109   3.638 -0.0323 -0.8642 -0.9037
24181SOL    HW274218   0.163   6.050   3.600  1.6093  1.1745  1.3707
24182SOL     OW74219   2.967   3.057   7.165 -0.2941 -0.5239  0.7036
24182SOL    HW174220   3.052   3.094   7.142 -0.3383 -0.6781  0.2947
24182SOL    HW274221   2.983   2.963   7.175 -0.8076 -0.8937 -1.4002
24183SOL     OW74222   7.405   5.747   3.917 -0.4213  0.7206  0.2328
24183SOL    HW174223   7.463   5.691   3.969 -0.1716  0.3353 -0.4548
24183SOL    HW274224   7.355   5.797   3.982 -0.1899  0.1627  0.8438
24184SOL     OW74225   1.976   4.936   0.049 -0.4603  1.0224 -0.2239
24184SOL    HW174226   1.918   4.859   0.050  1.5139 -0.5632  1.3721
24184SOL    HW274227   2.062   4.900   0.030  0.5428  2.8512  0.6487
24185SOL     OW74228   2.586   1.240   7.982 -0.4233 -0.8421 -0.1444
24185SOL    HW174229   2.650   1.241   7.911 -1.2197  2.2259 -0.9653
24185SOL    HW274230   2.502   1.258   7.940 -1.2918 -1.2866  1.3092
24186SOL     OW74231   7.083   7.324   0.950  0.5019  0.0479  0.4202
24186SOL    HW174232   7.073   7.292   0.860  1.9970  2.7453 -0.8460
24186SOL    HW274233   7.019   7.396   0.957  0.3725 -0.1606  1.5545
24187SOL     OW74234   7.231   3.613   1.408  0.2028 -0.1148  0.0607
24187SOL    HW174235   7.271   3.638   1.491 -1.1247 -0.3299  0.7835
24187SOL    HW274236   7.142   3.588   1.430  1.0030 -4.5047 -0.7069
24188SOL     OW74237   6.544   7.771   2.872  0.5695  0.3865 -0.0769
24188SOL    HW174238   6.538   7.677   2.854 -1.0966  0.7650 -1.8335
24188SOL    HW274239   6.453   7.801   2.871  1.0991  2.0795  0.0999
24189SOL     OW74240   0.584   7.213   3.777 -0.3547  0.8458 -0.5916
24189SOL    HW174241   0.516   7.261   3.731 -0.4954  0.9333 -0.2977
24189SOL    HW274242   0.579   7.124   3.741 -0.8398  0.7701 -0.3502
24190SOL     OW74243   0.755   9.528   0.741  0.6178 -0.0117  0.2620
24190SOL    HW174244   0.672   9.485   0.764  1.2989 -0.8721  1.2189
24190SOL    HW274245   0.737   9.573   0.659 -1.1463  0.8211  1.0482
24191SOL     OW74246   2.138   8.541   6.228  0.3443 -0.5313 -0.1928
24191SOL    HW174247   2.154   8.628   6.193  1.0659  1.1895  3.8259
24191SOL    HW274248   2.171   8.481   6.161 -1.8358  2.0754 -3.9361
24192SOL     OW74249   1.156   3.660   6.435 -0.0734 -0.3328  0.0858
24192SOL    HW174250   1.120   3.573   6.449 -0.1810 -0.3470 -0.2532
24192SOL    HW274251   1.113   3.691   6.355 -0.0913  0.0601  0.2448
24193SOL     OW74252   9.537   0.324   5.958  0.4028  0.0199 -0.2072
24193SOL    HW174253   9.469   0.340   6.024  0.5409  1.2644 -0.3459
24193SOL    HW274254   9.612   0.291   6.009 -0.3281 -1.5089 -0.0734
24194SOL     OW74255   3.552   3.564   0.576 -0.1948 -0.1714 -0.1476
24194SOL    HW174256   3.539   3.644   0.627 -1.2125  0.2472 -1.0349
24194SOL    HW274257   3.553   3.593   0.485 -3.0347 -1.3937 -0.6780
24195SOL     OW74258   9.226   3.797   3.945 -0.6866 -0.1524  0.2364
24195SOL    HW174259   9.305   3.750   3.918 -0.6856 -0.9361  1.5502
24195SOL    HW274260   9.252   3.889   3.944 -0.2317 -0.2704 -0.8319
24196SOL     OW74261   3.209   2.064   8.303  0.3469  0.0459  0.3379
24196SOL    HW174262   3.185   2.080   8.212  0.7727  1.0458  0.3921
24196SOL    HW274263   3.297   2.027   8.299  0.3439  0.0380  0.3471
24197SOL     OW74264   4.255   0.747   0.040  0.0350 -0.0999  0.0292
24197SOL    HW174265   4.344   0.746   0.075  0.1105 -0.7324 -0.1765
24197SOL    HW274266   4.199   0.763   0.116  0.2041 -1.2998  0.4163
24198SOL     OW74267   5.833   0.919   1.676 -0.1027 -0.0425 -0.2190
24198SOL    HW174268   5.927   0.905   1.687 -0.0028 -0.3405 -1.3719
24198SOL    HW274269   5.793   0.858   1.738  0.4559  0.7668  0.9818
24199SOL     OW74270   1.112   8.566   4.822  0.0644 -0.6597  0.1213
24199SOL    HW174271   1.072   8.555   4.736  0.4634  1.5216 -0.3985
24199SOL    HW274272   1.183   8.629   4.807  1.7550 -2.0887  1.5912
24200SOL     OW74273   0.872   4.086   8.395  0.6232 -0.1714  0.2547
24200SOL    HW174274   0.892   3.993   8.393 -0.9550 -0.5571  0.8818
24200SOL    HW274275   0.832   4.104   8.310 -0.6416 -0.4865  0.7504
24201SOL     OW74276   1.869   9.372   4.983  0.0507  0.4034  0.0407
24201SOL    HW174277   1.933   9.414   4.926 -1.8095  0.7512 -1.9335
24201SOL    HW274278   1.854   9.435   5.054 -0.9777  2.1692 -1.6279
24202SOL     OW74279   3.454   3.887   8.512  0.1526 -0.1981 -0.1245
24202SOL    HW174280   3.362   3.870   8.535 -0.1460  1.0554 -0.3249
24202SOL    HW274281   3.451   3.909   8.418  0.7948 -1.1023 -0.3668
24203SOL     OW74282   0.904   9.061   1.325 -0.2796  0.4662 -0.4601
24203SOL    HW174283   0.975   9.115   1.290 -1.3787  2.7648  0.6510
24203SOL    HW274284   0.825   9.099   1.288 -1.0362 -1.5910 -1.0790
24204SOL     OW74285   9.015   2.037   5.118  0.3277 -1.0031 -0.1590
24204SOL    HW174286   9.005   2.131   5.103 -1.2478 -0.8199  1.5981
24204SOL    HW274287   9.084   2.030   5.185  0.0483 -1.0423  0.1283
24205SOL     OW74288   0.006   9.559   9.630  0.0218  0.1149 -0.1818
24205SOL    HW174289   0.054   9.511   9.697 -1.3027 -1.2743 -0.1577
24205SOL    HW274290  -0.049   9.620   9.679  1.5523  1.5842 -0.2038
24206SOL     OW74291   2.918   1.302   0.073  0.2289 -0.4318 -0.4109
24206SOL    HW174292   2.835   1.263   0.098 -1.2126 -0.2840 -4.3024
24206SOL    HW274293   2.974   1.227   0.051 -0.7124 -0.5353 -2.6989
24207SOL     OW74294   2.914   2.376   8.292  0.3973 -0.1714 -0.7240
24207SOL    HW174295   2.902   2.465   8.260 -0.6052 -0.2264 -0.5279
24207SOL    HW274296   3.002   2.351   8.261  0.8293  0.9928 -0.4877
24208SOL     OW74297   6.902   6.791   0.982  0.7420  0.0673 -0.1699
24208SOL    HW174298   6.936   6.864   0.930  0.6540 -0.0438 -0.3792
24208SOL    HW274299   6.980   6.756   1.026  0.6669  0.8360  0.6208
24209SOL     OW74300   2.665   2.228   7.706 -0.5440  0.1795 -0.3099
24209SOL    HW174301   2.677   2.229   7.611  2.2037 -0.9856 -0.0677
24209SOL    HW274302   2.667   2.135   7.730 -1.4463  0.4376  0.8944
24210SOL     OW74303   6.898   2.215   3.050  0.1658  0.2610  0.0698
24210SOL    HW174304   6.828   2.180   2.994 -0.4519 -0.8936  1.5104
24210SOL    HW274305   6.966   2.148   3.046  0.5994  0.7055 -0.1612
24211SOL     OW74306   7.969   8.479   3.468  0.1694  0.3453  0.5307
24211SOL    HW174307   8.054   8.438   3.485 -0.2264 -0.7044  0.0315
24211SOL    HW274308   7.958   8.540   3.541  1.0804  0.0639  0.9264
24212SOL     OW74309   2.440   5.279   2.308  0.4132  0.2853 -0.0845
24212SOL    HW174310   2.406   5.241   2.389  0.8046  1.8481  0.8505
24212SOL    HW274311   2.437   5.207   2.245 -1.1091 -0.6146  0.9550
24213SOL     OW74312   4.632   6.568   1.522 -0.5880 -0.5280  0.2635
24213SOL    HW174313   4.718   6.572   1.564 -0.4032  2.3194 -0.1551
24213SOL    HW274314   4.574   6.614   1.582 -1.0974  0.4227 -0.9187
24214SOL     OW74315   0.454   2.372   3.424  0.3567  0.4847 -0.0344
24214SOL    HW174316   0.483   2.305   3.363 -1.8741 -1.0045  0.4018
24214SOL    HW274317   0.481   2.340   3.510 -1.6095 -0.5057  0.2887
24215SOL     OW74318   8.545   3.579   8.391 -0.2809 -0.2855  0.1849
24215SOL    HW174319   8.600   3.501   8.401 -1.6508 -1.2045  0.7287
24215SOL    HW274320   8.606   3.647   8.362  1.1101 -1.3103  0.6110
24216SOL     OW74321   3.364   9.382   0.532 -0.0715 -0.8933 -0.1325
24216SOL    HW174322   3.285   9.375   0.478 -0.3893 -0.1095  0.2069
24216SOL    HW274323   3.355   9.313   0.597 -0.8883 -0.3201  0.3960
24217SOL     OW74324   2.813   5.384   4.204  0.5756 -0.0479 -0.1074
24217SOL    HW174325   2.782   5.367   4.293  0.5671 -0.1838 -0.1364
24217SOL    HW274326   2.746   5.346   4.148  0.5017  0.1750 -0.1738
24218SOL     OW74327   8.045   8.916   4.037  0.2779  0.2764  0.2492
24218SOL    HW174328   8.068   9.008   4.050  0.4543  0.3915 -0.7551
24218SOL    HW274329   7.986   8.916   3.961 -0.4720 -0.3487  0.8082
24219SOL     OW74330   7.013   8.937   7.240 -0.4933  0.3888 -0.0651
24219SOL    HW174331   7.021   8.990   7.160 -1.4049 -0.5523 -0.8070
24219SOL    HW274332   7.037   8.997   7.311  1.4986  0.9392 -1.1175
24220SOL     OW74333   1.152   4.945   1.558 -0.4987 -0.3021 -0.0234
24220SOL    HW174334   1.234   4.994   1.553 -0.1122 -0.7976  1.1523
24220SOL    HW274335   1.084   5.012   1.547  0.0312  0.4293  0.9503
24221SOL     OW74336   7.878   0.161   2.641  0.0865  0.5292 -0.5500
24221SOL    HW174337   7.813   0.226   2.670  0.3307  0.0065  1.3413
24221SOL    HW274338   7.950   0.170   2.704 -0.5426 -2.6206  0.8215
24222SOL     OW74339   5.625   5.573   1.954  0.6310  0.4681  0.0222
24222SOL    HW174340   5.578   5.657   1.953 -0.2771 -0.0270 -0.6769
24222SOL    HW274341   5.637   5.554   2.047  1.9145  1.9258  0.2031
24223SOL     OW74342   3.908   0.342   3.929 -0.0510  0.1221 -0.0064
24223SOL    HW174343   3.894   0.371   4.019  0.1205 -1.2684  0.4843
24223SOL    HW274344   4.002   0.346   3.916 -0.1242  0.9172 -0.3425
24224SOL     OW74345   7.272   8.516   4.578 -0.0534  0.1575 -0.4907
24224SOL    HW174346   7.228   8.597   4.554 -0.3503 -0.0406 -0.6156
24224SOL    HW274347   7.214   8.446   4.546  1.2521 -0.1259 -2.4041
24225SOL     OW74348   3.778   5.490   5.451 -0.1354  0.2149  0.6957
24225SOL    HW174349   3.863   5.448   5.436 -0.2593 -1.2797  3.5441
24225SOL    HW274350   3.800   5.578   5.479  0.3284  0.5892 -0.7248
24226SOL     OW74351   1.311   9.501   1.838  0.6573 -0.4228 -0.1689
24226SOL    HW174352   1.259   9.427   1.805 -0.1815 -0.1526  0.5248
24226SOL    HW274353   1.261   9.535   1.912  1.3836  0.4121 -0.0437
24227SOL     OW74354   3.492   4.707   1.436  0.3937 -0.3034 -0.2190
24227SOL    HW174355   3.583   4.716   1.464 -0.0266  0.2335  1.0734
24227SOL    HW274356   3.489   4.745   1.348  0.7279  3.1275  1.1147
24228SOL     OW74357   5.606   1.688   9.192  0.2747 -0.1552  0.0377
24228SOL    HW174358   5.657   1.607   9.204 -0.6128 -1.0180 -1.5927
24228SOL    HW274359   5.669   1.750   9.156  0.9592 -0.1020  1.2681
24229SOL     OW74360   2.284   0.018   4.464  0.8309  0.0022 -0.3563
24229SOL    HW174361   2.357   0.062   4.507  0.7194 -1.2946  1.2622
24229SOL    HW274362   2.207   0.049   4.511  0.5483 -0.3122 -0.6100
24230SOL     OW74363   4.074   2.737   4.497  0.3105  0.1785  0.2657
24230SOL    HW174364   4.045   2.689   4.419  0.5280  0.7233 -0.1564
24230SOL    HW274365   4.014   2.812   4.502  0.3508  0.1903  0.5736
24231SOL     OW74366   9.650   3.397   7.207 -0.3155  0.3113 -0.1587
24231SOL    HW174367   9.713   3.464   7.235 -0.1836  0.2884 -0.3977
24231SOL    HW274368   9.645   3.337   7.281 -1.5713  1.3778  0.6755
24232SOL     OW74369   8.087   3.725   3.387 -0.3436 -0.0370  0.3961
24232SOL    HW174370   8.036   3.658   3.433  0.4147 -2.4904 -2.0491
24232SOL    HW274371   8.173   3.721   3.427 -0.1324 -1.0296 -0.1180
24233SOL     OW74372   5.544   6.321   2.536 -0.2877 -0.1237 -0.1321
24233SOL    HW174373   5.495   6.264   2.476  1.1017 -0.9596 -0.5307
24233SOL    HW274374   5.596   6.260   2.589 -0.8996  0.6461  1.4200
24234SOL     OW74375   7.998   9.276   9.520 -0.8862  0.0416  0.6025
24234SOL    HW174376   7.940   9.222   9.468 -1.2495 -0.1200  1.1702
24234SOL    HW274377   7.974   9.366   9.498  0.0417  0.0046 -0.7069
24235SOL     OW74378   0.273   0.222   3.699 -0.6740  0.5059 -0.2624
24235SOL    HW174379   0.237   0.134   3.686 -2.2928  0.8608  1.3823
24235SOL    HW274380   0.365   0.215   3.674  0.0135 -2.4188  2.4693
24236SOL     OW74381   7.428   1.660   3.877 -0.0590 -0.2620  0.0168
24236SOL    HW174382   7.415   1.692   3.966  0.8543  0.4000 -0.0683
24236SOL    HW274383   7.521   1.635   3.874 -0.2349 -0.8816 -0.5603
24237SOL     OW74384   5.995   8.846   7.938 -0.2146  0.3117  0.1787
24237SOL    HW174385   6.026   8.839   7.848  0.7551  1.7884  0.3519
24237SOL    HW274386   5.912   8.798   7.940 -0.6574  0.9425 -1.6909
24238SOL     OW74387   2.625   0.372   1.343  0.0855  0.6746  0.0701
24238SOL    HW174388   2.628   0.279   1.319 -0.2312  0.7887 -0.4407
24238SOL    HW274389   2.704   0.386   1.395  1.8451  0.8143 -2.4200
24239SOL     OW74390   0.562   1.841   2.859 -0.4934  0.9575  0.5815
24239SOL    HW174391   0.552   1.891   2.940 -0.8905  0.1871  1.0258
24239SOL    HW274392   0.628   1.889   2.809  0.6314  0.8203  1.8677
24240SOL     OW74393   0.001   2.451   7.366  0.5042  0.3016  0.2707
24240SOL    HW174394  -0.046   2.467   7.284  1.3982 -0.4118 -0.4013
24240SOL    HW274395  -0.019   2.528   7.420  0.0853  0.8955 -0.6994
24241SOL     OW74396   2.691   1.063   3.386  0.3711 -0.7739  0.0375
24241SOL    HW174397   2.762   1.034   3.444 -1.0970 -0.6846  1.9898
24241SOL    HW274398   2.617   1.006   3.409 -0.9793  0.9054  0.0472
24242SOL     OW74399   8.024   7.093   3.138  0.0994  0.0051 -0.1520
24242SOL    HW174400   8.062   7.149   3.071 -0.9113  0.7095 -0.1632
24242SOL    HW274401   7.931   7.118   3.142 -0.0039 -0.4478  1.0616
24243SOL     OW74402   8.421   4.784   0.475 -0.2196 -1.1486  0.3285
24243SOL    HW174403   8.426   4.688   0.474 -1.7546 -1.2510 -0.8344
24243SOL    HW274404   8.331   4.803   0.451  0.6632  0.6200 -1.9264
24244SOL     OW74405   7.986   1.258   2.315  0.1725 -0.3631  1.0458
24244SOL    HW174406   8.027   1.250   2.401  0.2004  0.2231  1.0960
24244SOL    HW274407   8.029   1.335   2.276 -0.7730  0.1710  1.0408
24245SOL     OW74408   3.765   2.762   3.705 -0.8587  0.1728  0.2725
24245SOL    HW174409   3.826   2.710   3.654 -1.5539 -0.6062  0.1953
24245SOL    HW274410   3.777   2.852   3.674 -0.5811 -0.1403 -0.5614
24246SOL     OW74411   4.989   4.265   0.284  0.5191  0.0485  0.3499
24246SOL    HW174412   5.080   4.240   0.268  0.3535 -1.2293  1.2535
24246SOL    HW274413   4.953   4.282   0.197  0.9605 -1.8518 -0.2423
24247SOL     OW74414   3.259   4.827   7.096  0.4219  0.6676 -0.2716
24247SOL    HW174415   3.174   4.795   7.065  0.6418 -1.1198  0.8098
24247SOL    HW274416   3.315   4.825   7.019 -0.6566  2.6322 -1.1902
24248SOL     OW74417   5.826   3.428   6.472 -0.3351 -0.4448 -0.3585
24248SOL    HW174418   5.769   3.462   6.541 -0.3828 -0.6722 -0.2836
24248SOL    HW274419   5.845   3.338   6.499  0.2801 -0.2831 -0.2418
24249SOL     OW74420   6.590   3.613   0.168  0.0454 -0.0325 -0.0119
24249SOL    HW174421   6.566   3.634   0.078  2.1113 -0.6573 -0.7528
24249SOL    HW274422   6.599   3.698   0.212  1.8318  0.4445 -1.1963
24250SOL     OW74423   3.777   0.361   0.009 -0.6552 -0.0739 -0.2208
24250SOL    HW174424   3.809   0.396  -0.074 -0.4020  0.3828  0.0658
24250SOL    HW274425   3.689   0.399   0.018 -0.7065 -0.1704 -0.3043
24251SOL     OW74426   7.692   3.952   9.238  0.4192  0.0337  0.0396
24251SOL    HW174427   7.723   3.935   9.327  0.8482 -1.1026 -0.3073
24251SOL    HW274428   7.704   4.046   9.226  2.5093 -0.1437  0.4018
24252SOL     OW74429   0.195   6.621   2.523  0.6531  0.0396 -0.1471
24252SOL    HW174430   0.250   6.679   2.470  0.9940  1.2327  1.4341
24252SOL    HW274431   0.246   6.606   2.602 -0.8817  0.4053  0.9542
24253SOL     OW74432   2.112   0.111   6.037  0.4238  0.4191  0.1819
24253SOL    HW174433   2.044   0.077   6.094 -1.1616  2.3625 -0.4379
24253SOL    HW274434   2.109   0.206   6.049  2.0709  0.6661 -0.9225
24254SOL     OW74435   7.224   3.811   9.604 -0.1306  0.3667 -0.3018
24254SOL    HW174436   7.286   3.750   9.564  0.9098  2.5832 -2.3293
24254SOL    HW274437   7.188   3.764   9.679  1.6314 -2.1713 -0.9430
24255SOL     OW74438   1.840   5.767   0.333  0.3672  0.1280  0.1252
24255SOL    HW174439   1.895   5.731   0.264  1.4628 -0.2101  1.1448
24255SOL    HW274440   1.804   5.690   0.377  0.3168  0.3233  0.4300
24256SOL     OW74441   7.592   0.180   7.186 -0.2135 -0.1811  0.2201
24256SOL    HW174442   7.538   0.148   7.114 -0.3346  2.1655 -0.8119
24256SOL    HW274443   7.642   0.252   7.149  2.5162 -1.2330  1.5599
24257SOL     OW74444   3.673   8.880   7.248 -0.6608  0.0409  0.0840
24257SOL    HW174445   3.751   8.843   7.206  0.1489  0.5440  1.0916
24257SOL    HW274446   3.644   8.949   7.188 -1.5501 -1.4577 -1.2859
24258SOL     OW74447   4.401   8.713   6.220  0.6375  0.2295  0.1844
24258SOL    HW174448   4.388   8.742   6.310 -0.1900 -0.9873  0.4776
24258SOL    HW274449   4.494   8.725   6.203  0.8483  0.2017  1.2889
24259SOL     OW74450   6.315   5.220   3.738  0.4530  0.4173 -0.2560
24259SOL    HW174451   6.341   5.129   3.726  0.7364  0.2798  1.1723
24259SOL    HW274452   6.220   5.217   3.745  0.5097  0.1276  0.4748
24260SOL     OW74453   1.903   1.767   6.571  0.3868 -0.3560  0.2733
24260SOL    HW174454   1.917   1.813   6.654 -0.4601  0.5016 -0.0290
24260SOL    HW274455   1.872   1.680   6.596 -0.6125  0.1508  0.8782
24261SOL     OW74456   7.956   1.881   4.944  0.7655  0.1249 -0.4445
24261SOL    HW174457   8.042   1.894   4.984  1.0641 -1.6197 -0.4214
24261SOL    HW274458   7.923   1.969   4.928  2.7687  0.8421 -0.9278
24262SOL     OW74459   6.862   1.245   2.744  0.1565  0.1735 -0.1582
24262SOL    HW174460   6.811   1.198   2.810  1.8985  0.2708  1.3564
24262SOL    HW274461   6.820   1.331   2.737  0.6855  0.6430  1.8625
24263SOL     OW74462   9.254   3.521   3.737 -0.4703 -0.3944 -0.2005
24263SOL    HW174463   9.302   3.492   3.659 -2.0623 -1.6136 -0.7762
24263SOL    HW274464   9.261   3.447   3.798  0.0951  0.2420  0.5205
24264SOL     OW74465   8.175   5.542   6.464 -0.1694 -0.2949  0.3328
24264SOL    HW174466   8.265   5.542   6.432 -0.1314  0.6709  0.4140
24264SOL    HW274467   8.152   5.450   6.473 -0.1805 -0.6499 -2.5071
24265SOL     OW74468   0.780   7.020   2.714  0.3438 -0.0999  0.1741
24265SOL    HW174469   0.734   7.037   2.796 -0.6727  0.5250 -0.4951
24265SOL    HW274470   0.870   7.003   2.739 -0.4081 -2.3227  1.6378
24266SOL     OW74471   2.538   1.604   5.062 -0.5771  0.7094  0.4840
24266SOL    HW174472   2.481   1.616   4.986  0.3414 -0.1852 -0.3954
24266SOL    HW274473   2.484   1.627   5.137 -1.9601  0.2895 -0.3350
24267SOL     OW74474   5.101   6.756   3.444  0.3257 -0.2455  0.1056
24267SOL    HW174475   5.049   6.830   3.412  0.5174 -0.5692 -1.0301
24267SOL    HW274476   5.044   6.712   3.506  0.2982  0.9841  0.9984
24268SOL     OW74477   1.074   2.380   3.959  0.0979 -0.0036  0.8997
24268SOL    HW174478   1.039   2.301   3.918 -0.2784 -0.1183  1.4243
24268SOL    HW274479   1.080   2.443   3.888  0.0280 -0.3847  0.5503
24269SOL     OW74480   3.311   5.300   3.769 -0.1995 -0.2242 -0.0131
24269SOL    HW174481   3.399   5.279   3.798  0.8509  2.1990 -1.1533
24269SOL    HW274482   3.279   5.363   3.834 -0.5362 -0.0025 -0.3919
24270SOL     OW74483   3.990   2.574   5.573 -0.0962 -0.3497  0.4501
24270SOL    HW174484   3.922   2.560   5.507 -0.7102 -0.1689  1.0295
24270SOL    HW274485   3.972   2.662   5.607 -0.1025 -0.6314  1.2095
24271SOL     OW74486   3.350   1.530   8.459  0.6783  0.2658  0.2006
24271SOL    HW174487   3.392   1.614   8.481  0.8909  0.1580  0.2047
24271SOL    HW274488   3.274   1.555   8.406 -0.4297  0.6168  1.8721
24272SOL     OW74489   6.064   4.549   2.703  0.4800 -0.0934 -0.4761
24272SOL    HW174490   6.045   4.463   2.741  0.8496  0.1235  0.2181
24272SOL    HW274491   6.064   4.535   2.609 -0.5595 -0.6328 -0.4082
24273SOL     OW74492   0.978   3.384   4.245 -0.0011 -0.3586  0.2814
24273SOL    HW174493   1.051   3.345   4.292  0.4096 -0.6797 -0.5963
24273SOL    HW274494   1.015   3.411   4.161 -0.9458 -0.7739 -0.2839
24274SOL     OW74495   5.357   4.912   8.597  0.6122  0.6493  0.0913
24274SOL    HW174496   5.324   4.957   8.519  1.8532  0.1231 -0.7652
24274SOL    HW274497   5.280   4.866   8.632  0.2378 -0.0095 -1.4729
24275SOL     OW74498   6.588   8.055   8.388  1.0674 -0.1933 -0.5142
24275SOL    HW174499   6.512   8.113   8.388 -0.3559 -1.9640 -1.2462
24275SOL    HW274500   6.629   8.068   8.302  1.5076  0.6133 -0.1958
24276SOL     OW74501   4.819   5.830   0.777  0.3801 -0.4350 -0.0933
24276SOL    HW174502   4.745   5.889   0.788  1.3463  0.4439  2.1102
24276SOL    HW274503   4.796   5.778   0.700 -2.1820  0.2885  0.0856
24277SOL     OW74504   7.573   6.751   5.402  0.2327 -0.6385 -0.0311
24277SOL    HW174505   7.498   6.740   5.344  0.5204 -0.7171 -0.3918
24277SOL    HW274506   7.571   6.843   5.426  0.0157 -0.6415 -0.0360
24278SOL     OW74507   8.156   8.931   1.877 -0.1090  0.3718 -0.2666
24278SOL    HW174508   8.213   8.896   1.946  1.2329  2.4725 -0.2161
24278SOL    HW274509   8.076   8.956   1.923 -0.5619 -1.2957 -0.0890
24279SOL     OW74510   5.299   8.374   1.984 -0.1463  0.0193 -0.1583
24279SOL    HW174511   5.371   8.356   2.045  1.2129  0.4597 -1.5580
24279SOL    HW274512   5.307   8.468   1.965 -1.2419  0.1178 -0.1849
24280SOL     OW74513   2.997   0.972   2.098  0.2722 -0.5657  0.7224
24280SOL    HW174514   2.987   0.994   2.006  2.5265  1.3368  0.8212
24280SOL    HW274515   2.991   0.876   2.101  2.2272 -0.8907 -1.7776
24281SOL     OW74516   2.002   8.556   5.031 -0.0138 -0.2349  0.4633
24281SOL    HW174517   1.961   8.639   5.006  0.4331 -0.2167 -0.2400
24281SOL    HW274518   2.004   8.559   5.127  1.2631  1.2030  0.4289
24282SOL     OW74519   3.069   7.392   7.497 -0.3146 -0.2060 -0.0908
24282SOL    HW174520   3.026   7.325   7.443 -1.4794 -0.1496  0.7384
24282SOL    HW274521   3.050   7.366   7.587  0.1057  0.6781  0.2606
24283SOL     OW74522   5.427   4.125   1.821 -0.3211  0.0999 -0.0994
24283SOL    HW174523   5.424   4.106   1.915  0.2094 -0.5157 -0.1952
24283SOL    HW274524   5.409   4.040   1.779  1.6866 -0.1653 -0.5484
24284SOL     OW74525   6.693   9.341   7.246 -0.0285 -0.2538  0.2041
24284SOL    HW174526   6.625   9.382   7.192  0.2020  1.1026  0.9078
24284SOL    HW274527   6.772   9.344   7.191 -0.1853 -0.4551 -0.0354
24285SOL     OW74528   7.402   6.382   4.394 -0.0833 -0.1533 -0.5891
24285SOL    HW174529   7.356   6.416   4.471  0.3233 -1.9086  0.4804
24285SOL    HW274530   7.366   6.294   4.381 -0.5125  0.2853 -2.7570
24286SOL     OW74531   2.875   8.674   1.769 -0.2054 -0.4648 -0.3730
24286SOL    HW174532   2.871   8.648   1.861 -0.5656  0.2572 -0.1779
24286SOL    HW274533   2.964   8.652   1.741  0.6739  1.3519  0.7772
24287SOL     OW74534   5.365   4.103   5.937  0.0464 -0.6413  0.1490
24287SOL    HW174535   5.357   4.008   5.948 -0.2848 -0.7494 -0.9021
24287SOL    HW274536   5.440   4.114   5.878 -0.4672 -0.3088 -0.4529
24288SOL     OW74537   4.638   0.082   9.601  0.0078  0.3454 -0.1737
24288SOL    HW174538   4.674   0.147   9.661  1.4589 -0.1497 -0.4529
24288SOL    HW274539   4.705   0.073   9.533  0.2703 -2.0196  0.2958
24289SOL     OW74540   0.597   4.445   9.109  0.2489 -0.2818  0.1975
24289SOL    HW174541   0.520   4.492   9.078 -0.6019 -1.8795 -0.1915
24289SOL    HW274542   0.631   4.500   9.180 -0.9712  0.6705  0.0856
24290SOL     OW74543   4.426   4.916   8.546  0.0100 -0.5295 -0.5224
24290SOL    HW174544   4.381   4.953   8.470 -0.6035 -2.3795 -1.1110
24290SOL    HW274545   4.479   4.988   8.580  0.1565  0.3995 -2.5913
24291SOL     OW74546   6.870   5.036   6.716 -0.0063 -0.3593  0.4423
24291SOL    HW174547   6.826   5.121   6.725  1.7488  0.9806 -2.2834
24291SOL    HW274548   6.799   4.975   6.693 -1.3405  0.1958  2.7323
24292SOL     OW74549   0.183   3.432   0.764  0.3984 -0.4201  0.3752
24292SOL    HW174550   0.151   3.513   0.803  1.3997  0.1463  0.0703
24292SOL    HW274551   0.110   3.370   0.772 -0.1475  0.3116  1.2081
24293SOL     OW74552   6.048   9.065   7.598 -0.2710  0.1785 -0.1535
24293SOL    HW174553   6.011   8.980   7.575  1.0241 -0.1732 -1.0524
24293SOL    HW274554   6.126   9.072   7.543  1.1918  0.7201  1.9030
24294SOL     OW74555   7.333   4.235   6.101 -0.2909  0.0619  0.6739
24294SOL    HW174556   7.379   4.272   6.026 -0.6484 -0.8399  0.0041
24294SOL    HW274557   7.399   4.181   6.145  0.0194  0.8686  1.2311
24295SOL     OW74558   3.853   6.915   2.711 -0.1922  0.6644 -0.3456
24295SOL    HW174559   3.763   6.893   2.735  0.6901 -2.1615  0.7230
24295SOL    HW274560   3.853   6.920   2.616 -1.4943  0.9692 -0.3430
24296SOL     OW74561   1.158   3.480   6.919 -0.2367  0.2882  0.5430
24296SOL    HW174562   1.212   3.464   6.996 -1.1726  0.5438  1.2700
24296SOL    HW274563   1.068   3.477   6.951 -0.8419 -2.5542 -1.0551
24297SOL     OW74564   0.527   0.073   8.870 -0.2703  0.1705 -0.4052
24297SOL    HW174565   0.618   0.103   8.869 -0.5295  0.9996 -0.0301
24297SOL    HW274566   0.519   0.018   8.792  1.1550 -1.8227  0.7744
24298SOL     OW74567   8.644   0.269   1.640 -0.0287  0.2948  0.1961
24298SOL    HW174568   8.608   0.339   1.586 -0.2296  0.7101  0.8656
24298SOL    HW274569   8.701   0.221   1.580 -0.0913  0.8662 -0.3398
24299SOL     OW74570   4.928   4.398   2.887 -0.2852 -0.0928 -0.1834
24299SOL    HW174571   5.019   4.371   2.870 -0.5709 -0.1297 -1.8963
24299SOL    HW274572   4.875   4.327   2.850 -1.0070  0.8596 -1.0470
24300SOL     OW74573   3.502   7.574   8.263  0.3123  0.0758  0.0455
24300SOL    HW174574   3.597   7.587   8.257  0.4899 -1.1627 -0.0125
24300SOL    HW274575   3.466   7.620   8.188  0.9312 -0.0206 -0.3103
24301SOL     OW74576   1.090   9.590   2.692  0.0226 -0.5484  0.6209
24301SOL    HW174577   1.018   9.579   2.630  0.5329 -0.3990 -0.0080
24301SOL    HW274578   1.047   9.619   2.773 -0.6121 -0.3515  0.2244
24302SOL     OW74579   7.328   3.042   6.337 -0.4491 -0.4736 -0.8033
24302SOL    HW174580   7.392   3.081   6.396  0.0718  0.1665 -1.7563
24302SOL    HW274581   7.243   3.070   6.372 -0.1880 -0.9135  0.1830
24303SOL     OW74582   6.595   4.459   6.727 -0.5205  0.1059 -0.3754
24303SOL    HW174583   6.647   4.387   6.691  0.9272  0.8432  0.1279
24303SOL    HW274584   6.539   4.487   6.655  0.0229 -0.5113 -1.0579
24304SOL     OW74585   2.162   0.472   2.963 -0.8389 -0.1063  0.0556
24304SOL    HW174586   2.187   0.456   2.872  0.2942  1.8705 -0.0501
24304SOL    HW274587   2.244   0.492   3.007 -1.3808 -0.9834  1.5223
24305SOL     OW74588   1.727   7.727   4.752 -0.2656 -0.1249 -0.3797
24305SOL    HW174589   1.632   7.715   4.754 -0.3068  0.1694  1.7975
24305SOL    HW274590   1.739   7.815   4.716 -0.8782  0.0918 -0.0802
24306SOL     OW74591   3.644   2.986   4.163 -0.0755  0.2284 -0.5955
24306SOL    HW174592   3.594   3.051   4.114  0.4560  1.0267 -0.1099
24306SOL    HW274593   3.644   3.020   4.253 -0.7408 -1.0216 -0.1040
24307SOL     OW74594   6.740   4.390   1.774 -0.2306 -0.3360  0.7912
24307SOL    HW174595   6.714   4.370   1.864 -0.9627 -2.9310  0.1084
24307SOL    HW274596   6.657   4.389   1.725  0.3540 -1.0065 -0.2155
24308SOL     OW74597   9.173   5.587   6.566  0.0527  0.6117  0.2169
24308SOL    HW174598   9.234   5.598   6.493  0.4062  0.4057  0.4767
24308SOL    HW274599   9.102   5.648   6.547 -0.2693 -0.0139 -0.7213
24309SOL     OW74600   1.426   7.946   4.641  0.5184 -0.2230  0.3118
24309SOL    HW174601   1.430   7.853   4.619 -0.5824 -0.1267 -0.3298
24309SOL    HW274602   1.415   7.947   4.736  1.8097 -0.7090  0.4886
24310SOL     OW74603   9.050   3.107   0.070 -0.3928 -0.5154 -0.2178
24310SOL    HW174604   8.956   3.089   0.080 -0.0988 -2.4210 -0.5598
24310SOL    HW274605   9.075   3.058  -0.008  1.0762 -0.7551  0.3867
24311SOL     OW74606   7.714   2.547   3.637  0.5535 -0.1589 -0.1200
24311SOL    HW174607   7.773   2.611   3.597 -1.2025  0.8553 -1.2818
24311SOL    HW274608   7.757   2.463   3.623  1.4950  0.4871 -1.3810
24312SOL     OW74609   0.788   3.740   5.655  0.4264 -0.2728  0.4876
24312SOL    HW174610   0.748   3.788   5.582 -1.2054  0.4433  1.7855
24312SOL    HW274611   0.843   3.674   5.613  0.3364  0.7706 -1.3742
24313SOL     OW74612   8.910   7.209   3.029  0.0071  0.2289  0.0123
24313SOL    HW174613   8.942   7.119   3.027  0.9188  0.5518 -0.5708
24313SOL    HW274614   8.913   7.238   2.938 -1.4275  0.4734  0.0158
24314SOL     OW74615   5.247   2.273   2.339  0.6121  0.8017  0.1462
24314SOL    HW174616   5.210   2.349   2.293  2.7225  1.9146  0.1585
24314SOL    HW274617   5.264   2.209   2.270  2.2567  1.8345 -0.4754
24315SOL     OW74618   5.559   6.195   3.522 -0.6560 -0.1034 -0.3440
24315SOL    HW174619   5.468   6.181   3.495 -1.0549  1.3435  0.1452
24315SOL    HW274620   5.553   6.260   3.593  0.8617  1.1400 -1.2841
24316SOL     OW74621   4.938   0.784   9.116 -0.2260  0.7514  0.1629
24316SOL    HW174622   4.942   0.712   9.180 -1.6757  0.1060 -0.4231
24316SOL    HW274623   5.018   0.834   9.132  0.3469 -0.4281  1.2542
24317SOL     OW74624   4.611   6.819   4.362 -0.1968 -0.0168 -0.2913
24317SOL    HW174625   4.704   6.809   4.383 -0.0280  1.3198 -0.2884
24317SOL    HW274626   4.572   6.735   4.384  1.2089 -0.9907 -1.4019
24318SOL     OW74627   1.170   8.759   7.217  0.6674 -0.0197 -0.0381
24318SOL    HW174628   1.192   8.848   7.189  0.4703 -0.5516 -2.0165
24318SOL    HW274629   1.252   8.724   7.253  0.7627  0.9118  0.6801
24319SOL     OW74630   0.400   7.016   7.346 -0.3904 -0.6465  0.1252
24319SOL    HW174631   0.384   7.011   7.441 -0.8210 -2.1565 -0.0032
24319SOL    HW274632   0.407   6.924   7.318  4.4829 -0.3505 -0.5405
24320SOL     OW74633   1.141   2.499   2.783 -0.1450  0.1431 -0.2661
24320SOL    HW174634   1.166   2.587   2.812  1.3403 -0.0730 -0.8133
24320SOL    HW274635   1.064   2.513   2.728  0.0927  1.1011 -0.3695
24321SOL     OW74636   2.587   2.613   1.587  0.3139 -0.3020 -0.3583
24321SOL    HW174637   2.519   2.660   1.538 -1.5768 -0.2126  2.1167
24321SOL    HW274638   2.539   2.547   1.636  1.6362  0.9989  2.9994
24322SOL     OW74639   1.171   4.240   8.200 -0.0436 -0.6340  0.2804
24322SOL    HW174640   1.235   4.311   8.183 -1.9211  0.7435 -1.5768
24322SOL    HW274641   1.186   4.178   8.129 -0.3988 -0.5967  0.1758
24323SOL     OW74642   6.083   7.121   8.906  0.6951 -0.4613 -0.3082
24323SOL    HW174643   6.066   7.028   8.921 -1.6100 -0.0323  0.1280
24323SOL    HW274644   6.128   7.150   8.986  0.8891 -1.0573 -0.1953
24324SOL     OW74645   3.166   7.536   2.456 -0.3641 -0.4132  0.1212
24324SOL    HW174646   3.190   7.490   2.537 -0.3288 -0.3694  0.1358
24324SOL    HW274647   3.100   7.480   2.415  0.0809 -0.7471 -0.1352
24325SOL     OW74648   2.276   2.537   0.359  0.3726  0.5906  0.3562
24325SOL    HW174649   2.195   2.493   0.334  0.4738  1.2410 -1.2212
24325SOL    HW274650   2.331   2.532   0.281  2.7963 -1.8172  2.0319
24326SOL     OW74651   0.255   4.201   1.216  0.0536 -0.0840 -0.4536
24326SOL    HW174652   0.176   4.255   1.226  1.2491  1.4172  1.4470
24326SOL    HW274653   0.282   4.180   1.305  0.3282 -2.9258 -1.0874
24327SOL     OW74654   3.840   7.441   0.723  0.0293 -0.1774  0.1861
24327SOL    HW174655   3.844   7.465   0.631 -2.1422 -0.4608 -0.0389
24327SOL    HW274656   3.875   7.352   0.726 -0.9399 -0.6007 -0.5818
24328SOL     OW74657   7.075   9.167   5.359  0.5855  0.0780 -0.2374
24328SOL    HW174658   7.168   9.179   5.374  0.0490  2.2466  2.1425
24328SOL    HW274659   7.048   9.102   5.423  0.1702  1.0081  0.5693
24329SOL     OW74660   4.320   7.523   8.336  0.7968  0.4996 -0.1984
24329SOL    HW174661   4.358   7.541   8.422  1.0061  0.6039 -0.3108
24329SOL    HW274662   4.226   7.532   8.349  0.8673  1.2961 -0.1568
24330SOL     OW74663   8.218   5.066   5.571  0.0150  0.2236  0.3764
24330SOL    HW174664   8.174   5.016   5.501  0.8961  0.8567 -0.6687
24330SOL    HW274665   8.228   5.003   5.642 -1.2314 -0.3467  0.0789
24331SOL     OW74666   0.785   4.058   2.336 -0.4103 -0.1855 -0.0852
24331SOL    HW174667   0.842   4.126   2.372 -0.4511 -0.7450  1.0688
24331SOL    HW274668   0.784   4.076   2.242  0.2555  0.8938  0.0906
24332SOL     OW74669   0.094   8.440   3.672  0.0230 -0.1623  0.3111
24332SOL    HW174670   0.149   8.424   3.595  0.3241  0.7764  0.3122
24332SOL    HW274671   0.126   8.379   3.738 -0.7076 -1.4823 -0.5111
24333SOL     OW74672   7.678   6.701   0.712 -0.0343 -0.3444 -0.0340
24333SOL    HW174673   7.703   6.782   0.667 -2.9484  0.4255 -0.4648
24333SOL    HW274674   7.719   6.631   0.660  0.5489  0.7266 -1.0748
24334SOL     OW74675   0.268   1.702   0.417 -0.7145 -0.2624 -0.0695
24334SOL    HW174676   0.222   1.618   0.426 -1.0666 -0.2192 -1.2732
24334SOL    HW274677   0.328   1.688   0.344 -1.6610  0.8976 -1.1198
24335SOL     OW74678   5.872   1.201   2.062 -0.1740 -0.0450  0.2219
24335SOL    HW174679   5.868   1.172   1.971  2.2895  0.7297 -0.2340
24335SOL    HW274680   5.911   1.127   2.110 -1.0566 -0.2909  0.5728
24336SOL     OW74681   8.424   7.963   9.038 -0.4645 -0.4935 -0.6964
24336SOL    HW174682   8.447   7.927   8.952  1.8217 -0.3095 -0.2466
24336SOL    HW274683   8.476   8.043   9.044  1.6966 -1.8977  1.8818
24337SOL     OW74684   7.731   2.346   3.060  0.0269 -0.3564  0.5497
24337SOL    HW174685   7.654   2.290   3.062  1.3431 -2.2820  0.8429
24337SOL    HW274686   7.754   2.359   3.152 -1.0233  1.8950  0.5636
24338SOL     OW74687   9.502   6.505   2.947 -0.6520 -0.1750  0.5262
24338SOL    HW174688   9.524   6.527   2.856  1.9712  1.3709  1.4190
24338SOL    HW274689   9.445   6.576   2.976 -0.6100 -0.0916  0.4041
24339SOL     OW74690   8.467   6.294   1.014  0.1172  0.1079 -0.2338
24339SOL    HW174691   8.479   6.245   0.932  1.4212  0.6952 -0.4192
24339SOL    HW274692   8.408   6.239   1.066  0.5590 -1.0588 -0.9180
24340SOL     OW74693   4.824   6.351   4.290  0.2052 -0.1309  0.0590
24340SOL    HW174694   4.820   6.258   4.270 -1.4079 -0.1311  0.2400
24340SOL    HW274695   4.917   6.369   4.304  0.7599 -1.2872 -1.8505
24341SOL     OW74696   2.090   2.874   0.878 -0.0685 -0.1120 -0.2074
24341SOL    HW174697   2.170   2.872   0.825  0.8557  0.9166  1.0829
24341SOL    HW274698   2.020   2.889   0.815  1.1049  2.3061 -1.0617
24342SOL     OW74699   7.321   3.589   9.400  0.1204 -0.1043 -0.5633
24342SOL    HW174700   7.250   3.557   9.345  0.3894  0.4944 -1.2903
24342SOL    HW274701   7.399   3.579   9.345  0.5453 -0.4604  0.1017
24343SOL     OW74702   7.388   2.299   8.088 -0.3680 -0.3856  0.1045
24343SOL    HW174703   7.379   2.220   8.142 -0.8868 -1.4089 -1.4039
24343SOL    HW274704   7.308   2.301   8.036 -0.4107  1.2267  0.1813
24344SOL     OW74705   6.959   9.021   3.105 -0.1174  0.5680 -0.9346
24344SOL    HW174706   6.892   9.072   3.151 -2.4817 -1.1173 -2.2737
24344SOL    HW274707   6.943   9.040   3.012  1.3250  0.1340 -1.2933
24345SOL     OW74708   2.362   4.307   7.281  0.4536 -0.5154 -0.5618
24345SOL    HW174709   2.273   4.306   7.316  0.2898  0.4133 -0.9284
24345SOL    HW274710   2.408   4.239   7.330 -0.6945 -1.6453 -1.0170
24346SOL     OW74711   3.726   5.223   0.144 -0.5135 -0.0297  0.2831
24346SOL    HW174712   3.761   5.162   0.209  2.0666  3.0364  2.1222
24346SOL    HW274713   3.683   5.291   0.197 -0.9579  1.0837 -1.4426
24347SOL     OW74714   5.303   7.599   1.778  0.9775  0.5410  0.3743
24347SOL    HW174715   5.396   7.620   1.787  2.0867 -1.1914 -4.1354
24347SOL    HW274716   5.273   7.657   1.707  0.0768 -2.1982 -1.6595
24348SOL     OW74717   6.851   0.396   2.960  0.0739  0.1542  0.2397
24348SOL    HW174718   6.924   0.458   2.964  0.1932  0.0190  0.1678
24348SOL    HW274719   6.775   0.450   2.938  0.5148  0.0050 -1.7989
24349SOL     OW74720   5.870   3.590   7.858  0.6716 -0.2547  0.2878
24349SOL    HW174721   5.789   3.543   7.881  0.3880  0.0540 -0.0653
24349SOL    HW274722   5.936   3.555   7.919  0.1257 -0.0338  1.0215
24350SOL     OW74723   0.578   3.230   8.880  0.0450  0.3695  0.0341
24350SOL    HW174724   0.558   3.142   8.913  1.6094 -0.9339 -2.2002
24350SOL    HW274725   0.612   3.277   8.955 -0.7421 -0.9557  1.2739
24351SOL     OW74726   9.655   8.921   2.833 -0.6285  0.1667 -0.2102
24351SOL    HW174727   9.563   8.914   2.859 -0.8600  0.1412 -1.0171
24351SOL    HW274728   9.704   8.905   2.914 -1.3440  1.1074  0.4347
24352SOL     OW74729   4.639   6.243   2.047  0.0904  0.5028  0.0972
24352SOL    HW174730   4.548   6.275   2.047 -0.8223 -1.9121  0.6855
24352SOL    HW274731   4.668   6.257   1.957 -0.6937  1.7048 -0.0013
24353SOL     OW74732   7.449   1.184   3.801 -0.1702 -0.1745 -0.0170
24353SOL    HW174733   7.434   1.092   3.778 -0.0265 -0.6550  1.7111
24353SOL    HW274734   7.384   1.204   3.867  2.4299 -0.3796  2.8370
24354SOL     OW74735   6.060   2.088   7.438  0.5024 -0.1757  0.0073
24354SOL    HW174736   6.013   2.157   7.484 -0.6129 -1.5852  1.0533
24354SOL    HW274737   6.149   2.123   7.427  0.1500  1.1454  1.1077
24355SOL     OW74738   5.954   8.861   0.150  0.0052 -0.5728  0.0842
24355SOL    HW174739   5.881   8.827   0.098  0.1725 -0.6676 -0.0883
24355SOL    HW274740   5.983   8.939   0.103  1.1016 -1.4607 -0.7746
24356SOL     OW74741   8.885   0.327   2.856 -0.0845  0.8292  0.1382
24356SOL    HW174742   8.794   0.303   2.875 -0.7285  1.4783 -1.7768
24356SOL    HW274743   8.877   0.413   2.813  1.4054  0.7424 -0.3418
24357SOL     OW74744   0.345   3.149   6.366  0.0236 -0.3925 -0.1384
24357SOL    HW174745   0.375   3.220   6.310  1.1116 -1.0102 -0.3621
24357SOL    HW274746   0.272   3.109   6.317 -1.2861  1.1675  0.4496
24358SOL     OW74747   0.459   1.635   1.425 -0.2074 -0.0813  0.2510
24358SOL    HW174748   0.432   1.626   1.516 -0.6815  2.1114  0.4011
24358SOL    HW274749   0.465   1.730   1.412  1.9789 -0.3744 -1.3974
24359SOL     OW74750   6.965   2.225   4.139 -0.1456 -0.0727 -0.3487
24359SOL    HW174751   7.021   2.148   4.130 -1.9414 -1.5040  0.1636
24359SOL    HW274752   6.883   2.202   4.095 -0.9719  1.2783  0.3814
24360SOL     OW74753   4.040   8.268   9.460 -0.6285 -0.1956  0.1338
24360SOL    HW174754   3.994   8.281   9.543  1.6119  2.3745  1.1011
24360SOL    HW274755   3.996   8.327   9.399 -1.3160 -0.9954 -0.1828
24361SOL     OW74756   4.880   2.152   1.425 -0.0036 -0.3277 -1.2870
24361SOL    HW174757   4.876   2.244   1.397 -0.1870  0.7362  1.8097
24361SOL    HW274758   4.922   2.155   1.511  1.9119 -3.4380 -1.9640
24362SOL     OW74759   7.215   4.735   3.961 -0.4170 -0.5546 -0.3103
24362SOL    HW174760   7.122   4.756   3.960 -0.2239  0.3501  0.0592
24362SOL    HW274761   7.244   4.758   4.050  0.2821 -0.2519 -0.6117
24363SOL     OW74762   1.166   0.732   7.868  0.3374 -0.2985  1.0188
24363SOL    HW174763   1.098   0.769   7.924  1.5921  1.5390  1.4440
24363SOL    HW274764   1.157   0.779   7.785 -0.4056 -1.7650  0.2437
24364SOL     OW74765   3.619   6.427   7.581  0.4620  0.1245  0.5641
24364SOL    HW174766   3.560   6.433   7.656 -0.5891 -1.0091 -0.1398
24364SOL    HW274767   3.562   6.435   7.504  0.9393 -2.5515 -0.1740
24365SOL     OW74768   9.143   4.825   1.746 -0.0183  0.3075  0.0501
24365SOL    HW174769   9.206   4.753   1.748  0.9179  1.1181  0.7052
24365SOL    HW274770   9.187   4.894   1.697 -0.4108  0.8740  0.4907
24366SOL     OW74771   2.334   4.032   6.525  0.6253 -0.0346  0.0278
24366SOL    HW174772   2.319   3.939   6.509 -1.1974  0.3231 -0.6226
24366SOL    HW274773   2.290   4.076   6.452  1.0519  1.3438  0.5764
24367SOL     OW74774   6.372   4.964   0.235 -0.2177  0.5080 -0.0324
24367SOL    HW174775   6.403   4.911   0.308  0.3496  0.2494 -0.4578
24367SOL    HW274776   6.439   5.031   0.223 -0.8865  1.2764  0.4433
24368SOL     OW74777   3.559   9.098   9.567 -0.0816  0.2084 -0.2644
24368SOL    HW174778   3.602   9.174   9.606  0.3244  1.1453 -2.3608
24368SOL    HW274779   3.536   9.127   9.478 -2.8842 -1.0458 -0.0574
24369SOL     OW74780   1.750   8.072   6.479  0.5988 -0.4155 -0.1788
24369SOL    HW174781   1.684   8.092   6.413  0.3895 -0.7151 -0.0625
24369SOL    HW274782   1.792   8.157   6.497  0.4846 -0.2880 -0.5058
24370SOL     OW74783   1.432   3.607   8.982  0.2449  0.1659  0.2971
24370SOL    HW174784   1.488   3.679   8.955 -0.3856  0.5816  0.0700
24370SOL    HW274785   1.406   3.565   8.900 -1.6072  1.3777  0.2191
24371SOL     OW74786   8.862   5.147   3.940  0.1398  0.0292 -0.4941
24371SOL    HW174787   8.825   5.059   3.948  1.1610 -0.7130 -2.9604
24371SOL    HW274788   8.901   5.164   4.025 -0.5319 -1.6824  0.2074
24372SOL     OW74789   2.613   0.486   3.360 -0.2237  0.0945 -0.8894
24372SOL    HW174790   2.685   0.434   3.325 -0.5625 -0.3818 -0.8994
24372SOL    HW274791   2.589   0.546   3.289 -0.3606 -0.2962 -1.1797
24373SOL     OW74792   8.211   8.649   0.316  0.2000 -0.2878 -0.4390
24373SOL    HW174793   8.196   8.652   0.221  2.2822  1.2884 -0.7930
24373SOL    HW274794   8.191   8.738   0.345  2.9511  0.2628 -0.0321
24374SOL     OW74795   0.593   5.318   2.835 -0.2813  0.0878 -0.2328
24374SOL    HW174796   0.527   5.262   2.875 -3.0478  1.0166 -3.0342
24374SOL    HW274797   0.595   5.289   2.743  1.9611  1.2645 -0.6051
24375SOL     OW74798   0.894   9.354   1.404 -0.4706 -0.4257 -0.0027
24375SOL    HW174799   0.881   9.376   1.497  0.3653  0.5381 -0.0966
24375SOL    HW274800   0.981   9.314   1.402 -0.5752 -0.6297 -0.3377
24376SOL     OW74801   5.786   4.084   4.930  0.5476 -0.0589 -0.5415
24376SOL    HW174802   5.813   4.124   5.013 -0.0386  1.2377 -0.9420
24376SOL    HW274803   5.766   3.993   4.952 -0.6185  0.5219  0.9783
24377SOL     OW74804   3.423   6.399   4.777  0.1903  0.1247 -0.3422
24377SOL    HW174805   3.506   6.358   4.798 -0.2591 -0.7864 -0.3089
24377SOL    HW274806   3.444   6.492   4.766  0.8513  0.2531  1.6761
24378SOL     OW74807   6.979   6.488   0.664  0.4337  0.9697  0.2558
24378SOL    HW174808   7.047   6.484   0.597 -1.4513  2.3655 -1.9078
24378SOL    HW274809   6.964   6.582   0.677 -1.7151  0.7219 -0.0962
24379SOL     OW74810   6.720   1.188   9.350  0.2897  0.6422  0.3287
24379SOL    HW174811   6.692   1.101   9.322  0.3101  0.6470  0.2948
24379SOL    HW274812   6.691   1.194   9.441 -0.5676  0.9769  0.0450
24380SOL     OW74813   2.217   8.275   6.075 -0.3304 -0.1236  0.2945
24380SOL    HW174814   2.306   8.239   6.073  0.2393  1.2182 -1.8807
24380SOL    HW274815   2.168   8.216   6.132  1.5311 -1.9007  0.1463
24381SOL     OW74816   2.042   6.401   5.782  0.4981 -0.2456  0.0420
24381SOL    HW174817   1.947   6.404   5.790  0.3342 -0.3730 -1.5669
24381SOL    HW274818   2.074   6.415   5.871 -1.0292 -0.7532  0.6976
24382SOL     OW74819   9.049   3.629   8.691 -0.0491  0.0021 -0.6361
24382SOL    HW174820   9.085   3.552   8.735  0.2157  1.1257  1.2098
24382SOL    HW274821   9.013   3.595   8.609  1.8246 -1.7572 -0.8099
24383SOL     OW74822   3.528   4.810   1.187 -0.4095  0.0697  0.3028
24383SOL    HW174823   3.457   4.754   1.154  0.3360 -0.2524 -0.8198
24383SOL    HW274824   3.608   4.763   1.164  0.1984  0.7898  0.8837
24384SOL     OW74825   4.055   5.439   5.364 -0.3319  0.2741 -0.3455
24384SOL    HW174826   4.093   5.510   5.415 -1.5071 -0.0537  1.0575
24384SOL    HW274827   4.123   5.416   5.301  0.9328  1.1397  0.6405
24385SOL     OW74828   8.604   8.368   2.360  0.2376 -0.5318 -0.2732
24385SOL    HW174829   8.559   8.307   2.419 -0.6525 -1.1683 -1.5683
24385SOL    HW274830   8.695   8.336   2.358 -0.0432 -1.3574 -0.3207
24386SOL     OW74831   6.060   2.547   0.895 -0.0093 -0.5360 -0.0800
24386SOL    HW174832   6.007   2.581   0.823 -0.9610 -2.0847 -0.1741
24386SOL    HW274833   6.080   2.457   0.869  0.4743 -0.7978  1.1500
24387SOL     OW74834   8.553   7.433   8.826 -0.3387 -1.0478  0.1315
24387SOL    HW174835   8.592   7.435   8.913 -1.7948 -2.5169  0.8933
24387SOL    HW274836   8.465   7.469   8.838 -0.3345 -0.6818 -0.8640
24388SOL     OW74837   5.896   1.326   4.388  0.3221 -0.1711  0.2455
24388SOL    HW174838   5.852   1.254   4.433 -0.9069 -1.2815 -2.5500
24388SOL    HW274839   5.919   1.291   4.302  1.3054  2.2522 -0.5716
24389SOL     OW74840   6.772   3.322   6.630 -0.2303 -0.0344  0.0431
24389SOL    HW174841   6.820   3.260   6.684  0.1049 -0.7187 -1.0112
24389SOL    HW274842   6.801   3.303   6.540  0.7977  2.4033 -0.2325
24390SOL     OW74843   7.744   8.750   7.197  0.3481 -0.4355  0.5306
24390SOL    HW174844   7.733   8.657   7.177  0.9180 -0.6986  1.3814
24390SOL    HW274845   7.838   8.765   7.195  0.3344 -0.1491  1.5450
24391SOL     OW74846   2.183   3.326   7.284 -0.3721 -0.4995  0.2505
24391SOL    HW174847   2.111   3.270   7.256 -1.0929  0.6762 -0.3351
24391SOL    HW274848   2.140   3.402   7.324  0.5214  0.4410 -0.5316
24392SOL     OW74849   2.169   4.403   4.153 -0.4295 -0.6691 -0.5427
24392SOL    HW174850   2.093   4.449   4.119 -0.4172 -0.4820 -0.3208
24392SOL    HW274851   2.184   4.331   4.091 -2.0841 -2.0150  0.5460
24393SOL     OW74852   0.171   8.344   9.166 -0.0446 -0.5730 -0.2864
24393SOL    HW174853   0.224   8.409   9.212 -1.4846  1.7418 -1.7151
24393SOL    HW274854   0.081   8.369   9.184 -0.7349 -3.3227  0.5783
24394SOL     OW74855   3.679   0.704   5.332  0.3444 -0.4407 -0.3454
24394SOL    HW174856   3.591   0.669   5.335  0.4178 -0.5729  0.9016
24394SOL    HW274857   3.696   0.720   5.239 -0.5721 -1.4375 -0.6987
24395SOL     OW74858   6.915   5.929   9.235 -0.2919 -0.5886 -0.0486
24395SOL    HW174859   6.848   5.860   9.229 -0.8820 -0.0004 -0.3221
24395SOL    HW274860   6.866   6.011   9.230  0.1056 -0.0607  2.9937
24396SOL     OW74861   1.029   5.205   8.025  0.3511  0.5840 -0.5214
24396SOL    HW174862   1.033   5.155   7.944 -2.1021 -1.2086  0.3292
24396SOL    HW274863   1.066   5.146   8.091 -0.7480  0.6240  0.1682
24397SOL     OW74864   0.495   9.347   4.679 -0.4529 -0.2756  0.1775
24397SOL    HW174865   0.545   9.266   4.689 -1.3918 -0.8416  0.3843
24397SOL    HW274866   0.513   9.375   4.589  2.2883  0.9578  0.9812
24398SOL     OW74867   0.837   8.480   1.737 -0.3116  0.1535  0.2508
24398SOL    HW174868   0.752   8.524   1.731  0.2181  1.1392 -0.3604
24398SOL    HW274869   0.900   8.551   1.748  0.6452 -0.3738 -1.4496
24399SOL     OW74870   5.189   4.457   3.235 -0.6359  0.1890  0.2721
24399SOL    HW174871   5.253   4.510   3.282 -0.2637  0.3823 -0.4351
24399SOL    HW274872   5.119   4.519   3.212 -0.8866  0.0641  0.6913
24400SOL     OW74873   3.213   8.476   6.038  0.1820 -0.3965  0.4919
24400SOL    HW174874   3.261   8.393   6.042  0.4327 -0.3304 -0.6729
24400SOL    HW274875   3.123   8.451   6.020  0.0637 -0.4544  1.1472
24401SOL     OW74876   6.714   6.519   9.148 -0.4658  0.1161  0.0402
24401SOL    HW174877   6.702   6.548   9.238 -0.4462  0.8653 -0.1833
24401SOL    HW274878   6.647   6.452   9.134 -0.0239 -0.4876  0.8143
24402SOL     OW74879   6.726   4.615   0.249 -0.9125  0.0702  0.4179
24402SOL    HW174880   6.652   4.567   0.286  1.1311 -1.2468  3.1058
24402SOL    HW274881   6.739   4.575   0.163 -1.8730 -1.2824  0.8687
24403SOL     OW74882   5.379   6.609   7.558 -0.0224  0.0951  0.2241
24403SOL    HW174883   5.433   6.558   7.498  0.3696 -1.6458  1.9777
24403SOL    HW274884   5.304   6.637   7.504  0.3281 -1.3625 -1.0954
24404SOL     OW74885   7.105   5.394   3.369 -0.2986 -0.0601 -0.0268
24404SOL    HW174886   7.030   5.411   3.426  0.4941  4.4528  0.0464
24404SOL    HW274887   7.074   5.416   3.281  1.2415  4.0504  0.2523
24405SOL     OW74888   4.589   2.880   0.410  0.0687 -0.1548  0.6670
24405SOL    HW174889   4.546   2.799   0.438  0.3622 -0.4890  0.1832
24405SOL    HW274890   4.566   2.888   0.317  0.4883  0.0152  0.5735
24406SOL     OW74891   1.749   5.617   8.018  0.1846 -0.2491  0.4803
24406SOL    HW174892   1.655   5.603   8.029 -0.4232  2.5219 -0.2949
24406SOL    HW274893   1.772   5.568   7.939 -0.5451 -1.1354  0.8044
24407SOL     OW74894   0.776   6.742   5.030 -0.3707 -0.0628 -0.3893
24407SOL    HW174895   0.692   6.752   5.075 -0.1588 -2.2443  0.5765
24407SOL    HW274896   0.839   6.726   5.100  0.9739  1.8149 -1.0769
24408SOL     OW74897   1.728   7.951   3.731 -0.5910  0.1024  0.0496
24408SOL    HW174898   1.688   7.864   3.737  0.5775 -0.4095  1.0126
24408SOL    HW274899   1.816   7.935   3.696 -1.2112  1.2082 -2.1423
24409SOL     OW74900   9.286   2.929   0.484  0.1062  0.8330  0.4813
24409SOL    HW174901   9.274   2.976   0.401  2.1666 -2.1636 -1.7439
24409SOL    HW274902   9.198   2.925   0.522 -1.0529  1.7647 -1.8839
24410SOL     OW74903   3.443   6.236   7.318 -0.2216 -0.1461 -0.4318
24410SOL    HW174904   3.380   6.278   7.377 -1.7500 -0.4296 -1.7875
24410SOL    HW274905   3.456   6.299   7.248  1.2276  0.0048 -0.0489
24411SOL     OW74906   4.990   2.503   8.278  0.2872  0.0982  0.2326
24411SOL    HW174907   4.905   2.543   8.265 -0.0995 -0.9733 -0.7704
24411SOL    HW274908   5.048   2.575   8.303 -0.3168  1.3274 -1.7245
24412SOL     OW74909   9.145   4.243   4.338  0.5143 -0.1662  0.4725
24412SOL    HW174910   9.072   4.268   4.283  0.9804  0.3984  0.0990
24412SOL    HW274911   9.163   4.321   4.391  1.0164 -0.2010  0.3600
24413SOL     OW74912   4.001   0.787   6.882 -0.0058 -0.2105  0.3478
24413SOL    HW174913   4.024   0.848   6.813 -0.5832 -2.0090 -1.5395
24413SOL    HW274914   3.909   0.806   6.902 -0.2005 -0.4645 -0.2740
24414SOL     OW74915   8.617   5.984   2.358 -0.0117  0.3321 -0.1730
24414SOL    HW174916   8.678   5.919   2.324  1.3439  0.0098  2.5539
24414SOL    HW274917   8.536   5.970   2.309  1.0017 -1.6698 -1.4079
24415SOL     OW74918   2.510   6.396   0.695 -0.4232 -0.4046  0.3207
24415SOL    HW174919   2.426   6.414   0.652 -0.4257 -0.4245  0.3175
24415SOL    HW274920   2.524   6.302   0.683 -0.2611 -0.3486  0.0744
24416SOL     OW74921   7.178   0.661   6.716 -0.1747  0.1334 -0.0219
24416SOL    HW174922   7.154   0.751   6.738 -0.9620  0.1618 -0.9496
24416SOL    HW274923   7.122   0.606   6.771  0.9889  0.1785  1.2711
24417SOL     OW74924   6.087   3.779   2.575 -0.3578  0.2394 -0.0515
24417SOL    HW174925   6.029   3.707   2.551 -1.1661  0.7899  0.2100
24417SOL    HW274926   6.150   3.783   2.504 -0.8021 -0.1932 -0.4804
24418SOL     OW74927   3.103   0.456   2.033  0.8244  0.3722 -0.0311
24418SOL    HW174928   3.023   0.441   1.984  2.0918 -0.7980 -1.8642
24418SOL    HW274929   3.094   0.403   2.112  0.5038 -1.1394 -1.0502
24419SOL     OW74930   0.462   7.496   8.740 -0.8220  0.2312  0.2688
24419SOL    HW174931   0.378   7.476   8.696 -0.5770  0.7302 -0.4483
24419SOL    HW274932   0.445   7.480   8.833 -2.3840  2.4162  0.4339
24420SOL     OW74933   0.563   3.650   0.264  0.1212  0.2870  0.0651
24420SOL    HW174934   0.502   3.595   0.215 -1.8521  0.0042  2.6491
24420SOL    HW274935   0.509   3.722   0.297  1.3634  0.5226  1.7045
24421SOL     OW74936   1.042   7.843   7.072  0.3548 -0.0539  0.2889
24421SOL    HW174937   1.110   7.806   7.017  0.5889  0.7243  0.0309
24421SOL    HW274938   1.000   7.909   7.016 -0.7638 -0.6862  0.3645
24422SOL     OW74939   3.749   4.545   2.785  0.4040 -0.6576  0.1098
24422SOL    HW174940   3.690   4.475   2.759 -0.4694 -0.4068  1.3430
24422SOL    HW274941   3.768   4.528   2.877  1.2751 -0.0337  0.0560
24423SOL     OW74942   2.884   9.117   5.797  0.3050 -0.6425  0.8381
24423SOL    HW174943   2.931   9.038   5.825  0.3778 -0.9575 -0.1347
24423SOL    HW274944   2.897   9.121   5.703  0.4032  0.6143  0.8827
24424SOL     OW74945   0.486   6.607   1.712 -0.4416  0.0672 -0.1112
24424SOL    HW174946   0.531   6.557   1.644  0.0636  0.7411 -0.2819
24424SOL    HW274947   0.485   6.696   1.679 -0.1145  0.4191  0.8064
24425SOL     OW74948   9.505   9.463   7.449  0.5134 -0.2544  0.3280
24425SOL    HW174949   9.420   9.455   7.406  0.5668 -0.5823  0.2815
24425SOL    HW274950   9.528   9.556   7.440  1.5221 -0.6722 -2.2671
24426SOL     OW74951   4.644   8.694   3.041  0.5612 -0.0702  0.1431
24426SOL    HW174952   4.740   8.685   3.042  0.7640  1.6474  1.9026
24426SOL    HW274953   4.627   8.772   3.093 -1.8062 -0.1038 -0.4909
24427SOL     OW74954   1.305   9.172   3.569  0.5200 -0.4982  0.3140
24427SOL    HW174955   1.313   9.087   3.525 -1.8689 -0.7426  0.2171
24427SOL    HW274956   1.258   9.153   3.650  0.4182  0.6665  0.5456
24428SOL     OW74957   6.413   0.020   6.391 -0.3306  0.2604 -0.4102
24428SOL    HW174958   6.364   0.096   6.359  1.2897  1.5765  0.1001
24428SOL    HW274959   6.464  -0.009   6.315  0.9238  1.2596  0.0188
24429SOL     OW74960   1.819   6.794   4.252  0.0902 -0.3927  0.0282
24429SOL    HW174961   1.754   6.857   4.220  0.3629  0.3262  0.8572
24429SOL    HW274962   1.902   6.843   4.252  0.3218 -0.7822  0.5805
24430SOL     OW74963   2.752   0.554   5.014 -0.0904  0.4805 -0.2779
24430SOL    HW174964   2.821   0.514   5.068 -0.0417 -1.1935 -1.4972
24430SOL    HW274965   2.794   0.632   4.976  0.4249  0.6887  0.6798
24431SOL     OW74966   4.879   4.520   5.156  0.2105  0.1490 -0.0818
24431SOL    HW174967   4.962   4.524   5.203  0.9918 -1.0489 -1.2967
24431SOL    HW274968   4.898   4.555   5.069 -0.7211  0.4633 -0.1752
24432SOL     OW74969   1.509   5.647   7.810  0.5996  0.3289 -0.3487
24432SOL    HW174970   1.426   5.660   7.765  0.6175  0.0734 -0.4557
24432SOL    HW274971   1.553   5.732   7.804  0.2522  0.5308 -0.0953
24433SOL     OW74972   3.848   1.290   7.364 -0.2756 -0.0333  0.0580
24433SOL    HW174973   3.766   1.337   7.349 -1.2993 -1.0642  2.0245
24433SOL    HW274974   3.896   1.344   7.427 -0.1334 -0.1764  0.0736
24434SOL     OW74975   6.657   4.994   2.014  0.1612 -0.1107 -0.0660
24434SOL    HW174976   6.679   4.932   1.944  1.0391 -1.1240  1.0821
24434SOL    HW274977   6.737   5.044   2.028 -0.4394  1.0970 -0.7386
24435SOL     OW74978   7.644   3.515   7.115 -0.3821 -0.3457 -0.7336
24435SOL    HW174979   7.594   3.540   7.193 -0.3991 -1.7189 -0.2785
24435SOL    HW274980   7.736   3.522   7.142 -0.3672  0.0249 -0.8733
24436SOL     OW74981   6.568   8.759   2.852  0.1052 -0.4735 -0.5736
24436SOL    HW174982   6.658   8.766   2.821  0.5416 -0.8471  0.5356
24436SOL    HW274983   6.576   8.755   2.947 -0.9621 -2.0604 -0.5008
24437SOL     OW74984   3.513   1.729   5.160  0.2503 -0.5643 -0.7744
24437SOL    HW174985   3.487   1.696   5.246  0.2101  0.5328 -0.3442
24437SOL    HW274986   3.586   1.788   5.179  1.6135 -1.8648 -1.7200
24438SOL     OW74987   8.031   4.996   5.302 -0.3417  0.4016  0.2853
24438SOL    HW174988   7.970   4.924   5.322 -0.1223  0.2572  0.4371
24438SOL    HW274989   8.014   5.017   5.210  1.6211 -1.8176 -0.6719
24439SOL     OW74990   9.626   5.491   7.808  0.2670  0.0924 -0.3354
24439SOL    HW174991   9.545   5.508   7.759  1.0112  0.7255 -1.3946
24439SOL    HW274992   9.690   5.470   7.740  2.0345  3.6272  0.0399
24440SOL     OW74993   2.655   3.102   5.891 -0.0506  0.0866 -0.3519
24440SOL    HW174994   2.736   3.072   5.850  0.0764  1.7190 -1.3892
24440SOL    HW274995   2.683   3.174   5.948 -0.7526  0.7160 -0.7736
24441SOL     OW74996   3.526   9.591   5.736  0.4161 -0.1073 -0.2872
24441SOL    HW174997   3.506   9.498   5.749  2.4385 -0.6566 -0.7059
24441SOL    HW274998   3.493   9.634   5.815 -1.6241 -0.9770 -0.6157
24442SOL     OW74999   2.727   6.154   4.727 -0.2055  0.6067  0.2139
24442SOL    HW175000   2.822   6.138   4.733 -0.1585  0.9495  0.3790
24442SOL    HW275001   2.705   6.132   4.637 -0.4971 -2.3384  0.8919
24443SOL     OW75002   6.800   4.798   8.126 -0.0187 -0.4851 -0.5713
24443SOL    HW175003   6.867   4.806   8.058  0.9766 -0.0893  0.4306
24443SOL    HW275004   6.789   4.703   8.137  0.8256 -0.5555 -0.3099
24444SOL     OW75005   5.483   8.962   6.414 -0.4214 -0.3941  0.0089
24444SOL    HW175006   5.542   9.037   6.407  0.4473 -1.1395 -1.3036
24444SOL    HW275007   5.540   8.886   6.400 -1.3942 -1.2693  0.6026
24445SOL     OW75008   3.211   1.397   9.609 -0.0284  0.3032  0.0064
24445SOL    HW175009   3.147   1.462   9.580 -0.5103 -0.6008 -1.0155
24445SOL    HW275010   3.162   1.315   9.615  0.5384  0.0381  1.4055
24446SOL     OW75011   1.436   2.974   5.612  0.4173  0.1540  0.1380
24446SOL    HW175012   1.381   3.015   5.545  0.0732  1.7420  1.3312
24446SOL    HW275013   1.502   2.925   5.563  0.7626  2.0496 -1.4232
24447SOL     OW75014   5.224   5.576   7.562 -0.5900 -0.0097  0.2599
24447SOL    HW175015   5.254   5.652   7.611  0.0749 -1.3009  1.9669
24447SOL    HW275016   5.132   5.566   7.586 -1.3235  1.4636 -1.6691
24448SOL     OW75017   8.118   4.279   6.339  0.1807 -0.7775  0.2157
24448SOL    HW175018   8.048   4.215   6.348 -1.1425  0.7053  1.0634
24448SOL    HW275019   8.129   4.316   6.426  0.1573  0.8504 -0.4211
24449SOL     OW75020   9.257   9.405   4.502 -0.3709  0.3982 -0.0976
24449SOL    HW175021   9.202   9.328   4.504  0.0719  0.0863  0.5030
24449SOL    HW275022   9.305   9.399   4.420  0.0265 -0.2395  0.1697
24450SOL     OW75023   7.026   4.179   3.911  0.5214  0.2680 -0.0899
24450SOL    HW175024   6.962   4.110   3.930 -0.3034  1.6122  2.3342
24450SOL    HW275025   6.978   4.242   3.858 -0.0282  1.0062  1.2609
24451SOL     OW75026   4.306   4.772   9.665  0.1408  0.0684  0.3201
24451SOL    HW175027   4.249   4.823   9.608 -1.7460  0.0224  2.0477
24451SOL    HW275028   4.381   4.749   9.610 -0.4745  1.9475 -1.4230
24452SOL     OW75029   3.502   4.760   5.478  0.5420 -0.2130 -0.1400
24452SOL    HW175030   3.545   4.797   5.401 -1.9610  0.6205 -1.2527
24452SOL    HW275031   3.483   4.836   5.534 -1.1479 -0.2460 -0.6029
24453SOL     OW75032   5.589   9.263   0.865 -0.2259  0.0208  0.1529
24453SOL    HW175033   5.542   9.228   0.941 -1.8894  0.6904 -0.5083
24453SOL    HW275034   5.527   9.326   0.826  1.2350  0.9283 -0.7958
24454SOL     OW75035   3.686   0.242   5.523  0.3800 -0.5157 -0.3708
24454SOL    HW175036   3.738   0.287   5.456 -0.8647 -0.3596 -1.2742
24454SOL    HW275037   3.691   0.300   5.599  0.2982  0.2558 -0.9338
24455SOL     OW75038   6.346   5.519   1.820  0.3368  0.2329 -0.2181
24455SOL    HW175039   6.275   5.474   1.866 -0.3701 -0.3653 -1.8139
24455SOL    HW275040   6.425   5.492   1.867 -0.3392 -0.3338  0.6490
24456SOL     OW75041   2.718   4.931   5.219  0.1623 -0.2791  0.4974
24456SOL    HW175042   2.661   4.917   5.143 -0.2100  1.4124  0.4453
24456SOL    HW275043   2.767   4.849   5.227 -1.8045 -1.5575  0.1578
24457SOL     OW75044   3.585   0.167   1.340 -0.1475 -0.3485  0.2096
24457SOL    HW175045   3.520   0.202   1.400 -0.1897 -1.4218  0.7992
24457SOL    HW275046   3.546   0.086   1.307 -0.7674  0.9035 -2.3977
24458SOL     OW75047   7.344   5.601   2.635 -0.2373 -0.4303  0.0657
24458SOL    HW175048   7.435   5.584   2.611 -0.2479  1.0426 -1.1585
24458SOL    HW275049   7.344   5.600   2.731  0.7170 -2.0701  0.0872
24459SOL     OW75050   8.496   2.938   5.267  0.3635  1.4526  0.0519
24459SOL    HW175051   8.551   2.950   5.345 -0.0830 -1.6819  1.0166
24459SOL    HW275052   8.539   2.867   5.219  0.9005  3.6169 -2.9669
24460SOL     OW75053   4.709   5.299   7.429  0.4077  0.2472  0.2542
24460SOL    HW175054   4.634   5.247   7.401 -1.0467  2.5044 -0.2881
24460SOL    HW275055   4.676   5.388   7.434  3.2864  1.5087 -0.9217
24461SOL     OW75056   0.141   4.266   4.182 -0.2091  0.4557  0.0993
24461SOL    HW175057   0.230   4.242   4.153 -0.1056 -0.7236  1.3015
24461SOL    HW275058   0.148   4.272   4.277 -1.8378 -1.7043  0.4321
24462SOL     OW75059   8.209   3.221   2.944 -0.2546  0.2668  0.0024
24462SOL    HW175060   8.284   3.162   2.956 -0.3063  0.3453  0.7453
24462SOL    HW275061   8.177   3.201   2.856  1.2380  0.9308 -0.7342
24463SOL     OW75062   5.978   6.861   3.389 -0.4274 -0.5149  0.2376
24463SOL    HW175063   5.925   6.921   3.336  0.4657  0.9151  0.8764
24463SOL    HW275064   6.012   6.916   3.460 -1.8997 -2.4421  2.5682
24464SOL     OW75065   5.922   5.219   7.225  0.0623 -0.3196  0.2671
24464SOL    HW175066   5.979   5.280   7.178 -0.3006 -2.1094 -2.8481
24464SOL    HW275067   5.834   5.255   7.215  0.0780 -0.2685  0.3143
24465SOL     OW75068   1.896   0.539   5.763  0.5491 -0.0605  0.3909
24465SOL    HW175069   1.967   0.490   5.722 -0.6060 -0.8719 -0.7370
24465SOL    HW275070   1.847   0.473   5.812  0.3583  0.4198  0.8577
24466SOL     OW75071   5.169   9.358   0.859 -0.3759 -0.1099  0.4901
24466SOL    HW175072   5.145   9.284   0.804  1.1978  1.0395 -1.9349
24466SOL    HW275073   5.249   9.392   0.819  0.0264  1.7164  2.6774
24467SOL     OW75074   5.056   1.291   5.481  0.2559 -0.7447  0.3232
24467SOL    HW175075   5.061   1.273   5.575 -0.2656  1.0269  0.7313
24467SOL    HW275076   5.142   1.328   5.459  0.8367 -2.3143 -0.2125
24468SOL     OW75077   8.095   2.900   9.570 -0.0132  0.2048 -0.0611
24468SOL    HW175078   8.008   2.938   9.572 -0.1237  0.2821 -2.7867
24468SOL    HW275079   8.154   2.973   9.588 -0.4634  0.3114  1.0170
24469SOL     OW75080   7.024   1.054   5.295 -0.3822 -0.0956  0.1939
24469SOL    HW175081   7.024   1.076   5.202 -1.1782 -1.4676 -0.1641
24469SOL    HW275082   7.086   0.981   5.301  0.8700  0.9907  1.0354
24470SOL     OW75083   3.262   8.461   4.772  0.2696 -0.1719  0.0240
24470SOL    HW175084   3.305   8.546   4.764  0.0876  0.0426  1.1392
24470SOL    HW275085   3.178   8.481   4.814  0.0857 -0.8647 -0.0070
24471SOL     OW75086   2.612   2.376   6.896  0.0710  0.1292 -0.0715
24471SOL    HW175087   2.705   2.370   6.874  0.1408  1.9227 -0.4363
24471SOL    HW275088   2.592   2.292   6.937  2.0829  0.0300  0.8604
24472SOL     OW75089   1.959   3.733   5.155  0.0114  0.2780  0.7240
24472SOL    HW175090   2.042   3.779   5.163  0.0092  1.1447 -2.6960
24472SOL    HW275091   1.983   3.640   5.155  1.0079  0.5145 -0.0208
24473SOL     OW75092   7.955   2.468   7.655  1.1577 -0.1999  0.2451
24473SOL    HW175093   8.034   2.461   7.601 -0.8252  0.3955 -2.9519
24473SOL    HW275094   7.887   2.497   7.595 -2.1577 -3.0918  2.2154
24474SOL     OW75095   5.143   4.233   8.161 -0.1379 -0.1743  0.3631
24474SOL    HW175096   5.155   4.190   8.245  0.3335  0.9184  0.8817
24474SOL    HW275097   5.136   4.162   8.098 -0.4564 -1.0078  1.3204
24475SOL     OW75098   4.909   9.191   7.658 -0.5744  0.0671  0.0002
24475SOL    HW175099   4.820   9.157   7.670 -0.3979 -0.0724  1.0535
24475SOL    HW275100   4.902   9.285   7.675 -0.7671  0.2972 -1.3050
24476SOL     OW75101   2.762   7.308   6.619  0.0638 -0.6016  0.0606
24476SOL    HW175102   2.695   7.252   6.580 -1.0397  0.1792  0.7411
24476SOL    HW275103   2.740   7.310   6.712  0.5001  0.3666  0.1621
24477SOL     OW75104   6.485   3.075   3.928  0.8407  0.1833  0.4849
24477SOL    HW175105   6.421   3.143   3.906  1.6015  0.5296 -0.7303
24477SOL    HW275106   6.431   2.997   3.945  0.0521  0.6915  0.3720
24478SOL     OW75107   7.115   6.539   7.483  0.1944 -0.1081 -0.1663
24478SOL    HW175108   7.139   6.573   7.569 -1.4305  0.9549 -0.0958
24478SOL    HW275109   7.139   6.446   7.486 -0.8422 -0.3427  1.8220
24479SOL     OW75110   8.168   4.476   5.467  0.3650  0.1502  0.5896
24479SOL    HW175111   8.227   4.421   5.416  0.6253 -0.9706  2.0232
24479SOL    HW275112   8.082   4.461   5.428  0.1128 -2.7456  1.9747
24480SOL     OW75113   0.826   3.651   8.470  0.0020 -0.0394 -0.0631
24480SOL    HW175114   0.759   3.584   8.462 -1.4437  1.3634 -0.0793
24480SOL    HW275115   0.813   3.688   8.558  0.5255  0.4810 -0.1977
24481SOL     OW75116   7.678   3.741   0.438 -0.2414  0.1210  0.0761
24481SOL    HW175117   7.721   3.797   0.374  0.3515 -1.5314 -1.0531
24481SOL    HW275118   7.603   3.792   0.469 -1.6022  0.3860 -3.2666
24482SOL     OW75119   9.037   4.885   4.122  0.0624 -0.4168  0.3198
24482SOL    HW175120   8.959   4.932   4.151  1.5389  1.3023  1.7419
24482SOL    HW275121   9.062   4.927   4.040  0.6270  0.4466  0.9161
24483SOL     OW75122   6.096   5.828   2.832  0.4237 -0.3777 -0.0466
24483SOL    HW175123   6.157   5.782   2.889  0.6632  0.3162  0.2688
24483SOL    HW275124   6.079   5.767   2.760  0.9642 -0.8330  0.2073
24484SOL     OW75125   2.484   7.954   3.549 -0.5393  0.0820  0.1089
24484SOL    HW175126   2.440   8.028   3.507 -2.4443 -0.4454  1.0668
24484SOL    HW275127   2.552   7.995   3.603 -1.2809  1.1261  0.2863
24485SOL     OW75128   7.960   6.829   8.346 -0.3924  0.7656  0.0330
24485SOL    HW175129   7.892   6.824   8.278 -0.7994 -0.2204  0.5048
24485SOL    HW275130   7.912   6.819   8.428  0.3117  0.1916  0.3739
24486SOL     OW75131   3.461   1.372   5.216  0.0510  0.0419 -0.2748
24486SOL    HW175132   3.386   1.400   5.163  0.3388  0.2911 -0.5523
24486SOL    HW275133   3.477   1.445   5.276  0.1497  0.0433 -0.3021
24487SOL     OW75134   0.079   6.540   6.002 -0.1334  0.3398  0.4004
24487SOL    HW175135   0.053   6.618   5.952  0.8548  0.6058  0.2751
24487SOL    HW275136   0.036   6.467   5.956 -0.3288  0.7177 -0.0290
24488SOL     OW75137   4.393   3.394   1.537  0.8249  0.2792  0.0334
24488SOL    HW175138   4.323   3.456   1.516  0.8632  0.2279 -0.2503
24488SOL    HW275139   4.473   3.441   1.516  0.8390 -0.0212 -0.6046
24489SOL     OW75140   4.855   9.282   2.929 -0.3664 -0.3997 -0.3150
24489SOL    HW175141   4.889   9.334   3.002 -1.4755 -0.0888 -0.0116
24489SOL    HW275142   4.796   9.219   2.969  0.0205 -1.1014 -0.8169
24490SOL     OW75143   2.900   0.511   1.032 -0.5406  0.2885  0.0758
24490SOL    HW175144   2.971   0.447   1.020 -0.6534  0.2374 -0.3448
24490SOL    HW275145   2.822   0.464   1.003 -0.5167  0.8668 -0.9827
24491SOL     OW75146   0.171   7.508   8.970  0.2615  0.2150  0.1071
24491SOL    HW175147   0.207   7.535   9.055  1.4113  2.3442 -0.9986
24491SOL    HW275148   0.088   7.556   8.963 -0.0241 -0.2575  0.1591
24492SOL     OW75149   5.822   0.275   6.344  0.2859 -0.3258  0.4144
24492SOL    HW175150   5.815   0.368   6.325 -0.1318 -0.4998 -0.3389
24492SOL    HW275151   5.788   0.265   6.433  2.2927  0.5227  1.3240
24493SOL     OW75152   8.010   8.687   1.876  0.2298  0.2077 -0.5825
24493SOL    HW175153   7.967   8.685   1.790 -0.0920  0.3218 -0.4267
24493SOL    HW275154   8.085   8.745   1.863  0.2960  0.0661 -0.8399
24494SOL     OW75155   1.881   8.775   3.845 -0.5023 -0.3144 -0.3330
24494SOL    HW175156   1.897   8.769   3.939  0.2803 -2.3736 -0.5665
24494SOL    HW275157   1.899   8.688   3.811 -0.2881  0.5076 -2.4905
24495SOL     OW75158   3.166   9.645   7.172  0.0205  0.1201 -0.0939
24495SOL    HW175159   3.194   9.664   7.261  0.0718 -0.7963  0.0903
24495SOL    HW275160   3.237   9.593   7.134  0.2209  0.9172 -0.8361
24496SOL     OW75161   8.985   3.061   8.088  0.4302 -0.0592 -0.4594
24496SOL    HW175162   8.975   3.154   8.068 -1.3326 -0.4567 -1.6954
24496SOL    HW275163   9.069   3.055   8.133 -1.1940  2.6960  3.4811
24497SOL     OW75164   1.187   0.361   9.388 -0.9708 -0.9377 -0.2046
24497SOL    HW175165   1.215   0.359   9.479 -1.5819 -0.3357  0.0057
24497SOL    HW275166   1.097   0.329   9.390 -1.0165 -0.8417 -0.5824
24498SOL     OW75167   2.878   3.617   3.715  0.3220  0.5727  0.2907
24498SOL    HW175168   2.848   3.546   3.659 -0.8100  0.2870  1.1963
24498SOL    HW275169   2.863   3.585   3.804  0.5054  1.6422  0.7274
24499SOL     OW75170   6.443   7.410   4.434  0.3356 -0.1370  0.3021
24499SOL    HW175171   6.365   7.425   4.381  1.1012  0.3487 -0.7274
24499SOL    HW275172   6.447   7.486   4.492  1.0093  0.7516 -0.8811
24500SOL     OW75173   9.410   8.542   1.443 -0.1802 -0.3307  0.3392
24500SOL    HW175174   9.430   8.564   1.352  0.6931 -2.3043 -0.0084
24500SOL    HW275175   9.495   8.517   1.481 -0.9720 -2.9156  0.6357
24501SOL     OW75176   8.694   6.115   8.042  0.0683  0.1892  0.3464
24501SOL    HW175177   8.683   6.156   7.956 -0.3284 -0.8239 -0.1106
24501SOL    HW275178   8.726   6.185   8.098 -2.0797  1.5589  0.0078
24502SOL     OW75179   8.924   3.971   3.918  0.0788 -0.2146 -0.2134
24502SOL    HW175180   8.977   3.902   3.880  0.8070  1.2320 -1.9555
24502SOL    HW275181   8.843   3.969   3.867 -0.0963 -0.0845  0.0560
24503SOL     OW75182   6.326   2.925   2.856 -0.0320  1.4078  0.2171
24503SOL    HW175183   6.317   2.872   2.777  0.9375  0.8877  0.4430
24503SOL    HW275184   6.413   2.964   2.849 -0.0834  1.6468  0.8519
24504SOL     OW75185   6.588   7.519   3.059  0.0837  0.1688 -0.1692
24504SOL    HW175186   6.535   7.583   3.106  1.6298  1.9911 -0.7957
24504SOL    HW275187   6.524   7.462   3.016 -1.3355  0.6645  1.1862
24505SOL     OW75188   5.360   8.720   4.564 -0.0465  0.4611 -0.8767
24505SOL    HW175189   5.301   8.719   4.639  0.2834 -0.7515 -0.6260
24505SOL    HW275190   5.304   8.746   4.490 -0.2345  2.3271 -0.1394
24506SOL     OW75191   6.163   9.422   8.771 -0.1176 -0.4084  0.0252
24506SOL    HW175192   6.229   9.443   8.838 -0.4779  1.6026 -0.1951
24506SOL    HW275193   6.121   9.505   8.752 -1.9364 -1.4395 -0.7109
24507SOL     OW75194   3.463   2.734   7.659  0.9467 -0.2609  0.0583
24507SOL    HW175195   3.508   2.799   7.713  1.4296 -0.8680  0.3980
24507SOL    HW275196   3.388   2.781   7.622  1.1749  0.4302  0.4576
24508SOL     OW75197   9.156   1.665   3.726 -0.6408  0.0266 -0.2163
24508SOL    HW175198   9.236   1.630   3.686  0.4159  2.0726 -0.0701
24508SOL    HW275199   9.188   1.718   3.799 -1.9987  1.9932 -0.9671
24509SOL     OW75200   6.685   7.880   6.855 -0.2736  0.5255 -0.2107
24509SOL    HW175201   6.632   7.913   6.927 -0.9114 -1.8526  0.5045
24509SOL    HW275202   6.770   7.922   6.865 -0.4328  0.4313  1.7800
24510SOL     OW75203   5.592   9.309   2.197 -0.0126  0.1629  0.6123
24510SOL    HW175204   5.661   9.272   2.142  1.0458 -0.2896  2.1602
24510SOL    HW275205   5.511   9.272   2.163  0.5075  0.4270 -1.0337
24511SOL     OW75206   0.568   1.306   3.490 -0.2891 -0.4649  0.3721
24511SOL    HW175207   0.621   1.385   3.480 -0.3896 -0.3160  0.9455
24511SOL    HW275208   0.554   1.275   3.401 -2.1847  1.4585 -0.0754
24512SOL     OW75209   2.612   5.523   2.536  0.3258  0.2178 -0.4373
24512SOL    HW175210   2.582   5.581   2.606 -0.6839  1.0823 -1.5418
24512SOL    HW275211   2.690   5.567   2.500  0.2950  0.2470 -0.4678
24513SOL     OW75212   4.942   3.841   2.191 -0.8718  0.6104 -0.3641
24513SOL    HW175213   4.891   3.761   2.188  0.6995 -0.5390  1.5862
24513SOL    HW275214   4.882   3.906   2.228 -1.2833 -0.4477  0.9142
24514SOL     OW75215   2.708   4.587   2.788  0.0883  0.2067 -0.6113
24514SOL    HW175216   2.747   4.566   2.873 -0.7260 -0.1720 -0.3223
24514SOL    HW275217   2.646   4.516   2.772  0.3279  0.2019 -1.5916
24515SOL     OW75218   1.977   7.526   0.494 -0.2622 -0.0964 -0.1391
24515SOL    HW175219   1.956   7.436   0.518 -0.7948  0.1210  0.2248
24515SOL    HW275220   2.069   7.536   0.517 -0.0865 -0.6763 -0.5804
24516SOL     OW75221   3.986   0.888   8.887  0.1759  0.1635 -0.2788
24516SOL    HW175222   3.941   0.833   8.822  0.6045  1.2506 -1.5575
24516SOL    HW275223   3.992   0.834   8.965 -2.0351 -0.5301 -0.5370
24517SOL     OW75224   4.044   1.701   1.192  0.0883 -0.1868 -0.2585
24517SOL    HW175225   4.076   1.689   1.102  0.6106 -1.5717  0.1030
24517SOL    HW275226   4.012   1.615   1.218  0.3649  0.0947  1.0585
24518SOL     OW75227   4.276   4.608   6.967  0.1721  0.4936 -0.1654
24518SOL    HW175228   4.322   4.691   6.961  0.9767  0.1009  0.4165
24518SOL    HW275229   4.333   4.545   6.924 -0.2600  0.1726 -0.2792
24519SOL     OW75230   2.957   6.616   8.469  0.5333  0.5320 -0.0105
24519SOL    HW175231   3.011   6.671   8.528 -0.7460  1.4278  0.3720
24519SOL    HW275232   2.868   6.630   8.500 -0.0154 -0.1667 -1.2478
24520SOL     OW75233   4.422   4.569   0.273 -0.0477 -0.4623  0.1919
24520SOL    HW175234   4.390   4.637   0.215  0.1410  2.2207  2.9634
24520SOL    HW275235   4.515   4.562   0.252  0.6618  2.4559  1.7304
24521SOL     OW75236   3.624   5.441   0.286  0.6614 -0.0468 -0.4155
24521SOL    HW175237   3.704   5.488   0.263  0.6196  0.4999  0.4999
24521SOL    HW275238   3.554   5.497   0.255  0.5978 -1.0946 -2.3272
24522SOL     OW75239   8.677   1.739   4.822  0.7341 -0.0543 -0.1186
24522SOL    HW175240   8.590   1.744   4.862 -0.4776  0.2068 -2.6003
24522SOL    HW275241   8.737   1.733   4.896 -1.2728  1.2931  1.7459
24523SOL     OW75242   6.543   2.231   2.851 -0.6719 -0.4508  0.2479
24523SOL    HW175243   6.535   2.216   2.945  0.7120  0.5315  0.5583
24523SOL    HW275244   6.479   2.300   2.832  0.5171  0.9036  0.9297
24524SOL     OW75245   2.093   7.423   1.157 -0.0691  0.4466 -0.0182
24524SOL    HW175246   2.042   7.344   1.175 -0.1833  0.3570 -0.7029
24524SOL    HW275247   2.180   7.390   1.134  0.3251  0.6001  1.1752
24525SOL     OW75248   9.522   5.343   4.428  0.3990 -0.2455  0.4715
24525SOL    HW175249   9.436   5.346   4.388  0.8035 -0.8063 -0.4798
24525SOL    HW275250   9.520   5.264   4.483  0.4819 -0.5578  0.0279
24526SOL     OW75251   6.762   1.363   6.317 -0.6458 -0.3240 -0.2860
24526SOL    HW175252   6.788   1.449   6.284  0.3497 -0.0691  1.0582
24526SOL    HW275253   6.684   1.380   6.369  0.0487 -0.0434  0.7118
24527SOL     OW75254   9.445   2.840   3.106 -0.3273 -0.1938 -0.5833
24527SOL    HW175255   9.402   2.766   3.148 -0.1217 -0.4374 -0.8035
24527SOL    HW275256   9.459   2.903   3.176 -0.4552 -0.3836 -0.3875
24528SOL     OW75257   8.235   5.065   2.230 -0.7069 -0.6881 -0.1880
24528SOL    HW175258   8.244   4.971   2.247  1.3427 -0.5745 -0.4228
24528SOL    HW275259   8.289   5.107   2.297 -1.2237  0.3166 -0.3737
24529SOL     OW75260   9.412   3.451   8.467 -0.1954 -0.0307  0.0199
24529SOL    HW175261   9.336   3.465   8.410  1.0486  1.2480 -1.4129
24529SOL    HW275262   9.486   3.485   8.416  1.3590 -1.3216  1.3354
24530SOL     OW75263   1.300   3.333   5.411 -0.3242 -0.4187 -0.3502
24530SOL    HW175264   1.358   3.401   5.445  0.2490 -1.4187  0.7044
24530SOL    HW275265   1.359   3.269   5.371 -0.8836 -0.1307 -1.6904
24531SOL     OW75266   6.818   6.571   9.644 -0.1061 -0.0487 -0.9519
24531SOL    HW175267   6.726   6.546   9.639 -0.0218 -1.2812  1.8154
24531SOL    HW275268   6.864   6.489   9.659  1.3046  0.6836 -1.1523
24532SOL     OW75269   6.814   5.104   0.334 -0.1950  0.3684  0.7209
24532SOL    HW175270   6.843   5.014   0.348 -1.7625 -0.3364 -0.3702
24532SOL    HW275271   6.722   5.097   0.310  0.2415  2.0298 -1.8644
24533SOL     OW75272   4.716   5.568   5.414 -0.3594  0.2856 -0.0517
24533SOL    HW175273   4.791   5.597   5.362 -0.4582  0.5997 -0.0218
24533SOL    HW275274   4.671   5.649   5.437 -0.7790  0.0901 -0.1765
24534SOL     OW75275   7.776   8.946   5.923 -0.5897 -0.1213 -0.1004
24534SOL    HW175276   7.741   8.864   5.888 -0.8574 -0.7001  1.4515
24534SOL    HW275277   7.742   8.950   6.013  1.2223  0.5938  0.5865
24535SOL     OW75278   8.492   8.372   5.973  0.4446 -0.1575 -0.5015
24535SOL    HW175279   8.582   8.380   6.006  0.2626 -1.7104  0.4924
24535SOL    HW275280   8.439   8.356   6.051 -0.9601  2.2044 -0.8917
24536SOL     OW75281   3.935   4.902   3.815  0.1260 -0.3771  0.2865
24536SOL    HW175282   3.967   4.814   3.836 -0.4968 -1.6519 -3.4060
24536SOL    HW275283   3.843   4.888   3.790  0.0087  1.3329 -0.3390
24537SOL     OW75284   5.143   8.041   0.136  0.1081  0.0038 -0.3364
24537SOL    HW175285   5.057   8.012   0.105  0.7417 -0.3198 -1.9209
24537SOL    HW275286   5.203   7.972   0.107  0.4789 -2.4212  4.9526
24538SOL     OW75287   4.229   1.905   1.324 -0.4254  0.3275  0.2599
24538SOL    HW175288   4.256   1.997   1.327 -1.0572  0.5053  2.0191
24538SOL    HW275289   4.291   1.863   1.264  0.7497  1.6298  0.5123
24539SOL     OW75290   5.152   6.551   1.940  0.6146  0.0231 -0.4078
24539SOL    HW175291   5.220   6.483   1.946  2.5459  1.9647  2.2558
24539SOL    HW275292   5.199   6.628   1.908 -1.4540  0.2931 -3.0537
24540SOL     OW75293   2.294   9.005   4.881  0.8017 -0.0817 -0.0994
24540SOL    HW175294   2.372   8.954   4.902  2.3043  1.9930 -0.2554
24540SOL    HW275295   2.277   9.057   4.959  1.1375  1.3134 -0.9148
24541SOL     OW75296   8.790   6.872   6.316 -0.3779  0.0540 -0.1880
24541SOL    HW175297   8.727   6.908   6.378 -0.6438 -0.5889 -0.0674
24541SOL    HW275298   8.738   6.819   6.257 -0.0271  0.0242 -0.4751
24542SOL     OW75299   8.329   4.804   2.620 -0.0243 -0.2281  0.2458
24542SOL    HW175300   8.265   4.733   2.618 -0.3889  0.0724  0.8576
24542SOL    HW275301   8.405   4.770   2.573 -0.8301 -0.3918 -1.0012
24543SOL     OW75302   0.919   6.351   7.223 -0.6493  0.2527 -0.5690
24543SOL    HW175303   0.912   6.324   7.131 -1.4563  0.0616 -0.4635
24543SOL    HW275304   0.957   6.439   7.219 -2.5595  1.1067 -1.2434
24544SOL     OW75305   4.795   4.288   8.791  0.3823 -0.6900  0.0781
24544SOL    HW175306   4.757   4.263   8.875  1.9054 -1.0394  0.6976
24544SOL    HW275307   4.793   4.384   8.792  0.0904 -0.6966  0.3742
24545SOL     OW75308   0.573   7.935   4.417 -0.1504  0.1510 -0.3955
24545SOL    HW175309   0.560   8.018   4.462  1.8613  0.8398 -0.9834
24545SOL    HW275310   0.610   7.960   4.332  1.0026 -1.3425 -0.3686
24546SOL     OW75311   2.998   1.432   3.918  0.1461  0.6036  0.7732
24546SOL    HW175312   3.085   1.461   3.889 -0.0365  1.0558  0.6653
24546SOL    HW275313   2.941   1.449   3.843  0.3800 -1.9433 -0.0763
24547SOL     OW75314   4.509   2.085   9.207 -0.2311  0.7619 -0.0866
24547SOL    HW175315   4.509   2.177   9.181  0.0062  1.3515  1.8273
24547SOL    HW275316   4.426   2.072   9.252 -0.8883 -0.3773 -1.5267
24548SOL     OW75317   4.522   4.247   1.367 -0.5671 -0.5783 -0.7638
24548SOL    HW175318   4.456   4.193   1.411  1.2975 -2.9645 -0.6346
24548SOL    HW275319   4.584   4.269   1.437 -1.1533  1.5969 -0.8838
24549SOL     OW75320   2.727   7.067   3.217  0.3052 -0.4099 -0.4175
24549SOL    HW175321   2.747   7.116   3.138  1.4809 -0.4275 -0.1370
24549SOL    HW275322   2.635   7.089   3.236  1.1169  2.8351  0.4654
24550SOL     OW75323   8.838   8.263   2.397 -0.2556  0.1941  0.3904
24550SOL    HW175324   8.865   8.245   2.487  1.1447  1.5704  0.2835
24550SOL    HW275325   8.883   8.196   2.344 -0.7687 -0.3730  0.6700
24551SOL     OW75326   3.188   7.270   7.130  0.2867  0.1122  0.3479
24551SOL    HW175327   3.136   7.346   7.106 -1.7804 -1.2049  0.4256
24551SOL    HW275328   3.125   7.207   7.164  2.0920 -1.1689  1.5214
24552SOL     OW75329   4.799   0.262   9.359  0.4691 -0.3058  0.2921
24552SOL    HW175330   4.782   0.275   9.266 -1.1615 -1.0433  0.4576
24552SOL    HW275331   4.750   0.331   9.402  1.2768  0.0761  0.6202
24553SOL     OW75332   3.237   9.408   6.592 -0.0909  0.8023  0.1901
24553SOL    HW175333   3.278   9.379   6.511 -0.1646 -0.3703  0.5520
24553SOL    HW275334   3.211   9.498   6.575  2.0945  1.4079 -0.2596
24554SOL     OW75335   1.662   6.695   0.787 -0.0821 -0.6119 -0.2133
24554SOL    HW175336   1.717   6.683   0.709  2.5001  0.1156  1.3598
24554SOL    HW275337   1.621   6.780   0.774  3.2594  1.3342  0.7015
24555SOL     OW75338   2.855   9.229   3.292  1.0239 -1.0730 -0.0440
24555SOL    HW175339   2.764   9.217   3.264  0.3702  0.6564  1.1946
24555SOL    HW275340   2.905   9.224   3.211 -0.2397 -1.4244 -0.8371
24556SOL     OW75341   8.980   5.485   7.485 -0.2477  0.3233 -0.2253
24556SOL    HW175342   9.053   5.462   7.427 -1.3750 -2.3119 -0.7038
24556SOL    HW275343   8.901   5.470   7.433 -1.2335  2.1369  0.6209
24557SOL     OW75344   2.535   6.985   2.025  0.3077  0.2017  0.1288
24557SOL    HW175345   2.518   6.891   2.030 -0.1010  0.3179  1.5506
24557SOL    HW275346   2.629   6.991   2.007  0.7494 -0.5251  1.9180
24558SOL     OW75347   1.054   8.494   7.312 -0.8325 -0.2387  0.0780
24558SOL    HW175348   0.979   8.496   7.372 -0.0301  1.1168  1.0796
24558SOL    HW275349   1.057   8.582   7.274 -0.1284 -0.4765 -0.4405
24559SOL     OW75350   4.794   3.633   2.186 -0.2370  0.1079 -0.1191
24559SOL    HW175351   4.726   3.656   2.123 -0.8999  0.0645  0.5710
24559SOL    HW275352   4.812   3.540   2.170 -1.0907 -0.1536  0.3831
24560SOL     OW75353   2.412   2.733   9.303 -0.3961  0.4167  0.4351
24560SOL    HW175354   2.372   2.812   9.339 -2.2239 -0.0530 -0.4128
24560SOL    HW275355   2.480   2.766   9.244  0.1424  1.2707  1.4871
24561SOL     OW75356   2.108   4.609   0.330 -0.4375  0.0835 -0.9596
24561SOL    HW175357   2.025   4.644   0.362  0.4800  1.1815  0.3157
24561SOL    HW275358   2.084   4.556   0.253 -2.1659  1.3117 -1.3121
24562SOL     OW75359   3.508   5.338   7.385  0.1118  0.3918 -0.1348
24562SOL    HW175360   3.587   5.383   7.354  0.0469 -0.8940 -2.3520
24562SOL    HW275361   3.436   5.387   7.344 -0.3399  1.6518  1.9927
24563SOL     OW75362   5.032   2.935   9.472  0.0867  0.4767  0.1424
24563SOL    HW175363   5.088   2.920   9.548 -0.3151  1.0385  0.5618
24563SOL    HW275364   5.058   2.868   9.409  0.8772  0.4094  0.5238
24564SOL     OW75365   6.733   4.319   5.327  0.1275 -0.0989  0.3547
24564SOL    HW175366   6.743   4.227   5.350  1.1062  0.2307  1.3522
24564SOL    HW275367   6.822   4.352   5.320 -0.1788  0.5030 -1.2374
24565SOL     OW75368   8.999   3.705   1.491 -0.1766  0.1784 -0.0067
24565SOL    HW175369   9.068   3.642   1.470  0.6090  0.5303  1.4175
24565SOL    HW275370   9.002   3.713   1.587 -2.0775  0.3410  0.0787
24566SOL     OW75371   8.872   2.267   4.728 -0.0957  0.4473 -0.0246
24566SOL    HW175372   8.848   2.175   4.734  0.5325  0.1099 -1.9451
24566SOL    HW275373   8.890   2.281   4.635 -0.0262  2.4762  0.2534
24567SOL     OW75374   2.443   6.511   1.397  0.3164  0.0340 -0.5305
24567SOL    HW175375   2.518   6.458   1.424 -0.3519 -2.0504 -2.5049
24567SOL    HW275376   2.423   6.482   1.308 -2.1986  1.2675 -0.4515
24568SOL     OW75377   8.221   9.286   4.558 -0.4655  0.4217  0.2747
24568SOL    HW175378   8.286   9.341   4.514 -0.8521 -0.1745 -1.0837
24568SOL    HW275379   8.243   9.197   4.530  0.6205 -0.2812  3.0133
24569SOL     OW75380   0.076   7.460   1.621 -0.0476  0.1049 -0.5024
24569SOL    HW175381  -0.006   7.411   1.617  0.3631 -0.5538 -1.0308
24569SOL    HW275382   0.063   7.523   1.691 -1.4563  0.8157 -1.3621
24570SOL     OW75383   2.082   7.678   2.721  0.0703  0.8859  0.0192
24570SOL    HW175384   2.123   7.639   2.798  1.1334  0.7428 -0.5970
24570SOL    HW275385   2.001   7.629   2.709  1.0757 -0.7523 -0.3815
24571SOL     OW75386   0.774   6.848   3.456 -0.1696  0.2009 -0.2725
24571SOL    HW175387   0.746   6.807   3.538  0.5351  2.7122  1.3281
24571SOL    HW275388   0.869   6.839   3.455 -0.1727  0.1608 -0.8525
24572SOL     OW75389   7.467   0.868   0.412  0.0062 -0.1063 -0.3093
24572SOL    HW175390   7.488   0.777   0.435  0.2163 -0.6115 -2.2920
24572SOL    HW275391   7.513   0.883   0.330 -1.5741  1.1664 -1.0100
24573SOL     OW75392   6.025   5.131   5.080  0.2124 -0.2857  0.0792
24573SOL    HW175393   6.062   5.217   5.063  0.6229 -0.4355  0.2171
24573SOL    HW275394   6.097   5.070   5.065  0.8720 -0.3928  3.1275
24574SOL     OW75395   5.626   1.246   8.888  0.3342 -0.1176  0.0055
24574SOL    HW175396   5.587   1.212   8.968  1.4461  1.2311  1.1875
24574SOL    HW275397   5.676   1.323   8.916  2.9222 -1.0872 -1.5460
24575SOL     OW75398   8.730   3.921   1.117  0.4322  0.5919 -0.3833
24575SOL    HW175399   8.779   4.003   1.108  1.4852  0.0585  0.3074
24575SOL    HW275400   8.794   3.859   1.153 -0.3618 -0.5220 -0.8534
24576SOL     OW75401   8.578   8.445   8.036 -0.6483 -0.3027  0.3180
24576SOL    HW175402   8.657   8.406   7.999 -0.3250  0.6889 -0.0643
24576SOL    HW275403   8.548   8.381   8.101 -0.8153 -1.7294 -1.1160
24577SOL     OW75404   3.927   0.302   4.432  0.4215  0.2175 -0.4323
24577SOL    HW175405   3.948   0.395   4.438  0.6512  0.1299  0.1629
24577SOL    HW275406   4.005   0.258   4.467 -0.2393 -0.1512  0.6074
24578SOL     OW75407   2.280   0.199   4.253  0.1172 -0.4372  0.2961
24578SOL    HW175408   2.270   0.129   4.318 -1.5490  0.1268  0.7018
24578SOL    HW275409   2.191   0.216   4.222  0.7415  0.1161 -1.3024
24579SOL     OW75410   2.236   6.721   1.369  0.1081  0.1892 -0.0802
24579SOL    HW175411   2.193   6.684   1.291  0.9922 -0.6812 -0.1771
24579SOL    HW275412   2.305   6.658   1.390  1.0144  1.2903  0.3684
24580SOL     OW75413   9.290   4.153   2.116  0.2972  0.0651 -0.3992
24580SOL    HW175414   9.361   4.132   2.177  0.9100 -0.0622 -1.1355
24580SOL    HW275415   9.320   4.233   2.073 -1.1851  1.5035  1.0927
24581SOL     OW75416   7.910   0.043   4.677 -0.4169 -0.0115  0.1202
24581SOL    HW175417   7.913   0.121   4.732 -0.0393 -0.3970  0.6593
24581SOL    HW275418   7.974   0.059   4.609  0.3658 -0.2439  0.7834
24582SOL     OW75419   4.049   0.477   5.166 -0.3993  0.0747 -0.3376
24582SOL    HW175420   4.125   0.433   5.205 -0.9790 -0.2183  0.5077
24582SOL    HW275421   4.061   0.569   5.187 -1.0985 -0.1683  1.3009
24583SOL     OW75422   2.150   1.353   6.772 -0.8110 -0.0588  0.1612
24583SOL    HW175423   2.222   1.324   6.829 -0.1953  0.3348 -0.4170
24583SOL    HW275424   2.183   1.340   6.683 -0.9098  1.4303 -0.1204
24584SOL     OW75425   1.634   0.768   0.869  0.5548 -0.5322 -0.0669
24584SOL    HW175426   1.557   0.755   0.925 -0.7485  1.6767 -1.2020
24584SOL    HW275427   1.706   0.729   0.918 -1.2316 -2.5444  1.1179
24585SOL     OW75428   5.999   2.421   9.096  0.1188  0.3245 -0.4255
24585SOL    HW175429   5.974   2.464   9.177  0.2622  1.0654 -0.7687
24585SOL    HW275430   5.925   2.363   9.076 -0.4023  0.9389 -0.3293
24586SOL     OW75431   4.369   2.108   0.176 -0.4827 -0.0590  0.3585
24586SOL    HW175432   4.395   2.173   0.241 -2.9677  1.7743 -0.3631
24586SOL    HW275433   4.374   2.154   0.092 -0.0942 -1.5202 -0.4567
24587SOL     OW75434   1.567   2.098   1.618  0.3461 -0.6553 -0.4835
24587SOL    HW175435   1.477   2.121   1.640  0.1688 -0.7015 -1.1380
24587SOL    HW275436   1.584   2.017   1.665  0.5846  0.1747  0.9210
24588SOL     OW75437   3.970   3.692   6.365 -0.0269  0.3902 -0.6454
24588SOL    HW175438   3.887   3.653   6.339 -0.2119  0.8208 -0.7090
24588SOL    HW275439   3.948   3.749   6.439  0.3222 -0.0094 -0.2262
24589SOL     OW75440   4.185   3.426   9.118 -0.3447 -0.2357 -0.2257
24589SOL    HW175441   4.171   3.503   9.173 -0.7182 -1.1729  1.0396
24589SOL    HW275442   4.260   3.449   9.064 -0.0446  0.7748  0.5801
24590SOL     OW75443   0.677   2.060   7.249 -0.3789  0.9009  0.2446
24590SOL    HW175444   0.615   2.099   7.310 -1.4196  0.0177 -0.2145
24590SOL    HW275445   0.687   1.969   7.279 -2.1882 -0.0580 -1.7849
24591SOL     OW75446   2.109   1.127   9.579 -0.5996 -0.5182  0.4281
24591SOL    HW175447   2.073   1.108   9.666  0.3294 -0.2008  0.8859
24591SOL    HW275448   2.201   1.101   9.584 -0.1602  0.8581 -0.0063
24592SOL     OW75449   2.278   4.995   0.245 -0.0762 -0.1508 -0.3960
24592SOL    HW175450   2.199   4.943   0.259 -0.9398  1.3408  0.6049
24592SOL    HW275451   2.350   4.934   0.255 -1.0731 -1.3897 -0.5300
24593SOL     OW75452   5.020   8.175   0.372  0.5734  0.3706  0.0919
24593SOL    HW175453   5.052   8.107   0.313 -0.8767 -1.2817  1.1058
24593SOL    HW275454   4.929   8.189   0.346  0.9953  2.4268 -0.4898
24594SOL     OW75455   7.204   7.836   6.986 -0.2456 -0.0212  0.1876
24594SOL    HW175456   7.154   7.854   6.907 -0.5035 -1.3271  0.0405
24594SOL    HW275457   7.146   7.862   7.057 -1.0160 -1.1750  0.0048
24595SOL     OW75458   3.293   7.893   3.623  0.0583 -0.7543  0.4799
24595SOL    HW175459   3.332   7.826   3.679  1.4417 -0.9043 -0.5974
24595SOL    HW275460   3.205   7.906   3.658 -0.8213 -4.2040 -0.1225
24596SOL     OW75461   8.518   9.667   3.633 -0.2571 -0.1815  0.0518
24596SOL    HW175462   8.589   9.719   3.594 -0.2818 -0.1353  0.0668
24596SOL    HW275463   8.487   9.612   3.562  0.7705 -1.2706  0.4174
24597SOL     OW75464   3.794   2.175   7.383 -0.2433  0.1525  0.2112
24597SOL    HW175465   3.699   2.165   7.374 -0.0992  0.1198 -2.0385
24597SOL    HW275466   3.819   2.229   7.308  1.9096 -2.8964 -1.5039
24598SOL     OW75467   7.336   3.128   5.778  0.5605  0.1838  0.3955
24598SOL    HW175468   7.389   3.127   5.857  0.1230 -1.3059  0.7034
24598SOL    HW275469   7.245   3.127   5.810  0.3317 -2.8880 -0.0154
24599SOL     OW75470   0.935   8.194   3.578  0.1703 -0.3606 -0.3976
24599SOL    HW175471   1.019   8.150   3.592 -0.8188 -2.7739 -1.4444
24599SOL    HW275472   0.923   8.248   3.655  1.9431 -1.2099  0.5429
24600SOL     OW75473   0.098   3.944   6.443  0.3018  0.0540  0.2206
24600SOL    HW175474   0.014   3.989   6.453 -0.9731 -1.6847 -1.7471
24600SOL    HW275475   0.087   3.861   6.488  1.4241  0.2719  0.9450
24601SOL     OW75476   4.260   4.106   8.548 -0.0544  0.4660  0.0796
24601SOL    HW175477   4.175   4.117   8.589 -1.4945 -0.3783 -2.4414
24601SOL    HW275478   4.312   4.059   8.612 -2.0986 -0.6834  0.9860
24602SOL     OW75479   3.981   3.149   3.027  0.1027  0.1573  0.2897
24602SOL    HW175480   3.907   3.126   2.973  0.2517  0.1292  0.0965
24602SOL    HW275481   4.055   3.101   2.990  0.0099 -0.6827  1.1459
24603SOL     OW75482   0.440   9.604   0.283  0.3949  0.1661 -0.1094
24603SOL    HW175483   0.394   9.529   0.321 -0.2082  0.4865 -0.1947
24603SOL    HW275484   0.371   9.666   0.261  0.9862  1.5791  1.7215
24604SOL     OW75485   4.570   4.437   6.672  0.1544 -0.7679 -0.7189
24604SOL    HW175486   4.477   4.427   6.692  0.4515 -2.3560 -0.0556
24604SOL    HW275487   4.607   4.349   6.679  1.5540 -0.3226 -1.8600
24605SOL     OW75488   8.641   8.120   8.082 -0.1551  0.2869  0.1606
24605SOL    HW175489   8.623   8.157   8.169  1.2825  1.2123  0.0997
24605SOL    HW275490   8.734   8.098   8.085 -0.2004 -0.0854 -1.0041
24606SOL     OW75491   5.010   8.209   1.135  0.8201  0.1354 -0.3104
24606SOL    HW175492   4.936   8.233   1.191  0.1172 -2.7544  0.1346
24606SOL    HW275493   5.013   8.277   1.068 -1.6538  0.8174  0.1971
24607SOL     OW75494   5.864   1.937   8.314  0.1447 -0.4102  0.1174
24607SOL    HW175495   5.928   2.004   8.339 -2.0850  1.9259 -0.0373
24607SOL    HW275496   5.864   1.940   8.218 -0.1223 -0.4773  0.1166
24608SOL     OW75497   7.864   5.612   9.635  0.2236 -0.0698 -0.0358
24608SOL    HW175498   7.859   5.697   9.591 -0.0613 -0.4135 -0.6768
24608SOL    HW275499   7.940   5.569   9.595 -0.7186 -0.8467 -1.0475
24609SOL     OW75500   4.684   2.600   7.139  1.4049  0.1315  0.1384
24609SOL    HW175501   4.602   2.607   7.187  0.8620  0.9137 -0.8622
24609SOL    HW275502   4.738   2.671   7.172  0.2431  2.0426 -1.8206
24610SOL     OW75503   8.708   9.438   3.327  0.2484  0.1783  0.1005
24610SOL    HW175504   8.779   9.481   3.375 -1.2161  1.1374  1.5066
24610SOL    HW275505   8.719   9.345   3.347 -0.3305  0.5469  2.4158
24611SOL     OW75506   0.604   3.212   2.040  0.5449 -0.3347 -0.6922
24611SOL    HW175507   0.582   3.301   2.065  0.0486 -0.4237 -0.8035
24611SOL    HW275508   0.656   3.178   2.113  0.1154 -0.1982 -0.3215
24612SOL     OW75509   0.431   7.843   7.280 -0.0426 -0.4233 -0.6875
24612SOL    HW175510   0.491   7.809   7.346  0.4333 -0.1635 -0.9773
24612SOL    HW275511   0.373   7.770   7.260  0.9354 -1.0690 -1.2709
24613SOL     OW75512   0.433   6.320   9.373  0.6290  0.0395 -0.6904
24613SOL    HW175513   0.478   6.399   9.343  2.1183  0.0837  1.3555
24613SOL    HW275514   0.475   6.249   9.325  0.2932  0.3634 -1.4801
24614SOL     OW75515   6.908   8.068   5.439  0.0179  0.7340 -0.3664
24614SOL    HW175516   6.837   8.004   5.449  0.8271 -0.1146  0.1022
24614SOL    HW275517   6.951   8.043   5.357  1.0415 -0.0729  0.3829
24615SOL     OW75518   7.558   5.250   6.960  0.1615  0.2376  0.1192
24615SOL    HW175519   7.636   5.282   6.915  1.0556 -0.7536  0.9106
24615SOL    HW275520   7.545   5.311   7.032 -0.8848  1.4460 -1.0519
24616SOL     OW75521   0.184   0.446   4.348  0.0398  0.2350 -0.0044
24616SOL    HW175522   0.091   0.433   4.364  0.2399 -0.7055  0.4365
24616SOL    HW275523   0.188   0.482   4.259 -0.7353  0.2207 -0.0503
24617SOL     OW75524   7.393   4.976   2.258  0.0463  0.5074  0.1419
24617SOL    HW175525   7.436   5.061   2.242  0.6425  0.6650  2.3304
24617SOL    HW275526   7.305   5.000   2.288 -0.3684  0.2715 -0.8391
24618SOL     OW75527   7.313   4.727   9.557 -0.2247 -0.3345 -0.3498
24618SOL    HW175528   7.343   4.818   9.561  0.9795 -0.6973 -0.8302
24618SOL    HW275529   7.393   4.675   9.553 -0.9130 -1.3464 -1.5889
24619SOL     OW75530   3.913   7.798   9.238  0.3035 -0.1783  0.4256
24619SOL    HW175531   3.882   7.806   9.148 -0.0931 -0.4398  0.5387
24619SOL    HW275532   3.840   7.758   9.285 -0.1893  1.5687  1.2430
24620SOL     OW75533   3.470   8.368   1.607 -1.0060  0.6486 -0.0853
24620SOL    HW175534   3.401   8.348   1.670  1.7418  0.0321  3.0287
24620SOL    HW275535   3.498   8.456   1.631  1.6122 -0.4463  1.2939
24621SOL     OW75536   1.317   5.242   8.420  0.0155 -0.7709  0.2674
24621SOL    HW175537   1.339   5.273   8.508 -1.4876  1.1662  0.0406
24621SOL    HW275538   1.241   5.294   8.395 -0.1398 -1.9027 -1.8506
24622SOL     OW75539   5.275   6.580   5.288 -0.3009  0.3354  0.2230
24622SOL    HW175540   5.226   6.507   5.326 -0.7838  1.7642  2.5390
24622SOL    HW275541   5.279   6.560   5.194 -2.2604 -1.5760  0.4635
24623SOL     OW75542   3.431   0.114   3.140 -0.4945 -0.4353  0.4529
24623SOL    HW175543   3.475   0.194   3.167 -1.0132 -0.1733  0.5321
24623SOL    HW275544   3.361   0.143   3.081 -1.1904 -0.7501  1.1016
24624SOL     OW75545   0.413   7.383   7.199  0.5365 -0.1348  0.1032
24624SOL    HW175546   0.393   7.416   7.286  0.7506 -0.9940  0.4885
24624SOL    HW275547   0.331   7.394   7.150  1.1368  2.7893 -0.4016
24625SOL     OW75548   2.063   4.868   9.454 -0.4120 -0.1335  0.2238
24625SOL    HW175549   2.150   4.888   9.419  0.4581  2.7615  3.3977
24625SOL    HW275550   2.069   4.778   9.485  0.2069 -1.1725 -2.6159
24626SOL     OW75551   7.334   8.985   9.094  0.1262  0.6947  0.1241
24626SOL    HW175552   7.248   8.962   9.128 -0.7071  0.9385 -1.7221
24626SOL    HW275553   7.319   9.062   9.040  1.1923 -0.1821 -1.5041
24627SOL     OW75554   1.297   8.388   5.038  0.0687  0.7140 -0.3070
24627SOL    HW175555   1.333   8.405   5.125  1.4183  3.2403 -1.2281
24627SOL    HW275556   1.371   8.406   4.979 -1.0412 -0.1241 -2.0005
24628SOL     OW75557   7.158   1.629   2.061 -0.7581 -0.2753  0.0101
24628SOL    HW175558   7.193   1.553   2.016  0.9553 -1.5600  3.1765
24628SOL    HW275559   7.211   1.702   2.029  0.4165 -1.1317 -0.0791
24629SOL     OW75560   1.890   2.539   7.128  0.1775  0.2215 -0.3498
24629SOL    HW175561   1.877   2.611   7.066  0.5699 -0.6459 -1.4704
24629SOL    HW275562   1.984   2.527   7.133  0.3206  1.6750  2.1191
24630SOL     OW75563   7.540   6.827   9.303 -0.0325  0.5178 -0.3198
24630SOL    HW175564   7.457   6.796   9.339  0.5524  0.0218  0.6411
24630SOL    HW275565   7.535   6.806   9.210 -0.2800 -1.0941  0.0259
24631SOL     OW75566   4.138   2.372   4.391 -0.5222  0.2119  0.5396
24631SOL    HW175567   4.164   2.315   4.318 -0.9096  1.8609 -0.9468
24631SOL    HW275568   4.104   2.451   4.349 -0.7719  1.2207  2.5295
24632SOL     OW75569   1.817   0.558   8.340 -0.3441 -0.1205  0.0395
24632SOL    HW175570   1.771   0.475   8.337  0.5290 -0.6237  0.0944
24632SOL    HW275571   1.889   0.544   8.401 -0.1090  0.6376 -0.0431
24633SOL     OW75572   1.929   7.852   3.188  0.8074 -0.4158  0.2058
24633SOL    HW175573   1.857   7.888   3.136 -1.2556  2.5923  4.5399
24633SOL    HW275574   1.908   7.759   3.196 -0.8660 -0.1953 -1.0754
24634SOL     OW75575   0.185   5.430   5.729  0.4562  0.0901 -0.2011
24634SOL    HW175576   0.158   5.514   5.690  1.2402  0.0070 -0.9554
24634SOL    HW275577   0.188   5.369   5.656 -2.9039 -1.4056  0.7192
24635SOL     OW75578   9.497   5.912   8.798  0.0594  0.0827  0.2262
24635SOL    HW175579   9.552   5.910   8.876  0.2683 -1.5287  0.0692
24635SOL    HW275580   9.545   5.860   8.733  0.8192  2.8937 -1.6736
24636SOL     OW75581   0.693   6.076   0.390  0.2881 -0.2343  0.1975
24636SOL    HW175582   0.694   6.150   0.451  0.2866 -0.8329  0.9455
24636SOL    HW275583   0.665   6.114   0.307 -0.9069  0.3996  0.8553
24637SOL     OW75584   6.324   9.311   1.773  0.1154 -0.7667  0.6303
24637SOL    HW175585   6.248   9.369   1.764  1.0146  0.3247 -0.1623
24637SOL    HW275586   6.311   9.245   1.706  0.7371  0.4522 -0.7381
24638SOL     OW75587   3.540   1.316   6.127  0.2880 -0.0636  0.0123
24638SOL    HW175588   3.636   1.313   6.127  0.3752  1.6511  0.1673
24638SOL    HW275589   3.513   1.224   6.124  1.9295 -0.5721 -0.2676
24639SOL     OW75590   0.173   9.081   0.220 -0.1199 -1.0829  0.6872
24639SOL    HW175591   0.139   9.044   0.302  1.4710 -0.1571  1.8084
24639SOL    HW275592   0.261   9.111   0.242  0.0023  0.0188 -1.1487
24640SOL     OW75593   1.205   7.945   7.632 -0.4647  0.4840  0.3462
24640SOL    HW175594   1.207   7.857   7.670  3.3201  0.1618 -0.1691
24640SOL    HW275595   1.257   7.998   7.692 -1.4321  2.0099 -0.1225
24641SOL     OW75596   4.771   9.649   8.361 -0.3297 -0.8495 -0.0034
24641SOL    HW175597   4.744   9.698   8.438  0.4645 -0.8625  0.2917
24641SOL    HW275598   4.718   9.570   8.363 -0.6886 -0.6050  0.2335
24642SOL     OW75599   3.622   9.615   2.598  0.2563 -0.0287 -0.5171
24642SOL    HW175600   3.532   9.592   2.621  0.9092 -2.9721 -0.6040
24642SOL    HW275601   3.665   9.632   2.681 -0.4763  2.0928 -0.5087
24643SOL     OW75602   1.742   6.815   8.113  0.1316  0.4198  0.0529
24643SOL    HW175603   1.819   6.857   8.075 -0.6998 -0.2517 -2.5629
24643SOL    HW275604   1.705   6.881   8.172  1.7511  1.3566  0.0800
24644SOL     OW75605   0.138   0.197   1.213 -0.1437  0.6131  0.6075
24644SOL    HW175606   0.154   0.280   1.259  1.0359  1.3637 -1.0459
24644SOL    HW275607   0.166   0.214   1.123  0.9862 -1.8408  0.4067
24645SOL     OW75608   2.923   3.573   6.287 -0.0279 -0.1413 -0.4945
24645SOL    HW175609   3.001   3.589   6.234  0.4717  0.6155  0.4294
24645SOL    HW275610   2.867   3.649   6.272  0.1239  0.0856  0.0603
24646SOL     OW75611   4.929   5.974   7.074  0.1003  0.6849  0.0700
24646SOL    HW175612   4.946   6.006   7.162  0.5664 -0.8255  0.5707
24646SOL    HW275613   4.877   6.043   7.032 -3.7422 -0.1776  2.8472
24647SOL     OW75614   7.824   7.261   9.232 -0.0549 -0.0086 -0.0971
24647SOL    HW175615   7.868   7.176   9.224  1.0644  0.1871  2.6431
24647SOL    HW275616   7.733   7.239   9.252  0.1356 -0.5846  0.1626
24648SOL     OW75617   1.562   4.847   4.008  0.3079  0.3768 -0.0826
24648SOL    HW175618   1.480   4.832   3.961  0.0051  1.0921  0.2049
24648SOL    HW275619   1.629   4.851   3.939  0.2038 -0.8678 -0.2614
24649SOL     OW75620   0.825   5.761   7.049  0.0888  0.1329  0.0325
24649SOL    HW175621   0.810   5.671   7.021 -0.0298  0.8034 -2.2944
24649SOL    HW275622   0.919   5.767   7.061 -0.0787 -0.8243  2.4218
24650SOL     OW75623   4.499   0.833   3.934 -0.0666  0.4435 -0.2011
24650SOL    HW175624   4.562   0.900   3.961 -0.4560  0.5709  0.4190
24650SOL    HW275625   4.537   0.750   3.964 -1.1084  0.6980  1.9992
24651SOL     OW75626   2.664   8.617   5.456 -0.4125 -0.9974 -0.6393
24651SOL    HW175627   2.723   8.643   5.385  0.5590  0.2148  0.5604
24651SOL    HW275628   2.668   8.690   5.518 -1.3105 -1.9824  0.6252
24652SOL     OW75629   3.370   6.016   3.504 -0.0685  0.1903  0.3267
24652SOL    HW175630   3.317   5.941   3.531 -0.3111  0.5841  0.9461
24652SOL    HW275631   3.376   6.071   3.581  1.1939  0.1968  0.2446
24653SOL     OW75632   7.596   6.680   9.560  0.4562  0.1673  0.3240
24653SOL    HW175633   7.595   6.706   9.468 -0.3259 -0.3464  0.1775
24653SOL    HW275634   7.685   6.650   9.576  0.4104 -0.4201 -0.4684
24654SOL     OW75635   5.520   7.587   2.792  0.2462 -0.4964  0.4556
24654SOL    HW175636   5.608   7.567   2.760  0.3000 -1.6274  1.2474
24654SOL    HW275637   5.462   7.554   2.723  0.4319  1.5776 -0.7660
24655SOL     OW75638   4.747   8.512   2.220  0.4379  0.0457 -0.1059
24655SOL    HW175639   4.824   8.473   2.180 -0.4203 -1.2458 -0.5630
24655SOL    HW275640   4.782   8.569   2.289  1.7701 -1.3407  0.4189
24656SOL     OW75641   2.738   5.089   3.614 -0.1402 -0.8160 -0.5826
24656SOL    HW175642   2.720   5.011   3.561  0.0784 -2.0615  1.1008
24656SOL    HW275643   2.754   5.056   3.702 -0.4783  1.1829  0.2998
24657SOL     OW75644   4.655   0.221   0.958 -0.1086  0.0123 -0.4732
24657SOL    HW175645   4.719   0.218   1.030 -0.3719  0.0806 -0.2333
24657SOL    HW275646   4.586   0.160   0.985 -0.1164 -0.1053 -0.7584
24658SOL     OW75647   5.964   5.685   9.411 -0.5786  0.1422 -0.0428
24658SOL    HW175648   5.908   5.698   9.488 -0.4860 -1.8098  0.4046
24658SOL    HW275649   5.916   5.621   9.358  0.0408  0.3896 -0.9176
24659SOL     OW75650   3.629   2.390   2.913 -0.3494 -0.0790  0.3127
24659SOL    HW175651   3.677   2.319   2.957 -1.4342 -2.2077 -1.7326
24659SOL    HW275652   3.553   2.406   2.969  0.4794  0.3120  1.3651
24660SOL     OW75653   1.147   3.034   6.194 -0.2841 -0.5983 -0.6286
24660SOL    HW175654   1.229   3.062   6.154 -1.0402  0.3832 -1.5232
24660SOL    HW275655   1.165   3.038   6.289  1.7759 -3.7095 -0.7175
24661SOL     OW75656   5.602   9.457   1.121  0.0041 -0.2249 -0.0916
24661SOL    HW175657   5.546   9.508   1.063  0.2274  0.1126 -0.0124
24661SOL    HW275658   5.554   9.375   1.135  0.4388 -0.7758 -1.6236
24662SOL     OW75659   4.412   4.035   5.060  0.1027  0.2780  0.2424
24662SOL    HW175660   4.478   4.100   5.082  0.7917 -0.4953  0.5153
24662SOL    HW275661   4.460   3.965   5.016 -0.5870 -0.1356  0.1191
24663SOL     OW75662   0.047   8.635   0.607  0.3372  0.0582 -0.1658
24663SOL    HW175663  -0.023   8.700   0.604  0.3502  0.1133  0.6555
24663SOL    HW275664   0.023   8.571   0.540 -1.2242 -0.6479  1.0030
24664SOL     OW75665   6.272   1.416   8.314 -0.7318  0.1303 -0.6243
24664SOL    HW175666   6.347   1.367   8.349 -1.4759 -0.6233 -0.0416
24664SOL    HW275667   6.258   1.378   8.227  1.6811  2.6073 -2.2734
24665SOL     OW75668   1.388   7.958   3.711  0.6344 -0.0665 -0.0391
24665SOL    HW175669   1.320   7.908   3.666  0.7893 -0.3709  0.0642
24665SOL    HW275670   1.417   7.901   3.782  0.9138  0.1131 -0.0087
24666SOL     OW75671   4.924   0.265   0.301 -0.7708  0.1256  0.4685
24666SOL    HW175672   4.871   0.339   0.272  0.5982  1.6720  1.6938
24666SOL    HW275673   4.917   0.267   0.397  1.5706  0.5234  0.7074
24667SOL     OW75674   7.230   8.426   7.092 -0.3379 -0.2315  0.4143
24667SOL    HW175675   7.219   8.521   7.084  2.4409  0.0071 -3.0890
24667SOL    HW275676   7.258   8.412   7.182  0.3447  2.4556  0.7083
24668SOL     OW75677   0.378   3.482   9.056  0.5203  0.1316  0.0937
24668SOL    HW175678   0.285   3.463   9.071  0.7142 -1.2518 -0.2593
24668SOL    HW275679   0.408   3.521   9.137 -0.6921  1.9905 -0.2908
24669SOL     OW75680   0.222   3.026   8.341 -0.1545 -0.3073  0.4667
24669SOL    HW175681   0.131   3.038   8.369 -0.3458 -0.7266  0.0450
24669SOL    HW275682   0.268   3.104   8.372 -0.5866 -0.2564  0.9842
24670SOL     OW75683   2.873   7.507   9.541  0.1272  0.2863  0.6029
24670SOL    HW175684   2.905   7.505   9.450 -0.0025 -2.4225  0.5538
24670SOL    HW275685   2.951   7.527   9.593  1.3441 -2.9442  0.2096
24671SOL     OW75686   6.520   9.433   5.121 -0.3078  0.0360 -0.5968
24671SOL    HW175687   6.513   9.347   5.164 -0.8304  0.2178 -0.3208
24671SOL    HW275688   6.443   9.438   5.064  0.0969  0.0252 -1.1595
24672SOL     OW75689   4.237   6.291   9.138 -0.0277  0.6307 -0.3105
24672SOL    HW175690   4.312   6.285   9.079 -1.4882  1.5980 -2.4199
24672SOL    HW275691   4.204   6.201   9.143  0.4698  0.4319 -0.4616
24673SOL     OW75692   3.729   5.432   1.528  0.1734  0.4705  0.0452
24673SOL    HW175693   3.677   5.355   1.552  1.8358 -0.5552  0.5358
24673SOL    HW275694   3.772   5.457   1.610  0.2930  1.4200 -0.3035
24674SOL     OW75695   4.981   2.872   0.561  0.1573 -0.0740 -0.0895
24674SOL    HW175696   5.063   2.886   0.609  1.2118  0.4479 -1.9295
24674SOL    HW275697   4.978   2.778   0.545 -0.1589 -0.2400  0.8834
24675SOL     OW75698   4.080   4.028   4.312  0.0517  0.1161 -0.5926
24675SOL    HW175699   4.060   4.121   4.301  0.8059  0.2783 -0.6801
24675SOL    HW275700   4.113   4.000   4.226  1.3378  0.1779 -0.1428
24676SOL     OW75701   5.022   2.787   0.283  0.2357 -0.3280 -0.1931
24676SOL    HW175702   5.058   2.830   0.361  0.4982 -0.7474 -0.0720
24676SOL    HW275703   4.964   2.851   0.244  1.0676  0.3475 -0.3456
24677SOL     OW75704   1.746   2.155   7.052 -0.0134  0.6255  0.2398
24677SOL    HW175705   1.684   2.219   7.087 -0.7739  0.6274 -1.0433
24677SOL    HW275706   1.732   2.077   7.105 -3.4704 -0.4594 -1.8850
24678SOL     OW75707   3.814   3.427   4.930 -0.2198 -0.2210  0.1156
24678SOL    HW175708   3.768   3.349   4.961 -1.1313  0.8420  1.5680
24678SOL    HW275709   3.842   3.404   4.841 -1.5982 -1.7292  0.0107
24679SOL     OW75710   0.556   6.744   6.263 -0.3304  0.4379 -0.4649
24679SOL    HW175711   0.461   6.731   6.265  0.0023 -2.5175 -0.1451
24679SOL    HW275712   0.576   6.784   6.348 -1.0972 -0.7536  0.3037
24680SOL     OW75713   6.988   1.369   4.945 -0.1578  1.1233 -0.3243
24680SOL    HW175714   6.972   1.435   4.876  2.9247  0.6567 -1.6543
24680SOL    HW275715   6.965   1.414   5.026 -0.9616  2.7899 -1.3990
24681SOL     OW75716   6.348   8.310   9.291 -0.3335  0.0127  0.1703
24681SOL    HW175717   6.333   8.267   9.206 -0.9706 -1.8422  1.1727
24681SOL    HW275718   6.443   8.321   9.295 -0.2538 -0.2987 -0.5900
24682SOL     OW75719   6.687   3.367   3.236  0.1472 -0.8745 -0.2206
24682SOL    HW175720   6.628   3.321   3.176 -1.8802  1.4052 -0.1207
24682SOL    HW275721   6.706   3.450   3.193  3.8518 -1.7001 -0.4724
24683SOL     OW75722   6.688   0.310   9.155 -0.9182  0.1810  0.4265
24683SOL    HW175723   6.773   0.334   9.192 -1.0089 -0.0815  0.8189
24683SOL    HW275724   6.640   0.392   9.151 -0.8144  0.2560  0.6556
24684SOL     OW75725   0.919   1.626   4.802  0.5810 -0.0703  0.6519
24684SOL    HW175726   0.871   1.591   4.727  0.1813 -0.9058  1.2764
24684SOL    HW275727   0.999   1.574   4.807  0.2231 -0.5841  1.2792
24685SOL     OW75728   9.340   2.271   1.712  0.2866  0.4442  0.1895
24685SOL    HW175729   9.396   2.251   1.787 -0.2379 -1.5681  0.1063
24685SOL    HW275730   9.288   2.347   1.741  0.7415  0.2828  1.5164
24686SOL     OW75731   3.081   3.077   8.793  0.1897 -0.5806  0.4151
24686SOL    HW175732   3.077   2.986   8.823  0.0275 -0.8294 -0.3379
24686SOL    HW275733   3.041   3.128   8.864  1.7951 -0.8931  1.5860
24687SOL     OW75734   6.496   6.816   6.565  0.2805  0.3795 -0.0034
24687SOL    HW175735   6.436   6.797   6.638 -0.5890  3.0541  0.1162
24687SOL    HW275736   6.582   6.788   6.597 -0.5423 -1.5708  0.6796
24688SOL     OW75737   3.540   6.784   0.908  0.4151 -0.4169 -0.0106
24688SOL    HW175738   3.559   6.767   1.001  1.7517  1.3056  0.0654
24688SOL    HW275739   3.619   6.824   0.874 -1.1375  1.9331 -1.1063
24689SOL     OW75740   4.335   5.497   1.840  0.4597  0.0264 -0.0967
24689SOL    HW175741   4.378   5.557   1.778  0.3516 -0.5240 -0.7190
24689SOL    HW275742   4.251   5.539   1.859  1.4742  1.4343  1.6316
24690SOL     OW75743   8.091   6.837   1.749 -0.3891  0.0802 -0.0944
24690SOL    HW175744   8.152   6.907   1.771 -0.6701  0.6672 -1.0994
24690SOL    HW275745   8.009   6.863   1.790 -0.5189  0.4043 -0.5485
24691SOL     OW75746   1.114   7.181   0.175  0.5565 -0.2325  0.5086
24691SOL    HW175747   1.120   7.086   0.187 -1.7678 -0.6604 -0.9927
24691SOL    HW275748   1.076   7.212   0.257  3.6422 -0.1435  2.0444
24692SOL     OW75749   7.697   4.264   4.488 -0.4552  0.0508 -0.3473
24692SOL    HW175750   7.673   4.355   4.505 -1.4084 -0.4351  1.0989
24692SOL    HW275751   7.791   4.261   4.504 -0.1941  0.9900 -1.5161
24693SOL     OW75752   4.767   1.085   8.533 -1.2959 -0.1615  0.2461
24693SOL    HW175753   4.807   1.172   8.542  0.6961 -1.1376  1.4353
24693SOL    HW275754   4.830   1.035   8.481 -1.5799 -1.3691  1.0220
24694SOL     OW75755   0.750   5.026   2.986  0.1479  0.7717  0.2242
24694SOL    HW175756   0.728   5.017   2.893  2.5374  0.0142 -0.3129
24694SOL    HW275757   0.714   4.947   3.027 -1.4180  1.3731  0.1163
24695SOL     OW75758   7.432   9.278   8.435 -0.5371  0.2441  0.0853
24695SOL    HW175759   7.489   9.316   8.368  0.9571 -2.4566 -0.3457
24695SOL    HW275760   7.410   9.191   8.400 -3.9690  0.6589  0.8317
24696SOL     OW75761   9.202   2.202   4.894  0.5458  0.5609 -0.4253
24696SOL    HW175762   9.157   2.126   4.857  0.3804  1.1447 -1.4587
24696SOL    HW275763   9.137   2.272   4.889  1.2239  1.1636 -0.9884
24697SOL     OW75764   2.654   5.903   3.371 -0.3631  0.3809  0.3696
24697SOL    HW175765   2.559   5.907   3.357 -0.2767  2.3360  0.1103
24697SOL    HW275766   2.691   5.898   3.282 -0.1667  1.8086  0.3594
24698SOL     OW75767   1.304   7.964   9.024  0.1972  0.4285  0.5106
24698SOL    HW175768   1.216   7.990   9.051  0.3521  2.1703 -0.5391
24698SOL    HW275769   1.363   8.014   9.080  0.5375 -0.4467  0.9506
24699SOL     OW75770   8.394   9.278   5.332 -0.0699 -0.4835 -0.6347
24699SOL    HW175771   8.303   9.286   5.306  0.1481  0.3045 -1.1772
24699SOL    HW275772   8.411   9.183   5.333 -1.5518 -0.8167  1.8829
24700SOL     OW75773   2.505   9.024   2.155  0.3420 -0.1787 -0.8131
24700SOL    HW175774   2.484   9.029   2.249  3.5925 -0.7968  0.0644
24700SOL    HW275775   2.462   9.101   2.117  0.6621  1.2692  1.5637
24701SOL     OW75776   0.543   3.427   2.882  0.3254 -0.1415 -0.0570
24701SOL    HW175777   0.465   3.415   2.937 -0.4119 -1.4612 -1.3128
24701SOL    HW275778   0.597   3.350   2.901  1.0087  0.4085  0.2754
24702SOL     OW75779   9.557   4.723   3.445 -0.1034  0.0153  0.2665
24702SOL    HW175780   9.501   4.760   3.512  1.1394 -0.1760  1.4590
24702SOL    HW275781   9.535   4.771   3.365  0.9731  2.8947  1.5959
24703SOL     OW75782   2.057   3.512   7.491 -0.1010 -0.1555 -0.1968
24703SOL    HW175783   2.013   3.583   7.443  0.9769  1.1499  0.6854
24703SOL    HW275784   1.986   3.469   7.539 -0.5600  1.5163  0.7073
24704SOL     OW75785   0.341   6.522   9.122 -0.7106  0.0845  0.0323
24704SOL    HW175786   0.419   6.535   9.176 -0.1304 -0.8709 -0.5440
24704SOL    HW275787   0.372   6.471   9.047 -1.5592  1.1229 -1.0626
24705SOL     OW75788   1.033   6.142   3.973 -0.3504 -0.2246  0.2160
24705SOL    HW175789   1.050   6.064   4.025  2.0453 -0.8791 -1.3866
24705SOL    HW275790   1.030   6.213   4.037 -0.6540 -1.3720  1.5096
24706SOL     OW75791   9.212   5.405   2.666  0.1300  0.2208 -0.9292
24706SOL    HW175792   9.149   5.334   2.677  0.5814 -0.0883 -0.2903
24706SOL    HW275793   9.177   5.476   2.720 -0.4897  0.6104 -1.8204
24707SOL     OW75794   5.251   8.745   3.003  0.0136  0.0366  0.2977
24707SOL    HW175795   5.272   8.688   2.929  2.0031  0.4963  0.4437
24707SOL    HW275796   5.288   8.700   3.079 -0.5451  0.3708  0.7734
24708SOL     OW75797   2.662   1.234   0.476  0.3259  0.4455  0.3371
24708SOL    HW175798   2.625   1.310   0.432 -1.1572 -0.2624  0.3061
24708SOL    HW275799   2.633   1.159   0.424 -0.9889 -0.3731  2.1331
24709SOL     OW75800   7.158   1.431   2.806 -0.0106  0.6577  0.1239
24709SOL    HW175801   7.115   1.363   2.754 -1.8331  0.9831  1.1101
24709SOL    HW275802   7.165   1.393   2.894  1.7637  0.6340  0.0213
24710SOL     OW75803   2.494   3.563   0.586 -0.2222  0.3333 -0.0898
24710SOL    HW175804   2.516   3.654   0.608  0.2719  0.7124 -1.9498
24710SOL    HW275805   2.420   3.542   0.643 -1.9685  2.7621 -1.2755
24711SOL     OW75806   4.682   3.588   7.122 -0.5923 -0.1920  0.4251
24711SOL    HW175807   4.625   3.614   7.049  0.0201  2.2953  0.7326
24711SOL    HW275808   4.771   3.607   7.090 -0.3924  2.5435  2.2884
24712SOL     OW75809   1.008   9.593   1.807 -0.3075  0.4239  0.1109
24712SOL    HW175810   1.057   9.552   1.735 -0.1117  0.7968  0.0313
24712SOL    HW275811   0.942   9.527   1.831  1.2753 -0.8105  1.3346
24713SOL     OW75812   6.296   3.792   2.383 -0.0277 -0.2813 -0.0862
24713SOL    HW175813   6.278   3.768   2.292 -0.5099  0.0391 -0.0759
24713SOL    HW275814   6.383   3.757   2.400  0.4312  0.4215 -0.9417
24714SOL     OW75815   9.487   5.011   4.834  0.8636  0.8352 -0.3670
24714SOL    HW175816   9.392   5.002   4.839  0.9672  0.5379  2.1781
24714SOL    HW275817   9.513   5.038   4.922  3.0192  2.3172 -1.3678
24715SOL     OW75818   7.950   1.484   3.887  0.4133  0.5693  0.1256
24715SOL    HW175819   7.996   1.406   3.919  0.3668  0.2255 -0.6344
24715SOL    HW275820   7.915   1.458   3.802 -0.1422  1.2249  0.1517
24716SOL     OW75821   8.007   1.328   7.325 -0.3416  0.5378 -0.5519
24716SOL    HW175822   7.922   1.365   7.349 -0.1952  0.4472  0.1346
24716SOL    HW275823   8.011   1.337   7.230 -1.3044  0.1329 -0.6451
24717SOL     OW75824   4.394   8.056   3.926 -0.5546  0.3903 -0.0636
24717SOL    HW175825   4.335   8.026   3.994 -1.0038 -0.2935 -0.7413
24717SOL    HW275826   4.478   8.069   3.971 -1.6549  3.4466  1.3738
24718SOL     OW75827   5.922   5.066   8.167 -0.1117  0.5220 -0.0483
24718SOL    HW175828   5.976   5.145   8.159 -0.6055  0.8245 -0.4089
24718SOL    HW275829   5.883   5.072   8.255  0.8299  0.0449  0.4193
24719SOL     OW75830   7.308   0.429   7.897  0.5901  0.1276  0.6654
24719SOL    HW175831   7.303   0.470   7.810  0.6342  1.1336  1.1238
24719SOL    HW275832   7.230   0.461   7.943 -0.5446 -2.0151  0.3445
24720SOL     OW75833   9.102   9.366   1.152  0.0175 -0.3464 -0.2909
24720SOL    HW175834   9.105   9.462   1.155  0.4996 -0.3705  1.2665
24720SOL    HW275835   9.172   9.341   1.092  0.0612  0.2761 -0.5046
24721SOL     OW75836   8.829   4.779   7.783  0.9118  0.5996  0.3198
24721SOL    HW175837   8.883   4.742   7.713  0.0678  2.4446 -1.3940
24721SOL    HW275838   8.816   4.871   7.757 -0.9854  0.8475  1.9490
24722SOL     OW75839   1.040   0.589   7.552 -0.6210 -0.1089  0.6771
24722SOL    HW175840   0.970   0.624   7.607  0.8788  0.4889  2.2880
24722SOL    HW275841   1.084   0.524   7.607 -0.3910 -1.0821 -0.6070
24723SOL     OW75842   4.319   2.589   4.163  0.0073 -0.6522 -0.0109
24723SOL    HW175843   4.350   2.499   4.173  0.2250 -0.7037 -1.0346
24723SOL    HW275844   4.317   2.624   4.252  1.4508 -1.1795  0.2527
24724SOL     OW75845   2.267   6.126   9.541 -0.1546 -0.4857 -0.2082
24724SOL    HW175846   2.322   6.067   9.593  0.7269  0.3513 -0.1631
24724SOL    HW275847   2.299   6.116   9.451  0.4883  0.4473 -0.0922
24725SOL     OW75848   0.011   8.118   6.395  0.0742 -0.0908 -0.2301
24725SOL    HW175849   0.102   8.106   6.420 -0.7705 -2.1407  2.2983
24725SOL    HW275850   0.014   8.148   6.304  3.2436  0.8336  0.0871
24726SOL     OW75851   7.278   0.773   3.460 -0.1430  0.3414  0.1672
24726SOL    HW175852   7.194   0.727   3.460 -0.0195  0.1111 -0.3189
24726SOL    HW275853   7.260   0.856   3.416 -0.1256  0.3089  0.0986
24727SOL     OW75854   4.239   2.151   3.069 -0.1823  0.2577  0.8808
24727SOL    HW175855   4.217   2.221   3.008  1.9053  0.8244  0.7004
24727SOL    HW275856   4.156   2.131   3.113 -1.7862 -0.1160 -2.0160
24728SOL     OW75857   0.142   1.923   5.161 -0.4702  0.5382 -0.4289
24728SOL    HW175858   0.229   1.933   5.198 -0.4709 -0.6492 -0.0921
24728SOL    HW275859   0.157   1.885   5.074 -0.6268  0.8736 -0.6063
24729SOL     OW75860   7.505   8.831   8.584 -0.7449 -0.1376  0.5613
24729SOL    HW175861   7.413   8.813   8.605 -1.5336  1.7600 -0.9800
24729SOL    HW275862   7.554   8.781   8.649 -2.8567 -0.8939  1.6852
24730SOL     OW75863   6.307   6.617   2.281 -0.4349  0.0614  0.3925
24730SOL    HW175864   6.333   6.593   2.193 -1.2908 -0.2817  0.2231
24730SOL    HW275865   6.326   6.540   2.335 -0.1836  0.1670  0.4577
24731SOL     OW75866   8.145   2.918   3.997  0.3767 -0.4706  0.0499
24731SOL    HW175867   8.231   2.923   4.037  0.9480  1.0010 -1.2659
24731SOL    HW275868   8.107   2.838   4.033  1.7869 -0.5129  1.5930
24732SOL     OW75869   2.550   6.711   1.990 -0.0286 -0.1776  0.0601
24732SOL    HW175870   2.617   6.721   1.922 -1.1579 -1.3576 -1.2853
24732SOL    HW275871   2.564   6.623   2.025  0.2991  0.2801  1.1422
24733SOL     OW75872   6.337   4.183   9.612  0.1771 -0.4767 -0.1305
24733SOL    HW175873   6.393   4.107   9.596  2.2772  0.6642  1.2671
24733SOL    HW275874   6.357   4.242   9.540  1.3828  0.2070  0.7179
24734SOL     OW75875   6.603   6.761   3.384 -0.2597  0.4894 -0.0631
24734SOL    HW175876   6.532   6.824   3.384 -0.5318  0.2078 -1.0200
24734SOL    HW275877   6.564   6.680   3.418  0.2255  0.9480  1.6816
24735SOL     OW75878   5.834   4.564   3.207 -0.3835 -0.2760 -0.1891
24735SOL    HW175879   5.797   4.522   3.285  0.8473  1.1584  1.2308
24735SOL    HW275880   5.829   4.496   3.139 -0.0089 -2.1528  1.5556
24736SOL     OW75881   8.668   3.249   2.886  0.0461  0.3874 -0.0139
24736SOL    HW175882   8.705   3.239   2.974 -0.0479 -0.4875 -0.0655
24736SOL    HW275883   8.719   3.319   2.846 -0.0286  0.9229  0.8004
24737SOL     OW75884   5.855   1.262   3.553  0.2916 -0.2480 -0.5433
24737SOL    HW175885   5.774   1.264   3.503  0.2603 -0.1321 -0.4890
24737SOL    HW275886   5.835   1.210   3.630 -0.3228  1.4227  0.4719
24738SOL     OW75887   4.069   2.457   3.981  0.6222  0.1066 -0.1693
24738SOL    HW175888   4.127   2.496   3.916 -0.2678  2.1720  0.2144
24738SOL    HW275889   4.129   2.424   4.049  1.5064 -1.3157 -1.5662
24739SOL     OW75890   4.064   4.718   2.590 -0.3315  0.2513 -0.0341
24739SOL    HW175891   4.077   4.654   2.520  0.4023 -3.8288  3.4267
24739SOL    HW275892   3.972   4.743   2.582 -0.9425 -2.0150 -1.0003
24740SOL     OW75893   9.603   5.723   8.644 -0.3283  0.1300 -0.3767
24740SOL    HW175894   9.634   5.657   8.706 -2.2108  0.5979  1.1648
24740SOL    HW275895   9.589   5.675   8.563 -1.4554 -1.3546  0.6394
24741SOL     OW75896   1.089   2.439   6.486  0.2743 -0.1299 -0.1351
24741SOL    HW175897   1.128   2.351   6.482 -0.0573 -0.3070  0.3523
24741SOL    HW275898   1.048   2.442   6.572  1.2411  0.9206  0.3153
24742SOL     OW75899   1.571   5.203   4.056  0.2944 -0.0772 -0.2106
24742SOL    HW175900   1.580   5.173   4.147  0.7148  0.6297 -0.0127
24742SOL    HW275901   1.660   5.220   4.027  0.2138 -0.8964 -0.9768
24743SOL     OW75902   3.556   5.633   6.240 -0.1189 -0.4106  0.1437
24743SOL    HW175903   3.636   5.601   6.199 -0.0698 -1.5415  1.0650
24743SOL    HW275904   3.583   5.712   6.287  0.2293 -0.2212 -0.3664
24744SOL     OW75905   0.755   8.519   0.441 -0.5579 -1.0134  0.0714
24744SOL    HW175906   0.667   8.540   0.411 -0.8058 -0.5602  1.0994
24744SOL    HW275907   0.769   8.575   0.517  1.6173  0.9658 -1.6081
24745SOL     OW75908   4.940   9.581   4.860  0.2568 -0.5553 -0.2392
24745SOL    HW175909   5.006   9.643   4.889 -0.7477  0.8261 -0.7823
24745SOL    HW275910   4.966   9.498   4.898  0.5423  0.5865  2.2326
24746SOL     OW75911   7.454   5.395   9.351 -0.4855 -0.6007 -0.6191
24746SOL    HW175912   7.546   5.416   9.365 -0.7461  1.0234 -1.1290
24746SOL    HW275913   7.443   5.309   9.392  1.0268 -0.4074  0.2933
24747SOL     OW75914   1.577   6.638   3.044  0.8033  0.1139  0.3038
24747SOL    HW175915   1.613   6.613   2.959  0.8163  2.1993 -0.3487
24747SOL    HW275916   1.510   6.703   3.024 -2.0939 -2.1856  1.6312
24748SOL     OW75917   4.725   5.416   3.362 -0.2679 -0.6169 -0.9937
24748SOL    HW175918   4.737   5.418   3.267  1.4988 -1.8983 -0.8507
24748SOL    HW275919   4.728   5.508   3.388 -0.4521 -0.2695 -2.1439
24749SOL     OW75920   6.703   0.933   4.586  0.1761 -0.2651  0.2248
24749SOL    HW175921   6.670   0.847   4.610  0.9680 -0.2416  1.4769
24749SOL    HW275922   6.728   0.974   4.669 -0.4210  1.2800 -0.3083
24750SOL     OW75923   9.440   9.287   7.645 -0.4636  0.1809  0.5325
24750SOL    HW175924   9.460   9.361   7.588 -1.1178 -0.7143 -0.9232
24750SOL    HW275925   9.418   9.326   7.730  2.3697  1.4676  0.7979
24751SOL     OW75926   0.141   8.440   5.129  0.4065  0.0966  0.4925
24751SOL    HW175927   0.211   8.489   5.173  0.4426  0.9545 -0.4800
24751SOL    HW275928   0.158   8.348   5.152  1.7081  0.3099  0.4848
24752SOL     OW75929   4.394   4.578   9.460 -0.8573  0.1966 -0.1722
24752SOL    HW175930   4.445   4.571   9.380 -0.0545 -0.3354  0.3661
24752SOL    HW275931   4.401   4.491   9.501  0.2499  0.9429  1.3369
24753SOL     OW75932   0.679   2.201   9.544  0.0533 -0.2735  0.0082
24753SOL    HW175933   0.643   2.113   9.545 -1.5919  0.3500  1.8242
24753SOL    HW275934   0.603   2.258   9.534  0.9618  0.9659 -0.0214
24754SOL     OW75935   8.011   7.417   9.392 -0.0391 -0.4735 -0.0487
24754SOL    HW175936   7.957   7.365   9.332 -0.2089  0.1643 -0.4578
24754SOL    HW275937   8.027   7.359   9.467  0.5200 -1.4283 -0.8827
24755SOL     OW75938   3.229   1.294   7.744  0.2465  0.4666  0.5527
24755SOL    HW175939   3.206   1.372   7.794  0.5947 -0.1599  1.7356
24755SOL    HW275940   3.325   1.291   7.749  0.1665 -1.0567  2.1878
24756SOL     OW75941   6.005   6.415   8.570  0.3782  0.2194 -0.5108
24756SOL    HW175942   5.971   6.497   8.607  0.4054  0.2358 -0.5223
24756SOL    HW275943   5.927   6.364   8.550  0.3901 -0.4951  1.1329
24757SOL     OW75944   5.398   3.482   4.010  0.0076  0.0634  0.0194
24757SOL    HW175945   5.438   3.396   4.001 -1.4379 -0.5690 -0.7603
24757SOL    HW275946   5.471   3.542   4.023  1.1627 -1.0668 -1.0838
24758SOL     OW75947   2.625   8.866   3.662  0.3324 -0.3765 -0.1482
24758SOL    HW175948   2.565   8.933   3.693  1.6640  1.0904 -0.5877
24758SOL    HW275949   2.611   8.861   3.568  1.5337  0.6785 -0.4031
24759SOL     OW75950   3.201   4.144   0.371 -0.3235 -0.2274 -0.4133
24759SOL    HW175951   3.170   4.186   0.452  0.2756  0.4666 -0.5267
24759SOL    HW275952   3.184   4.209   0.303 -0.5537 -0.6935 -0.8048
24760SOL     OW75953   6.133   1.039   0.104  0.2006  0.6309 -0.7111
24760SOL    HW175954   6.117   1.129   0.077  1.4766  0.6917 -1.3302
24760SOL    HW275955   6.065   1.021   0.169  0.7864  2.5087  0.4772
24761SOL     OW75956   3.220   3.211   9.014  0.0451  0.1987 -0.1610
24761SOL    HW175957   3.180   3.139   9.062 -2.8668  1.1010 -1.0599
24761SOL    HW275958   3.313   3.205   9.036  0.2040 -4.4983 -1.0875
24762SOL     OW75959   9.219   2.507   8.936 -0.6970  0.7209 -0.6342
24762SOL    HW175960   9.158   2.563   8.889 -0.5500  1.6442  0.2465
24762SOL    HW275961   9.171   2.480   9.015 -0.4036  0.4439 -0.5472
24763SOL     OW75962   4.453   0.248   8.322 -0.0733  0.1489  0.2047
24763SOL    HW175963   4.493   0.210   8.244  0.8971  0.9264  0.3066
24763SOL    HW275964   4.526   0.282   8.372 -0.7274  0.0356  1.2593
24764SOL     OW75965   2.599   0.530   3.953 -0.1375 -0.0185 -0.2279
24764SOL    HW175966   2.609   0.548   3.860 -0.6195  1.1224 -0.0684
24764SOL    HW275967   2.688   0.511   3.983 -0.1312 -1.5884 -1.1343
24765SOL     OW75968   3.427   6.059   1.249  0.1272 -0.2319 -0.3103
24765SOL    HW175969   3.511   6.103   1.259 -0.3594  1.3152 -2.4083
24765SOL    HW275970   3.369   6.103   1.312  0.0116  1.1951 -1.3783
24766SOL     OW75971   3.599   8.030   4.153  0.2507 -0.5590 -0.4751
24766SOL    HW175972   3.679   8.003   4.109  0.2637  0.2446 -0.9643
24766SOL    HW275973   3.529   8.008   4.091  0.1544 -0.6315 -0.3404
24767SOL     OW75974   5.747   1.270   1.388 -0.1548  0.4171  0.0969
24767SOL    HW175975   5.709   1.243   1.471 -2.0679  1.9472 -0.1824
24767SOL    HW275976   5.682   1.243   1.323  1.2722 -0.6895 -0.9366
24768SOL     OW75977   5.876   6.961   8.120 -0.2375  0.3626  0.1186
24768SOL    HW175978   5.844   6.942   8.208 -0.3812  1.7564  0.3879
24768SOL    HW275979   5.930   7.039   8.130 -1.8788  1.7605 -1.3141
24769SOL     OW75980   6.273   0.146   7.448 -0.3868  0.0915 -0.1127
24769SOL    HW175981   6.192   0.114   7.409 -1.0123  0.4787  0.8242
24769SOL    HW275982   6.252   0.157   7.541  1.1486 -1.1750  0.4273
24770SOL     OW75983   0.682   7.431   0.921 -0.3926  0.2086  0.2146
24770SOL    HW175984   0.652   7.340   0.917 -3.3902  0.9726  2.0444
24770SOL    HW275985   0.752   7.435   0.856 -0.0858 -3.3818  0.0734
24771SOL     OW75986   3.177   5.119   8.401  0.4229 -0.1024 -0.1608
24771SOL    HW175987   3.151   5.073   8.481 -0.1188  1.0439  0.3396
24771SOL    HW275988   3.095   5.149   8.363  0.6527 -0.7946 -1.2801
24772SOL     OW75989   4.154   7.605   1.758 -0.2164 -0.0322  0.4649
24772SOL    HW175990   4.158   7.571   1.848  0.1445 -0.5960  0.2365
24772SOL    HW275991   4.203   7.541   1.706  0.5834  0.9053  0.0485
24773SOL     OW75992   2.485   5.428   5.801  0.5243  0.1442 -0.4438
24773SOL    HW175993   2.542   5.365   5.758 -2.2525 -0.7485 -3.2535
24773SOL    HW275994   2.417   5.375   5.842  0.0254  1.2331  0.1953
24774SOL     OW75995   8.627   3.718   2.976 -0.5292  0.4136 -0.5432
24774SOL    HW175996   8.629   3.792   3.036  1.3351 -0.0586  0.0284
24774SOL    HW275997   8.627   3.641   3.032  0.5716 -0.0324 -1.1314
24775SOL     OW75998   2.535   6.421   7.579 -0.2017  0.0694 -0.2829
24775SOL    HW175999   2.594   6.413   7.504  0.4232 -0.6616  0.2725
24775SOL    HW276000   2.447   6.410   7.543  0.0694  0.1097 -0.9598
24776SOL     OW76001   3.469   2.170   1.027  0.3727 -0.7333 -0.0231
24776SOL    HW176002   3.541   2.168   0.964  0.9567 -0.6200  0.6284
24776SOL    HW276003   3.478   2.088   1.076  0.7223 -0.2291  0.7815
24777SOL     OW76004   5.590   6.483   6.578 -0.0858  0.8132  0.1691
24777SOL    HW176005   5.669   6.530   6.552  0.1228  0.8181  0.7926
24777SOL    HW276006   5.522   6.551   6.583  0.0121  0.9080  0.2173
24778SOL     OW76007   2.088   3.614   3.469  0.0407 -0.3599  0.0855
24778SOL    HW176008   2.170   3.564   3.467  0.7198  0.7163  0.2395
24778SOL    HW276009   2.112   3.698   3.507 -1.1489 -0.0244  0.1384
24779SOL     OW76010   6.328   8.217   6.682 -0.0774 -0.0179  0.2649
24779SOL    HW176011   6.293   8.171   6.759 -1.2001  1.8687  0.9830
24779SOL    HW276012   6.252   8.263   6.646  0.7898  0.5233 -0.9244
24780SOL     OW76013   7.972   2.040   8.090  0.5914  0.0932  0.5413
24780SOL    HW176014   7.893   2.065   8.041  0.4420  1.7883  1.5770
24780SOL    HW276015   8.020   2.122   8.101  2.4619 -0.8780  0.0626
24781SOL     OW76016   5.044   4.568   5.634 -0.7247 -0.0783 -0.5297
24781SOL    HW176017   4.957   4.556   5.674 -0.4950 -0.6860 -0.1923
24781SOL    HW276018   5.033   4.643   5.575 -0.7995  1.5784  1.4810
24782SOL     OW76019   8.034   2.784   2.073  0.0634  0.0180  0.2376
24782SOL    HW176020   8.064   2.854   2.131  0.4202  1.0516 -1.1283
24782SOL    HW276021   8.098   2.714   2.083  0.6194  0.5495  0.4300
24783SOL     OW76022   7.460   4.466   5.315 -0.2996  0.0632  0.4328
24783SOL    HW176023   7.547   4.455   5.355  0.2311 -0.6554 -0.8202
24783SOL    HW276024   7.462   4.554   5.277  0.5431 -0.5371 -1.0100
24784SOL     OW76025   3.753   1.566   9.225  0.7608 -0.0683 -0.3597
24784SOL    HW176026   3.841   1.584   9.259  0.1038  0.5962  1.1237
24784SOL    HW276027   3.735   1.476   9.252  0.0772  0.5938  1.5766
24785SOL     OW76028   9.231   6.421   6.473 -0.0342 -0.1459  0.0891
24785SOL    HW176029   9.167   6.372   6.421  0.4865 -1.4030  0.5775
24785SOL    HW276030   9.286   6.353   6.513  2.9557  0.8699 -1.9467
24786SOL     OW76031   8.217   5.669   4.554  0.2765 -0.1092  0.6682
24786SOL    HW176032   8.123   5.656   4.544  0.1305  0.5514  1.1599
24786SOL    HW276033   8.242   5.721   4.478  0.0484  0.6467  1.1042
24787SOL     OW76034   9.112   9.322   5.479 -0.0813 -0.3916 -0.6207
24787SOL    HW176035   9.065   9.398   5.444 -1.1190 -0.3875  0.7312
24787SOL    HW276036   9.056   9.247   5.457 -0.3846 -0.4653  0.3682
24788SOL     OW76037   1.378   7.162   7.380  0.2509 -0.3514  0.0014
24788SOL    HW176038   1.433   7.213   7.440  0.3740 -0.5853  0.0883
24788SOL    HW276039   1.321   7.227   7.339  0.5096 -0.1216 -0.0001
24789SOL     OW76040   5.863   2.448   5.562 -0.2699  0.2506  0.2727
24789SOL    HW176041   5.817   2.414   5.486 -1.8027 -0.2041  1.3595
24789SOL    HW276042   5.889   2.537   5.536 -0.9107  0.1623 -0.7261
24790SOL     OW76043   2.820   0.823   1.433  0.8335 -0.3002  0.0779
24790SOL    HW176044   2.781   0.767   1.366 -0.3960  1.2993 -0.5925
24790SOL    HW276045   2.905   0.847   1.397 -0.4745  1.9404 -1.8380
24791SOL     OW76046   7.896   6.854   0.602  0.4183  0.0673  0.9209
24791SOL    HW176047   7.946   6.911   0.544  1.4291 -0.8857  0.8273
24791SOL    HW276048   7.962   6.814   0.659 -0.3985 -0.1508  1.7406
24792SOL     OW76049   5.099   1.785   2.825  0.4712  0.2707  0.1774
24792SOL    HW176050   5.183   1.831   2.833  0.5097  0.2612 -0.1769
24792SOL    HW276051   5.103   1.716   2.891 -0.2844  1.8439  1.9598
24793SOL     OW76052   3.069   6.668   7.914  0.5897 -0.2479 -0.8632
24793SOL    HW176053   3.122   6.670   7.994 -0.7444 -1.2781  0.0911
24793SOL    HW276054   3.043   6.576   7.905 -1.1623  0.2401 -1.1888
24794SOL     OW76055   9.582   2.520   0.553  0.3373 -0.3992  0.4677
24794SOL    HW176056   9.526   2.544   0.480  0.3546  0.2249  0.6587
24794SOL    HW276057   9.609   2.430   0.534  1.6312  0.2717 -1.1159
24795SOL     OW76058   4.117   5.451   3.614 -0.4246  0.2920 -0.7265
24795SOL    HW176059   4.038   5.438   3.665 -0.0611  0.2079 -0.1758
24795SOL    HW276060   4.178   5.386   3.647  0.2648  1.1132 -0.3309
24796SOL     OW76061   4.047   8.165   0.207 -0.0122  0.1387 -0.1825
24796SOL    HW176062   4.066   8.232   0.272 -0.2680  0.8839 -0.8628
24796SOL    HW276063   4.004   8.212   0.135  0.2577 -0.6608 -0.8905
24797SOL     OW76064   4.528   8.025   9.555 -0.1048  0.1222 -0.0941
24797SOL    HW176065   4.481   8.039   9.473  0.0921 -1.3325 -0.4856
24797SOL    HW276066   4.516   7.932   9.573 -2.0354  0.7889  2.7231
24798SOL     OW76067   5.487   3.362   8.111  0.0028 -0.2383 -0.5490
24798SOL    HW176068   5.410   3.308   8.127 -1.4359  1.4794 -1.3628
24798SOL    HW276069   5.481   3.432   8.175 -1.1130  1.8689 -2.7841
24799SOL     OW76070   5.094   9.623   3.467 -0.1191 -0.0658  0.3920
24799SOL    HW176071   5.147   9.593   3.540 -0.9822 -1.4664  0.4928
24799SOL    HW276072   5.014   9.570   3.472 -0.1755 -0.2624 -1.5902
24800SOL     OW76073   4.504   9.192   8.686  0.2054  0.2508 -0.2463
24800SOL    HW176074   4.449   9.198   8.607  0.8348  3.4706 -0.5919
24800SOL    HW276075   4.589   9.164   8.653 -0.1781 -0.8687 -0.3111
24801SOL     OW76076   6.599   1.962   2.190 -0.5630  0.0987 -0.0578
24801SOL    HW176077   6.527   2.003   2.142 -0.7675  0.0503  0.2035
24801SOL    HW276078   6.675   1.971   2.132 -0.5586  1.0074  0.0764
24802SOL     OW76079   5.576   8.764   5.552 -0.2498  0.3189 -0.1580
24802SOL    HW176080   5.485   8.749   5.525 -0.4252  1.1765 -0.0821
24802SOL    HW276081   5.606   8.680   5.587 -1.6679  0.5287  1.7120
24803SOL     OW76082   5.485   1.379   1.560  0.6062  0.3941 -0.3292
24803SOL    HW176083   5.575   1.375   1.593  1.1322  1.9428 -1.5090
24803SOL    HW276084   5.486   1.324   1.482  0.6787  0.8403 -0.6465
24804SOL     OW76085   8.344   7.305   3.720  0.3608 -0.3418  0.2245
24804SOL    HW176086   8.392   7.367   3.666  1.3790 -0.3861  1.0642
24804SOL    HW276087   8.399   7.227   3.723  0.2135 -0.4242  1.1337
24805SOL     OW76088   8.803   4.724   7.223  0.3387  0.0965  0.0086
24805SOL    HW176089   8.876   4.666   7.243 -0.4399 -0.8420  0.2335
24805SOL    HW276090   8.835   4.780   7.152  1.0611 -0.7555 -0.3573
24806SOL     OW76091   4.899   5.229   3.472  0.0041 -0.6191 -0.0503
24806SOL    HW176092   4.931   5.281   3.546  3.2771 -1.5583 -0.6844
24806SOL    HW276093   4.824   5.279   3.439  1.1049  2.0894  1.2105
24807SOL     OW76094   1.170   1.805   3.590 -0.4997 -0.7783 -0.8198
24807SOL    HW176095   1.167   1.796   3.685 -0.9440 -1.3027 -0.8716
24807SOL    HW276096   1.176   1.714   3.558 -0.2603 -0.6015 -1.2832
24808SOL     OW76097   5.514   8.124   2.970 -0.1829 -0.1394 -0.1218
24808SOL    HW176098   5.458   8.143   3.045  0.2517 -0.7721  0.3827
24808SOL    HW276099   5.520   8.028   2.968  0.6111 -0.0985 -0.3483
24809SOL     OW76100   0.310   4.496   5.719  0.4640  0.7608  0.2704
24809SOL    HW176101   0.318   4.407   5.753 -0.4387  0.2074 -0.9121
24809SOL    HW276102   0.280   4.548   5.795  0.5403 -0.0250  0.8495
24810SOL     OW76103   5.382   9.442   5.734  0.1259 -0.0158  0.2776
24810SOL    HW176104   5.457   9.426   5.791  0.7439 -0.4389 -0.6250
24810SOL    HW276105   5.410   9.511   5.674 -0.4218  0.2538  0.3205
24811SOL     OW76106   3.985   8.485   1.236 -0.8765 -0.6058 -0.1824
24811SOL    HW176107   3.912   8.545   1.220 -0.9616 -0.1484  1.7477
24811SOL    HW276108   4.036   8.526   1.305 -0.7917 -2.6136  1.0311
24812SOL     OW76109   0.530   7.989   8.294  0.1465  0.1290 -0.4738
24812SOL    HW176110   0.509   7.967   8.203 -1.3158  1.5970 -0.5337
24812SOL    HW276111   0.624   8.010   8.293  1.4703 -4.6508 -0.6194
24813SOL     OW76112   3.626   8.436   2.550 -0.1496 -0.3761  0.7651
24813SOL    HW176113   3.536   8.402   2.553 -0.0710 -0.5740  0.8523
24813SOL    HW276114   3.679   8.367   2.588  0.4003 -1.4268 -1.6778
24814SOL     OW76115   7.803   2.000   8.731 -0.1145  0.5654 -0.2652
24814SOL    HW176116   7.814   2.089   8.697  1.0712  0.0542 -1.2955
24814SOL    HW276117   7.709   1.986   8.730 -0.3258  1.8334 -0.0195
24815SOL     OW76118   2.415   7.285   3.246  0.4883 -0.3485 -0.1968
24815SOL    HW176119   2.448   7.215   3.189  2.5387  1.2038 -1.0267
24815SOL    HW276120   2.491   7.314   3.295 -0.4039  1.0639  0.4077
24816SOL     OW76121   0.899   6.620   4.537  0.2619  0.6957  0.3647
24816SOL    HW176122   0.806   6.597   4.536  0.4369 -0.2060  1.9770
24816SOL    HW276123   0.920   6.630   4.630  1.6403  1.5116 -0.0097
24817SOL     OW76124   3.082   6.176   7.647 -0.1368  0.4838  0.2902
24817SOL    HW176125   3.138   6.250   7.623 -0.5677  0.3406 -1.2467
24817SOL    HW276126   3.063   6.190   7.740  1.4322  1.1935  0.5355
24818SOL     OW76127   8.668   9.390   5.347  0.5983 -0.1187  0.6070
24818SOL    HW176128   8.738   9.328   5.365  0.4780 -0.9786 -1.5871
24818SOL    HW276129   8.588   9.338   5.352  0.4936 -0.1826 -1.2367
24819SOL     OW76130   3.629   8.444   6.142  0.2345  0.2304 -0.1844
24819SOL    HW176131   3.642   8.493   6.061  2.5126  1.8994  1.0796
24819SOL    HW276132   3.592   8.360   6.114 -1.9890  1.8699 -2.6215
24820SOL     OW76133   2.147   7.204   8.275  1.1410 -0.1419  0.2550
24820SOL    HW176134   2.158   7.211   8.180  0.0119  0.6269  0.1581
24820SOL    HW276135   2.053   7.214   8.289  1.4340  1.1318  1.5615
24821SOL     OW76136   4.344   2.204   0.905  0.2768 -0.1286 -0.1365
24821SOL    HW176137   4.314   2.120   0.871 -0.6351  0.2837 -0.3832
24821SOL    HW276138   4.411   2.182   0.970 -0.4448 -1.0699  0.3003
24822SOL     OW76139   5.580   5.131   7.539  0.4180 -0.2743  0.2267
24822SOL    HW176140   5.541   5.209   7.500  1.9901  0.3148 -0.2650
24822SOL    HW276141   5.639   5.097   7.471  0.1303 -1.6226  0.6151
24823SOL     OW76142   6.889   2.012   8.276  0.1096 -0.5779 -0.2193
24823SOL    HW176143   6.858   2.053   8.356 -0.3729 -0.5685 -0.4049
24823SOL    HW276144   6.981   2.037   8.269  0.2916 -1.0021  0.5961
24824SOL     OW76145   1.632   4.456   1.638  0.0752  0.5976 -0.1131
24824SOL    HW176146   1.611   4.535   1.588 -1.7998 -0.1318 -0.6046
24824SOL    HW276147   1.652   4.391   1.571  1.2008  0.5410  0.2694
24825SOL     OW76148   5.874   6.537   5.201 -0.0819 -0.4335  0.1425
24825SOL    HW176149   5.901   6.502   5.116  1.4184 -0.9678  0.8056
24825SOL    HW276150   5.924   6.486   5.265  0.1147  1.0958  1.2581
24826SOL     OW76151   5.366   8.343   6.853 -0.5770  0.0191  0.1847
24826SOL    HW176152   5.454   8.306   6.844 -0.4340  0.6109 -1.1436
24826SOL    HW276153   5.375   8.434   6.824 -1.7964 -0.1642 -0.8795
24827SOL     OW76154   7.457   9.568   4.459  0.2446 -0.2531  0.1282
24827SOL    HW176155   7.383   9.508   4.449  0.2099  0.0509 -1.9735
24827SOL    HW276156   7.531   9.512   4.482  0.2103 -1.1392 -1.7796
24828SOL     OW76157   3.565   6.891   3.566 -0.3203 -0.0068  0.4326
24828SOL    HW176158   3.474   6.875   3.540  0.1568 -1.2304 -0.5777
24828SOL    HW276159   3.599   6.951   3.500 -0.3451  0.3218  0.7165
24829SOL     OW76160   5.749   5.036   7.366 -0.8689 -0.3312 -0.2870
24829SOL    HW176161   5.796   5.114   7.336 -1.5004 -0.5036 -1.7835
24829SOL    HW276162   5.814   4.989   7.419 -0.3981  1.0572  0.4290
24830SOL     OW76163   2.715   1.210   8.820  0.0204  0.3416 -0.1836
24830SOL    HW176164   2.704   1.305   8.825 -0.6702  0.3452 -1.3552
24830SOL    HW276165   2.626   1.175   8.826  0.3045 -0.2652  0.6413
24831SOL     OW76166   5.212   8.830   7.197  0.3910  0.6257  0.1528
24831SOL    HW176167   5.197   8.750   7.248 -3.5072  2.0217  1.5942
24831SOL    HW276168   5.281   8.876   7.244  1.0803 -0.8359  0.6312
24832SOL     OW76169   3.682   8.243   3.769 -0.0322 -0.2541  0.2199
24832SOL    HW176170   3.762   8.290   3.795 -0.5562  0.8494 -0.1282
24832SOL    HW276171   3.686   8.241   3.674 -0.2531 -0.5052  0.2162
24833SOL     OW76172   3.763   1.489   6.112 -0.4437 -0.8237 -0.0190
24833SOL    HW176173   3.704   1.550   6.067 -0.0874 -0.7232 -0.3610
24833SOL    HW276174   3.832   1.471   6.048  0.7036  0.2307  0.8669
24834SOL     OW76175   5.238   5.489   3.715 -0.6460 -0.2553 -0.7348
24834SOL    HW176176   5.283   5.429   3.655 -0.2832 -0.9937  0.2472
24834SOL    HW276177   5.213   5.564   3.661  1.3104 -0.0591 -1.4175
24835SOL     OW76178   5.394   3.533   2.992 -0.4944 -0.2185 -0.8761
24835SOL    HW176179   5.343   3.611   2.968  0.5098  1.5010  2.0887
24835SOL    HW276180   5.477   3.543   2.944 -1.1668 -0.6763 -2.1971
24836SOL     OW76181   8.328   7.798   9.231 -0.6399 -0.4860 -0.4903
24836SOL    HW176182   8.354   7.848   9.154  2.1551 -1.2166 -0.1359
24836SOL    HW276183   8.405   7.800   9.288 -1.8144 -1.9037  1.2585
24837SOL     OW76184   5.899   0.139   3.986  0.1796  0.1617 -0.4200
24837SOL    HW176185   5.922   0.112   4.075 -1.4783 -1.0983 -0.3020
24837SOL    HW276186   5.929   0.067   3.930 -2.5605 -1.2261 -0.3225
24838SOL     OW76187   6.717   3.609   3.097  0.1697  0.4456 -0.0166
24838SOL    HW176188   6.670   3.684   3.133  1.5664  1.7331 -0.7533
24838SOL    HW276189   6.746   3.638   3.010  0.8191 -0.9207 -0.2923
24839SOL     OW76190   0.010   5.108   2.321 -0.2714 -0.1665 -0.3640
24839SOL    HW176191  -0.021   5.192   2.357 -1.0052  0.2199 -1.8560
24839SOL    HW276192   0.088   5.088   2.374  0.0338  1.5527 -0.0959
24840SOL     OW76193   3.183   0.061   5.899 -0.1200 -0.4781 -0.3047
24840SOL    HW176194   3.160   0.114   5.822  0.3198 -1.6141 -1.2641
24840SOL    HW276195   3.132  -0.019   5.889  0.2921 -0.8321  0.3483
24841SOL     OW76196   5.371   7.734   4.951 -0.2555  0.2540  0.5219
24841SOL    HW176197   5.372   7.814   4.899  1.6915  0.8009  1.3282
24841SOL    HW276198   5.330   7.760   5.034  1.3649  0.7786  1.2158
24842SOL     OW76199   8.189   8.814   1.638  0.5065 -0.1112 -0.4818
24842SOL    HW176200   8.177   8.874   1.712  0.5171 -1.3989  0.6109
24842SOL    HW276201   8.191   8.870   1.561  0.9976  1.3293  0.5435
24843SOL     OW76202   5.061   1.169   4.238 -0.8581 -0.5427 -0.1356
24843SOL    HW176203   5.018   1.250   4.207  0.3393  0.2017  0.1018
24843SOL    HW276204   5.153   1.192   4.246 -0.5416 -1.8605  0.2479
24844SOL     OW76205   7.146   4.893   5.776 -0.4632 -0.2127 -0.5736
24844SOL    HW176206   7.185   4.908   5.691  0.2962  1.1735 -0.0071
24844SOL    HW276207   7.220   4.891   5.837 -1.1142  0.5419  0.2667
24845SOL     OW76208   6.259   9.590   4.685 -0.3043  0.7816 -0.6603
24845SOL    HW176209   6.297   9.587   4.597  0.1225 -0.5879 -0.4450
24845SOL    HW276210   6.169   9.562   4.673 -0.4400  1.2486 -0.7521
24846SOL     OW76211   4.715   1.078   4.679 -0.0975  0.5472  0.1364
24846SOL    HW176212   4.791   1.135   4.686 -0.1681  0.8202 -1.1754
24846SOL    HW276213   4.752   0.990   4.667  0.0026  0.5231  0.5919
24847SOL     OW76214   6.105   9.324   6.056 -0.5098  0.1825  0.4558
24847SOL    HW176215   6.132   9.404   6.101 -0.0635 -0.0968  0.6981
24847SOL    HW276216   6.184   9.294   6.011 -0.6621 -0.1416  0.4008
24848SOL     OW76217   9.514   8.978   5.585 -0.5717 -0.3503  0.0186
24848SOL    HW176218   9.444   9.037   5.557 -0.8565 -0.1051  1.1789
24848SOL    HW276219   9.491   8.956   5.676  0.5881 -0.6642  0.2466
24849SOL     OW76220   0.612   6.705   3.286  0.0159 -0.4029  0.5428
24849SOL    HW176221   0.583   6.619   3.318 -0.3916 -0.1094  0.9678
24849SOL    HW276222   0.668   6.739   3.355 -1.6585  0.6673  1.4415
24850SOL     OW76223   0.019   5.223   7.331 -0.6844 -0.3444  0.6338
24850SOL    HW176224  -0.019   5.305   7.364 -1.4480  0.2646 -1.5649
24850SOL    HW276225   0.109   5.246   7.307  0.2573 -1.0691  3.1534
24851SOL     OW76226   2.868   8.213   3.628 -0.6454  0.0077 -0.2626
24851SOL    HW176227   2.797   8.219   3.564 -1.3705 -0.3650  0.4835
24851SOL    HW276228   2.840   8.269   3.700  0.3157  0.6851 -0.3869
24852SOL     OW76229   0.142   4.731   3.527  0.0612  0.1866 -0.1859
24852SOL    HW176230   0.053   4.716   3.497 -0.1186 -1.5295  1.0266
24852SOL    HW276231   0.197   4.706   3.452 -0.4316 -1.7954  0.0394
24853SOL     OW76232   3.104   3.022   0.680 -0.2070 -0.3839 -0.2018
24853SOL    HW176233   3.105   3.047   0.772  2.2704  1.0079 -0.4933
24853SOL    HW276234   3.111   2.926   0.681 -0.9015 -0.4408  1.0350
24854SOL     OW76235   3.826   1.823   6.160 -0.4552 -0.3539 -0.0335
24854SOL    HW176236   3.899   1.766   6.137 -1.7618 -1.0079 -3.0944
24854SOL    HW276237   3.749   1.779   6.125 -2.0091  1.5671  0.7516
24855SOL     OW76238   2.930   7.238   2.267  0.6482  0.1999 -0.0436
24855SOL    HW176239   2.856   7.181   2.286 -0.4538  1.2715 -0.9881
24855SOL    HW276240   3.005   7.179   2.265  0.1355 -0.6872  2.5975
24856SOL     OW76241   1.520   7.464   6.344 -0.8223  0.1672 -0.0956
24856SOL    HW176242   1.508   7.501   6.431  1.3383  0.8370 -0.0261
24856SOL    HW276243   1.456   7.511   6.290  0.3005  2.4663  0.4421
24857SOL     OW76244   0.346   4.674   3.294 -0.3137  0.4357  0.2762
24857SOL    HW176245   0.421   4.618   3.273  0.8481  1.2435  2.0011
24857SOL    HW276246   0.276   4.643   3.237  1.3409 -0.3034 -1.4511
24858SOL     OW76247   6.275   6.254   0.604  0.1013 -0.2887  0.1494
24858SOL    HW176248   6.269   6.299   0.520  1.4496 -0.2939  0.0254
24858SOL    HW276249   6.331   6.310   0.658 -2.1276  0.6143  1.6851
24859SOL     OW76250   5.501   8.597   0.097  0.2975  0.3057  0.4256
24859SOL    HW176251   5.453   8.670   0.060 -0.7969 -0.4073  0.3968
24859SOL    HW276252   5.465   8.519   0.054 -0.0190 -0.4256  1.9321
24860SOL     OW76253   7.767   3.056   4.004 -0.3701 -0.1247  0.2925
24860SOL    HW176254   7.731   3.138   4.039  0.5503 -0.2297  1.5488
24860SOL    HW276255   7.694   2.995   4.006 -0.7315  0.3095  0.5891
24861SOL     OW76256   5.728   4.494   1.484  0.1171 -0.2241 -0.3440
24861SOL    HW176257   5.756   4.454   1.567  0.1456 -1.5567 -0.9766
24861SOL    HW276258   5.635   4.512   1.497  0.2917  0.3300  0.2510
24862SOL     OW76259   1.680   5.161   4.935  0.0415  0.2530 -0.4026
24862SOL    HW176260   1.771   5.131   4.932  0.1884  0.5638  0.6426
24862SOL    HW276261   1.628   5.082   4.924  0.4277  0.0165 -0.5650
24863SOL     OW76262   5.277   7.481   2.637 -0.0943  0.0408 -0.0837
24863SOL    HW176263   5.297   7.402   2.586  2.4190  1.2255 -1.0662
24863SOL    HW276264   5.219   7.532   2.580  0.6086  0.1929 -0.6684
24864SOL     OW76265   5.792   1.109   6.503 -0.0006  0.6333 -0.4801
24864SOL    HW176266   5.867   1.168   6.518 -0.2772  0.8426  0.1101
24864SOL    HW276267   5.733   1.159   6.448 -0.0823  0.7864 -0.2559
24865SOL     OW76268   0.736   1.938   9.384 -0.2005 -0.8498  0.0667
24865SOL    HW176269   0.658   1.906   9.430  0.6764 -3.4073 -0.0599
24865SOL    HW276270   0.705   2.013   9.334 -2.3136 -1.1033  0.8771
24866SOL     OW76271   6.781   0.069   4.426  0.2833  0.2858 -0.6194
24866SOL    HW176272   6.835   0.136   4.383 -0.4064  1.0178 -0.3626
24866SOL    HW276273   6.749   0.111   4.505 -1.1841  0.0886 -1.0813
24867SOL     OW76274   2.335   5.792   6.111 -0.2347  0.3301  0.6747
24867SOL    HW176275   2.292   5.793   6.025 -0.2613 -2.1213  0.5869
24867SOL    HW276276   2.407   5.854   6.102 -0.4573  0.4041 -0.9908
24868SOL     OW76277   0.402   1.232   0.771 -0.2444  0.5616  0.4222
24868SOL    HW176278   0.475   1.254   0.830 -0.3013  2.2438 -0.0885
24868SOL    HW276279   0.413   1.291   0.697 -1.5226  0.0863 -0.1650
24869SOL     OW76280   9.621   0.243   3.100 -0.2091  0.6568  0.6873
24869SOL    HW176281   9.689   0.311   3.102 -0.3427  0.7859  1.9466
24869SOL    HW276282   9.541   0.290   3.076  0.0803  0.5648 -0.4743
24870SOL     OW76283   8.705   2.647   1.755 -0.1884  0.1231  0.0728
24870SOL    HW176284   8.759   2.718   1.720 -0.0620 -0.0473 -0.0794
24870SOL    HW276285   8.715   2.653   1.850  1.0099 -0.6061  0.0131
24871SOL     OW76286   8.384   9.638   7.187 -0.5240  0.6855 -0.2600
24871SOL    HW176287   8.433   9.570   7.234 -1.2859  1.6151  1.9938
24871SOL    HW276288   8.432   9.719   7.204  0.2678  0.8229 -2.7753
24872SOL     OW76289   3.389   8.684   7.364  0.1652 -0.2334  0.1001
24872SOL    HW176290   3.296   8.688   7.338  0.3350 -1.1252 -0.7083
24872SOL    HW276291   3.420   8.774   7.354 -0.8003  0.2319  1.1247
24873SOL     OW76292   5.432   4.744   8.882  0.3500 -0.8002  0.1375
24873SOL    HW176293   5.379   4.796   8.942  0.7224  0.2475 -0.4080
24873SOL    HW276294   5.433   4.657   8.920 -0.9111 -0.5938  0.6883
24874SOL     OW76295   4.766   5.688   3.988  0.0547  0.1452 -0.6582
24874SOL    HW176296   4.746   5.595   3.979  1.0628 -0.0541 -0.9087
24874SOL    HW276297   4.857   5.696   3.963 -0.8341  1.6976 -3.9245
24875SOL     OW76298   7.056   8.984   0.299 -0.3372  0.3824 -0.4052
24875SOL    HW176299   7.068   8.996   0.205  1.3636 -0.3223 -0.3252
24875SOL    HW276300   7.095   8.898   0.317 -1.3115  0.1673  0.8351
24876SOL     OW76301   5.294   8.782   5.545  0.1133  0.2623  0.3595
24876SOL    HW176302   5.239   8.706   5.563 -0.3747  0.8480  1.4335
24876SOL    HW276303   5.245   8.833   5.481  1.4072 -1.3377 -2.0535
24877SOL     OW76304   6.279   4.108   4.283  0.0453  0.0909  0.0514
24877SOL    HW176305   6.317   4.101   4.195 -0.0994  1.4040 -0.1373
24877SOL    HW276306   6.185   4.092   4.269 -0.1277  1.2582 -0.2050
24878SOL     OW76307   0.091   7.830   4.962  0.1499  0.2229 -0.1057
24878SOL    HW176308   0.178   7.863   4.985  0.6824 -1.8713  1.1619
24878SOL    HW276309   0.103   7.791   4.875  0.4391  0.1319 -0.0281
24879SOL     OW76310   0.299   3.793   1.702  0.4083  0.2061 -0.4218
24879SOL    HW176311   0.262   3.876   1.733  1.5491  0.3765  0.5484
24879SOL    HW276312   0.282   3.731   1.774  0.5488 -0.1309 -0.6751
24880SOL     OW76313   1.179   8.188   1.369 -0.2309 -0.0321  0.4252
24880SOL    HW176314   1.151   8.100   1.345  0.3584 -0.7941  2.3133
24880SOL    HW276315   1.174   8.189   1.465  1.6943  1.3165  0.5668
24881SOL     OW76316   5.125   8.557   3.567  0.0774 -0.1704  0.1829
24881SOL    HW176317   5.162   8.549   3.480  1.8076  2.3865  0.5696
24881SOL    HW276318   5.195   8.596   3.620 -1.3200 -0.4866  2.4207
24882SOL     OW76319   7.779   2.571   7.456 -0.0379 -0.5410 -0.7108
24882SOL    HW176320   7.789   2.653   7.409 -1.2887  1.2220  1.8731
24882SOL    HW276321   7.685   2.553   7.455 -0.1435 -0.3386  1.1308
24883SOL     OW76322   6.366   5.154   4.277  0.3927  0.2291 -0.3638
24883SOL    HW176323   6.297   5.206   4.317 -0.0272 -1.4018  1.1731
24883SOL    HW276324   6.338   5.141   4.187 -0.7789  0.4780 -0.0492
24884SOL     OW76325   2.727   0.090   4.741  0.2346  0.4701 -0.1275
24884SOL    HW176326   2.744   0.157   4.807 -0.8692  2.2044 -1.5115
24884SOL    HW276327   2.781   0.116   4.666  0.6311 -0.8349 -0.3160
24885SOL     OW76328   5.987   3.385   9.607 -0.5663  0.0479  0.3816
24885SOL    HW176329   5.916   3.399   9.670 -0.1546 -1.2972  1.1893
24885SOL    HW276330   5.994   3.290   9.600  1.3110  0.1499  0.4920
24886SOL     OW76331   8.115   8.166   7.489  0.2197  0.1815  1.1998
24886SOL    HW176332   8.127   8.131   7.401 -2.2745  1.1252  0.3808
24886SOL    HW276333   8.185   8.231   7.499  0.1085  0.5770 -0.3919
24887SOL     OW76334   7.547   3.638   1.355  0.2101 -0.1639  0.2633
24887SOL    HW176335   7.501   3.638   1.439 -0.6177 -1.5119 -0.1564
24887SOL    HW276336   7.481   3.668   1.292  0.4127 -0.4698 -0.0962
24888SOL     OW76337   1.475   4.818   0.857 -0.2838 -0.7541 -0.0582
24888SOL    HW176338   1.437   4.879   0.794 -0.4252  1.1860  1.7710
24888SOL    HW276339   1.400   4.766   0.887 -0.5039 -0.6050 -0.3347
24889SOL     OW76340   3.794   4.475   4.904  0.0207 -0.7850  0.4434
24889SOL    HW176341   3.780   4.530   4.827 -0.5446 -2.5162 -0.7556
24889SOL    HW276342   3.708   4.436   4.921 -0.2069  0.5848  2.8305
24890SOL     OW76343   4.352   0.263   3.083  0.3213  0.5214 -0.5926
24890SOL    HW176344   4.325   0.272   3.174 -1.3113 -2.2837 -0.7223
24890SOL    HW276345   4.374   0.353   3.057  0.5103  1.4770  2.3970
24891SOL     OW76346   7.985   4.970   6.936  0.0014 -0.6114 -0.1687
24891SOL    HW176347   7.894   4.942   6.925 -0.9959  2.1442  0.3237
24891SOL    HW276348   8.002   4.958   7.030 -0.3686  0.2036  0.0115
24892SOL     OW76349   4.725   0.171   3.364 -0.0527  0.4279 -0.2986
24892SOL    HW176350   4.803   0.166   3.309  0.0524 -1.5111 -0.0483
24892SOL    HW276351   4.708   0.080   3.389 -4.3221  0.1469 -3.1154
24893SOL     OW76352   3.985   1.833   1.924  0.3170 -0.5409  0.5030
24893SOL    HW176353   3.952   1.751   1.889 -3.0437  1.2201 -0.9365
24893SOL    HW276354   3.923   1.855   1.995  0.2072  1.4039 -0.1317
24894SOL     OW76355   0.105   6.867   6.506  0.3362  0.2167 -0.5596
24894SOL    HW176356   0.163   6.793   6.525  1.0121  0.5456 -1.3043
24894SOL    HW276357   0.016   6.831   6.515  0.6545 -0.5134 -0.2835
24895SOL     OW76358   6.849   0.725   0.689  0.2787  0.4071 -0.7280
24895SOL    HW176359   6.874   0.675   0.766  0.4149 -0.4362 -1.3012
24895SOL    HW276360   6.860   0.816   0.715  1.0118  0.1207  0.0154
24896SOL     OW76361   4.093   1.462   5.961 -0.5969 -0.3527  0.2372
24896SOL    HW176362   4.062   1.437   5.874 -1.3659 -0.3479  0.5029
24896SOL    HW276363   4.186   1.479   5.949 -0.9623  1.0687 -0.9055
24897SOL     OW76364   4.878   1.138   6.482  0.4015  0.6742 -0.1228
24897SOL    HW176365   4.835   1.223   6.489  1.6846  1.1865  2.8198
24897SOL    HW276366   4.805   1.076   6.474 -0.6680  1.8365  0.1345
24898SOL     OW76367   8.354   2.949   3.645  0.3248  0.2092 -0.3802
24898SOL    HW176368   8.264   2.918   3.654  0.6604 -0.5700  0.4654
24898SOL    HW276369   8.366   3.011   3.717  0.6644 -0.2089 -0.0684
24899SOL     OW76370   0.220   6.415   9.503 -0.4431 -0.1508  0.2032
24899SOL    HW176371   0.305   6.377   9.485 -0.5000 -0.2395  0.1190
24899SOL    HW276372   0.237   6.508   9.517 -0.5082  0.0831 -1.1676
24900SOL     OW76373   3.721   2.843   8.688 -0.4820  0.2046 -0.6565
24900SOL    HW176374   3.703   2.795   8.608  3.7796 -1.9042 -0.6243
24900SOL    HW276375   3.776   2.916   8.660 -1.8543  1.5721  0.0484
24901SOL     OW76376   1.284   0.387   2.790 -0.0606  0.4659  0.0052
24901SOL    HW176377   1.374   0.372   2.759  0.5733  0.1281  1.8530
24901SOL    HW276378   1.259   0.471   2.752  1.7957  1.5161  0.9550
24902SOL     OW76379   9.273   1.597   3.329 -0.7139  0.1202  0.1676
24902SOL    HW176380   9.340   1.640   3.276 -0.9642  0.3427  0.0269
24902SOL    HW276381   9.248   1.662   3.394  1.9032 -1.1873  2.6992
24903SOL     OW76382   0.716   2.210   4.671 -1.1828 -0.0463  0.2322
24903SOL    HW176383   0.774   2.224   4.746 -1.0594  0.1126  0.1089
24903SOL    HW276384   0.711   2.296   4.629  1.1443 -0.7265 -1.6758
24904SOL     OW76385   3.796   1.046   9.384  0.2661 -0.7772 -0.6604
24904SOL    HW176386   3.838   1.029   9.469 -2.0002 -1.3895  0.4160
24904SOL    HW276387   3.856   1.007   9.320  2.3456  0.2155  0.5505
24905SOL     OW76388   1.975   2.246   6.226  0.0966  0.4565 -0.1554
24905SOL    HW176389   1.908   2.226   6.291  1.8062  1.1497  1.9220
24905SOL    HW276390   2.046   2.185   6.245  0.6598  0.6934 -1.3779
24906SOL     OW76391   1.231   3.268   4.343 -0.4571  0.2354  0.0643
24906SOL    HW176392   1.241   3.179   4.309  1.1936 -0.3653  1.9549
24906SOL    HW276393   1.319   3.293   4.372 -1.2881  1.6527  1.5197
24907SOL     OW76394   4.675   4.848   0.082  0.4550  0.2728  0.7091
24907SOL    HW176395   4.645   4.938   0.098  2.4746  1.2452 -0.5128
24907SOL    HW276396   4.645   4.829  -0.007  2.8924  1.1241 -0.3908
24908SOL     OW76397   0.781   0.050   5.034  0.4103 -0.1917 -0.1342
24908SOL    HW176398   0.831   0.113   4.981 -1.8580  0.8055 -1.2304
24908SOL    HW276399   0.772  -0.026   4.977  1.0298 -0.5447  0.2332
24909SOL     OW76400   2.977   4.350   2.619  0.5217 -0.3059 -0.4834
24909SOL    HW176401   3.047   4.342   2.555  0.1917  2.2697 -1.3137
24909SOL    HW276402   2.905   4.299   2.583  0.7109  0.2213 -1.6628
24910SOL     OW76403   8.999   6.119   8.700 -0.3717  0.3807  0.3574
24910SOL    HW176404   8.930   6.119   8.767 -1.9008  1.2959 -1.1319
24910SOL    HW276405   9.051   6.041   8.719 -2.1620 -0.6759  1.2391
24911SOL     OW76406   1.407   8.736   9.485  0.1878  0.9488  1.0574
24911SOL    HW176407   1.405   8.706   9.395 -0.5772  2.5685  0.4866
24911SOL    HW276408   1.389   8.830   9.479  0.0446  1.0754  2.9038
24912SOL     OW76409   2.669   4.841   3.553  0.7277 -0.1673  0.4043
24912SOL    HW176410   2.584   4.804   3.576  0.3340  0.5582  0.1149
24912SOL    HW276411   2.691   4.799   3.469 -0.7509  1.8530 -1.0740
24913SOL     OW76412   8.973   7.688   3.617  0.1811  0.1784 -0.6372
24913SOL    HW176413   8.895   7.731   3.582  0.6030  0.4661 -1.2412
24913SOL    HW276414   9.033   7.760   3.639 -0.2139  0.0201  1.0411
24914SOL     OW76415   8.732   7.156   1.077  0.0472 -0.4177  0.0544
24914SOL    HW176416   8.716   7.062   1.082  0.7781 -0.5787 -0.4192
24914SOL    HW276417   8.660   7.190   1.024 -0.4842 -0.6336  0.6323
24915SOL     OW76418   1.652   5.901   3.526 -0.0235 -0.5197  0.0179
24915SOL    HW176419   1.717   5.903   3.456  0.1740 -3.1553 -0.0044
24915SOL    HW276420   1.578   5.952   3.493  0.8710  0.0029 -1.2429
24916SOL     OW76421   5.103   3.792   7.885  0.4056  0.1587  0.0912
24916SOL    HW176422   5.139   3.741   7.813 -1.5024  0.8505 -1.4201
24916SOL    HW276423   5.081   3.727   7.952 -0.3905 -0.8180 -1.0923
24917SOL     OW76424   5.001   4.632   4.960 -0.2145  0.3826  0.0671
24917SOL    HW176425   5.007   4.716   4.914  0.4335  1.0238  1.2873
24917SOL    HW276426   5.088   4.619   4.996  0.7491 -2.4673 -2.8499
24918SOL     OW76427   6.276   3.308   5.281 -0.5842 -0.0021  0.1496
24918SOL    HW176428   6.233   3.225   5.260  0.0164 -0.4765  0.7102
24918SOL    HW276429   6.315   3.336   5.199 -0.6985 -0.3375 -0.0229
24919SOL     OW76430   8.439   9.522   6.657 -0.5445 -0.2946  0.2286
24919SOL    HW176431   8.483   9.438   6.663  0.2397  0.1116  0.2183
24919SOL    HW276432   8.495   9.576   6.602 -0.2631  0.7151  1.4441
24920SOL     OW76433   3.433   5.107   1.105  0.3348  0.8752  0.5812
24920SOL    HW176434   3.388   5.028   1.137 -1.3155  1.2666 -0.6211
24920SOL    HW276435   3.447   5.091   1.012  1.1086  1.4995  0.5830
24921SOL     OW76436   8.273   4.513   8.949 -0.0163 -0.4099  0.3874
24921SOL    HW176437   8.242   4.594   8.990  0.1440 -0.3865  0.4640
24921SOL    HW276438   8.321   4.468   9.019 -0.4301 -0.7486  0.4514
24922SOL     OW76439   7.288   8.914   3.924  0.4286 -0.8521  0.2377
24922SOL    HW176440   7.274   8.906   4.018  1.4285  3.0571  0.8840
24922SOL    HW276441   7.384   8.910   3.914  0.4734  0.7839 -0.2772
24923SOL     OW76442   7.012   8.797   6.686 -0.2828 -0.3444 -0.1601
24923SOL    HW176443   7.106   8.814   6.684 -0.2835 -0.3101  0.1022
24923SOL    HW276444   7.001   8.719   6.631 -0.0809 -0.4468 -0.0596
24924SOL     OW76445   9.512   4.421   5.464 -0.0633  0.3509  0.0097
24924SOL    HW176446   9.518   4.370   5.384 -0.1470  1.1517 -0.5157
24924SOL    HW276447   9.593   4.402   5.511 -0.8571 -1.6289  0.6645
24925SOL     OW76448   9.050   0.221   5.160  0.0296  0.0398 -0.3370
24925SOL    HW176449   9.020   0.281   5.092  0.3221  1.1189  0.4456
24925SOL    HW276450   8.971   0.176   5.189 -0.2542  0.3068 -0.6878
24926SOL     OW76451   7.969   3.918   3.219  0.1945 -0.1909 -0.3154
24926SOL    HW176452   8.003   3.849   3.276 -2.8215 -2.9096 -1.4855
24926SOL    HW276453   7.978   3.882   3.131 -2.9114  0.0988 -0.8457
24927SOL     OW76454   3.484   1.344   7.667 -0.6700 -0.2640  0.1680
24927SOL    HW176455   3.463   1.437   7.669 -0.9810 -0.0060 -4.4742
24927SOL    HW276456   3.573   1.339   7.701 -0.7792  1.6360  0.8561
24928SOL     OW76457   3.454   0.055   5.310 -0.0050 -0.3209  0.2835
24928SOL    HW176458   3.458   0.077   5.403  3.8620  0.0936  0.1935
24928SOL    HW276459   3.464  -0.040   5.308 -0.4375 -0.3684  0.2808
24929SOL     OW76460   9.155   3.047   2.093  0.1963  0.5910 -0.5561
24929SOL    HW176461   9.112   3.105   2.156 -0.7428 -0.1893 -0.4539
24929SOL    HW276462   9.101   3.054   2.014  0.4757  0.3817 -0.7651
24930SOL     OW76463   9.496   0.743   0.941  0.6954 -0.2220  0.3481
24930SOL    HW176464   9.540   0.726   0.858  0.4077  0.7734 -0.0161
24930SOL    HW276465   9.568   0.755   1.004  0.9249 -0.1402  0.0719
24931SOL     OW76466   2.026   2.105   4.151 -0.5398 -0.2821  0.1807
24931SOL    HW176467   1.951   2.064   4.109 -1.1805 -0.8599  1.8134
24931SOL    HW276468   2.084   2.032   4.174  0.6003  0.1618 -1.1244
24932SOL     OW76469   4.536   6.494   5.049  0.4128  0.0516  0.3074
24932SOL    HW176470   4.612   6.471   4.995  0.6870 -1.3376  1.2172
24932SOL    HW276471   4.469   6.520   4.986  0.8587 -1.0803 -0.6907
24933SOL     OW76472   3.560   2.910   1.477 -0.3346  0.6465  0.1640
24933SOL    HW176473   3.503   2.869   1.412  0.0691 -0.9019  0.7409
24933SOL    HW276474   3.647   2.908   1.437 -0.3469  1.1776  0.1026
24934SOL     OW76475   6.903   1.760   4.124 -0.2063  0.3995 -0.2242
24934SOL    HW176476   6.983   1.726   4.085  0.7284  1.3041  0.8472
24934SOL    HW276477   6.854   1.796   4.050  0.2894 -0.3023 -0.9114
24935SOL     OW76478   3.523   0.444   0.128 -0.2173 -0.5071  0.0963
24935SOL    HW176479   3.511   0.447   0.223 -0.8585  2.0503  0.0045
24935SOL    HW276480   3.490   0.528   0.097 -0.5014 -1.4776 -2.4761
24936SOL     OW76481   3.469   4.050   9.113 -0.7847 -0.0436  0.3025
24936SOL    HW176482   3.437   4.047   9.022 -2.7018  0.3736  0.9191
24936SOL    HW276483   3.564   4.044   9.105 -0.9301 -0.4097 -1.7138
24937SOL     OW76484   5.375   5.946   6.570 -0.2270 -0.0831 -0.1738
24937SOL    HW176485   5.323   5.872   6.601 -0.7385 -0.2361 -1.3319
24937SOL    HW276486   5.324   5.982   6.498 -0.1381  1.6148  0.5730
24938SOL     OW76487   3.576   3.356   1.773 -0.1621 -0.0653 -0.3620
24938SOL    HW176488   3.597   3.330   1.683 -0.0845  2.4349 -1.1566
24938SOL    HW276489   3.553   3.449   1.766 -1.9094 -0.2309  1.9632
24939SOL     OW76490   4.512   6.833   0.594 -0.2897  0.4340  0.1303
24939SOL    HW176491   4.600   6.804   0.569 -0.4422  2.2798 -3.1375
24939SOL    HW276492   4.526   6.918   0.635 -0.4779  0.0650  0.9740
24940SOL     OW76493   7.599   1.193   9.240 -0.2881  1.0494 -0.0458
24940SOL    HW176494   7.634   1.280   9.223  1.8594  0.2614 -0.0096
24940SOL    HW276495   7.604   1.183   9.335  1.8376  0.0319 -0.2157
24941SOL     OW76496   6.558   2.684   4.408 -0.2057 -0.3376  0.0431
24941SOL    HW176497   6.650   2.660   4.402 -0.0603  0.4086 -1.2658
24941SOL    HW276498   6.515   2.630   4.342 -0.5295  0.0442 -0.0637
24942SOL     OW76499   7.143   2.265   8.497 -0.3121  0.1124  0.0118
24942SOL    HW176500   7.219   2.322   8.511  0.4086 -0.7285 -0.3034
24942SOL    HW276501   7.106   2.294   8.414 -1.5223  1.7767  1.0687
24943SOL     OW76502   9.205   4.653   4.143 -0.7270 -0.7313 -0.0744
24943SOL    HW176503   9.286   4.696   4.115  0.6525 -1.4834  2.4641
24943SOL    HW276504   9.139   4.723   4.142 -0.3529 -0.2768 -2.9760
24944SOL     OW76505   5.908   1.882   0.486 -0.2423  0.4111 -0.6813
24944SOL    HW176506   5.986   1.841   0.449  0.0256 -0.1948  0.5029
24944SOL    HW276507   5.871   1.815   0.543 -1.0478  1.0584 -0.4310
24945SOL     OW76508   2.108   4.513   7.109  0.1558 -0.4533 -0.0100
24945SOL    HW176509   2.179   4.570   7.080 -1.6277  1.9268  0.0176
24945SOL    HW276510   2.081   4.549   7.194 -1.8938 -0.4550 -0.6028
24946SOL     OW76511   0.600   3.474   8.461 -0.0849  0.3341 -0.0226
24946SOL    HW176512   0.548   3.418   8.518  1.3239 -0.2854  0.6893
24946SOL    HW276513   0.548   3.555   8.454 -1.4332 -0.4880  0.1308
24947SOL     OW76514   9.083   8.184   1.074  0.5453 -0.3414  0.4182
24947SOL    HW176515   9.059   8.091   1.084 -0.3766 -0.0532  0.9960
24947SOL    HW276516   9.068   8.203   0.982  0.3713 -0.6599  0.3795
24948SOL     OW76517   3.788   1.240   0.774  0.4044 -0.2158 -0.4569
24948SOL    HW176518   3.831   1.159   0.805  0.3677 -0.2454 -0.4838
24948SOL    HW276519   3.748   1.277   0.853 -2.5199 -1.9818 -0.9690
24949SOL     OW76520   2.316   6.458   8.634 -0.6578  0.0112  0.5004
24949SOL    HW176521   2.373   6.446   8.710  1.3915  0.0585 -0.9379
24949SOL    HW276522   2.360   6.524   8.581 -0.4017 -2.0784 -2.1208
24950SOL     OW76523   7.430   9.661   3.022 -0.1341 -0.2029 -0.2601
24950SOL    HW176524   7.354   9.643   3.078 -0.5978 -1.2757 -1.2036
24950SOL    HW276525   7.505   9.632   3.073 -0.4308  0.0059  0.3096
24951SOL     OW76526   1.785   6.536   6.515  0.1347 -0.4748  0.4071
24951SOL    HW176527   1.824   6.508   6.432  0.5027  0.2134  0.3403
24951SOL    HW276528   1.709   6.478   6.526 -0.4832  0.0411 -0.8956
24952SOL     OW76529   5.756   8.193   0.254 -0.3887 -0.9171  0.4082
24952SOL    HW176530   5.786   8.120   0.308 -2.0801 -0.9850  1.2969
24952SOL    HW276531   5.737   8.263   0.316  1.1781  0.3103 -0.4309
24953SOL     OW76532   1.144   8.588   3.295 -0.0866  0.3477  0.6777
24953SOL    HW176533   1.074   8.551   3.349 -0.5116  0.3836  0.1701
24953SOL    HW276534   1.097   8.627   3.220  0.5840 -1.4914 -0.7950
24954SOL     OW76535   3.342   6.952   0.943  0.7060  0.6112  0.7648
24954SOL    HW176536   3.422   6.902   0.929  1.2054  1.7521 -0.7627
24954SOL    HW276537   3.370   7.033   0.985  0.3060  0.8395  0.6010
24955SOL     OW76538   5.743   8.295   8.817 -0.1470  0.0998  0.2447
24955SOL    HW176539   5.816   8.355   8.800  0.8250 -1.4750 -1.5310
24955SOL    HW276540   5.697   8.290   8.734 -0.6663 -1.0194  0.5913
24956SOL     OW76541   9.611   3.643   8.901 -0.1312  0.5465 -0.4267
24956SOL    HW176542   9.624   3.737   8.911  1.5982  0.2544  0.5245
24956SOL    HW276543   9.606   3.610   8.991  0.1558 -0.3673 -0.7347
24957SOL     OW76544   4.782   5.817   1.842  0.0672 -0.7513  0.1619
24957SOL    HW176545   4.857   5.819   1.781  0.3948  0.4484  0.5626
24957SOL    HW276546   4.773   5.725   1.867  1.6511 -0.8708  0.3872
24958SOL     OW76547   4.019   2.891   3.404 -0.0659 -0.0728 -0.4435
24958SOL    HW176548   4.110   2.876   3.377  0.5479  0.6286  1.1295
24958SOL    HW276549   4.002   2.823   3.469  0.2342  1.3171  1.1642
24959SOL     OW76550   9.111   2.653   0.276  0.0684  0.1873  0.2991
24959SOL    HW176551   9.088   2.713   0.347 -0.1746 -0.2383  0.5787
24959SOL    HW276552   9.070   2.571   0.299  0.7563 -0.2138  0.1316
24960SOL     OW76553   7.707   3.130   4.903 -0.0283 -0.4399  0.2006
24960SOL    HW176554   7.612   3.118   4.899 -0.1647  0.7138 -0.9018
24960SOL    HW276555   7.718   3.221   4.931  0.7703 -0.7234  0.8390
24961SOL     OW76556   6.340   9.005   3.014  0.3788 -0.5179  0.0347
24961SOL    HW176557   6.267   8.969   2.963  0.9889 -0.2117 -1.0828
24961SOL    HW276558   6.355   8.940   3.082 -1.5638 -0.1281  0.8986
24962SOL     OW76559   3.748   1.435   4.567 -0.0383  0.0046 -0.0971
24962SOL    HW176560   3.840   1.446   4.544 -0.1825 -0.0544 -0.7207
24962SOL    HW276561   3.700   1.486   4.501 -0.4634 -0.1807  0.0621
24963SOL     OW76562   4.087   5.378   8.813 -0.3212  0.4456 -0.5600
24963SOL    HW176563   4.062   5.331   8.734  1.3533 -0.1338 -0.7924
24963SOL    HW276564   4.088   5.311   8.882 -2.1473  1.0199  0.0728
24964SOL     OW76565   5.274   5.987   1.756 -0.0401  0.1910 -0.4220
24964SOL    HW176566   5.263   6.044   1.680 -2.1073 -1.8742 -1.8067
24964SOL    HW276567   5.361   5.947   1.743  0.2632  0.9769 -0.8740
24965SOL     OW76568   5.693   8.029   4.323 -0.1654  0.2372 -0.1199
24965SOL    HW176569   5.667   8.121   4.323 -1.6157 -0.1336  0.5415
24965SOL    HW276570   5.770   8.025   4.380  0.9420  1.2638 -1.4706
24966SOL     OW76571   3.186   4.293   7.280 -0.0019 -0.3710  0.0992
24966SOL    HW176572   3.219   4.380   7.305 -1.1989 -0.0142  0.4980
24966SOL    HW276573   3.145   4.308   7.194  0.7012 -0.7715 -0.3118
24967SOL     OW76574   8.770   1.097   2.159  0.0582 -0.6269  0.4374
24967SOL    HW176575   8.722   1.104   2.076 -1.5683 -1.4324  1.2793
24967SOL    HW276576   8.823   1.177   2.162 -1.5885  0.5574 -0.3278
24968SOL     OW76577   0.963   6.723   7.885  0.0184  0.1198 -0.2610
24968SOL    HW176578   0.957   6.746   7.793  0.4533  1.2636 -0.0215
24968SOL    HW276579   1.039   6.772   7.918 -0.2281 -0.1310  0.7383
24969SOL     OW76580   1.760   7.741   7.509  0.2343  0.4503 -0.2090
24969SOL    HW176581   1.820   7.714   7.439  0.2703 -0.5839  0.2064
24969SOL    HW276582   1.697   7.799   7.465  1.2846  1.2222 -0.7306
24970SOL     OW76583   1.701   7.526   0.589 -0.0453  0.4780  0.3685
24970SOL    HW176584   1.790   7.492   0.592 -0.7341 -1.3004  2.7585
24970SOL    HW276585   1.658   7.476   0.519  0.6778  1.0390 -0.4950
24971SOL     OW76586   1.488   1.233   2.897 -0.1568 -0.1626  0.1039
24971SOL    HW176587   1.542   1.223   2.975  2.0959 -0.7785 -1.4304
24971SOL    HW276588   1.441   1.151   2.889 -1.2420  0.3080  1.3595
24972SOL     OW76589   4.879   8.694   7.503  0.2283 -0.8502 -0.3410
24972SOL    HW176590   4.947   8.742   7.551  1.4070 -2.0476 -0.7765
24972SOL    HW276591   4.876   8.737   7.418 -0.3455 -0.1120  0.0328
24973SOL     OW76592   5.143   3.384   3.693  0.6185 -0.4414 -0.1543
24973SOL    HW176593   5.127   3.411   3.603  1.7076  1.7748  0.2638
24973SOL    HW276594   5.195   3.303   3.685 -0.2211 -0.8804 -1.4746
24974SOL     OW76595   0.459   2.817   3.464 -0.1901  0.2104 -0.3229
24974SOL    HW176596   0.438   2.886   3.526 -0.8634 -1.1733  1.0392
24974SOL    HW276597   0.553   2.825   3.449  0.3371 -0.4459  2.2227
24975SOL     OW76598   4.833   2.409   1.311  0.2456  0.3567 -0.2616
24975SOL    HW176599   4.738   2.400   1.309  0.2405  0.1299  0.7081
24975SOL    HW276600   4.848   2.492   1.357  0.5076  0.8396 -1.1857
24976SOL     OW76601   2.837   1.527   7.978 -0.3430  0.3701  0.2793
24976SOL    HW176602   2.809   1.436   7.971 -1.1380  0.4813  1.7191
24976SOL    HW276603   2.932   1.522   7.994 -0.6219 -0.2908  1.8804
24977SOL     OW76604   4.672   8.818   8.904 -0.0133 -0.4267  0.3234
24977SOL    HW176605   4.588   8.845   8.867  0.0216  0.3669  0.8066
24977SOL    HW276606   4.729   8.807   8.828 -0.5196 -0.8839 -0.0021
24978SOL     OW76607   6.503   8.112   9.494  0.9028  0.3381  0.0907
24978SOL    HW176608   6.464   8.109   9.581  1.4454  0.9023  0.3552
24978SOL    HW276609   6.478   8.028   9.454  0.5414  0.1334  0.7363
24979SOL     OW76610   1.484   0.481   8.449  0.1314  0.0373 -0.0482
24979SOL    HW176611   1.487   0.398   8.497 -0.4327  0.6546  1.1056
24979SOL    HW276612   1.575   0.502   8.430  0.3461 -0.3992  0.4721
24980SOL     OW76613   4.904   6.497   9.540 -0.7434 -0.1937 -0.1829
24980SOL    HW176614   4.925   6.431   9.474  0.9764  1.3006 -1.2464
24980SOL    HW276615   4.971   6.486   9.607 -0.2959  0.5754 -0.4863
24981SOL     OW76616   0.541   6.661   5.175  0.4476  0.2302  0.0552
24981SOL    HW176617   0.521   6.741   5.223  3.0962  0.6121  0.6456
24981SOL    HW276618   0.566   6.598   5.242 -3.4588 -1.8867 -0.1815
24982SOL     OW76619   2.690   8.250   1.100 -0.1355 -0.5799  0.5756
24982SOL    HW176620   2.771   8.252   1.150  0.1440 -0.1930  0.1134
24982SOL    HW276621   2.646   8.171   1.129  0.2771 -0.6435  1.0354
24983SOL     OW76622   1.759   8.303   7.787  0.0622  0.2512 -0.3538
24983SOL    HW176623   1.684   8.280   7.733 -0.5699  1.0169  0.1756
24983SOL    HW276624   1.755   8.244   7.862  1.1821 -1.1026 -1.3041
24984SOL     OW76625   6.167   4.874   0.084  0.2769 -0.1108 -0.3272
24984SOL    HW176626   6.242   4.916   0.127  0.1555  0.1475 -0.3632
24984SOL    HW276627   6.121   4.946   0.041 -0.2976 -0.1914  0.1508
24985SOL     OW76628   2.659   7.425   2.215  0.1896 -0.5304 -0.2624
24985SOL    HW176629   2.725   7.437   2.147  0.2945  1.2148  0.0961
24985SOL    HW276630   2.576   7.420   2.167  0.3925 -0.7652 -0.5912
24986SOL     OW76631   3.533   2.528   9.543  0.0309  0.0192 -0.5565
24986SOL    HW176632   3.490   2.510   9.459  1.5065 -3.6416 -0.7003
24986SOL    HW276633   3.481   2.480   9.608  0.1517  1.0355  0.3224
24987SOL     OW76634   0.907   8.580   4.343  0.4201 -0.3394  0.5234
24987SOL    HW176635   0.939   8.593   4.254  0.2192  2.0902  0.7421
24987SOL    HW276636   0.835   8.518   4.334  0.7135 -0.5055 -0.9226
24988SOL     OW76637   5.511   5.874   1.625  0.2364 -0.9536  0.2318
24988SOL    HW176638   5.599   5.848   1.653  1.1493 -0.2806 -1.8174
24988SOL    HW276639   5.517   5.969   1.614 -0.6849 -0.9280 -0.1463
24989SOL     OW76640   2.834   0.640   8.883 -0.0287 -0.8433 -0.2083
24989SOL    HW176641   2.753   0.594   8.902 -1.0922  1.4061  1.0629
24989SOL    HW276642   2.855   0.686   8.964 -0.1651  2.4838 -1.9091
24990SOL     OW76643   4.682   8.599   9.197 -0.4931  0.1078  0.1269
24990SOL    HW176644   4.736   8.668   9.156  0.8167  0.2145  1.9090
24990SOL    HW276645   4.739   8.561   9.264 -2.4431 -0.2102  1.6990
24991SOL     OW76646   9.547   3.737   1.197 -0.3735 -0.0784  0.4557
24991SOL    HW176647   9.474   3.761   1.254 -1.0021 -0.2778 -0.2565
24991SOL    HW276648   9.618   3.714   1.258 -0.8217  0.3348  1.1497
24992SOL     OW76649   6.189   0.579   8.124 -0.2551  0.2241  0.4196
24992SOL    HW176650   6.094   0.584   8.115 -0.1274  0.0903 -1.4140
24992SOL    HW276651   6.220   0.552   8.037  1.4788  0.5246  0.9065
24993SOL     OW76652   1.036   0.911   8.650 -0.4172  0.6410 -0.0494
24993SOL    HW176653   0.949   0.918   8.612 -0.9893  3.0857  1.5137
24993SOL    HW276654   1.072   1.000   8.644  1.8286 -0.2144 -0.2891
24994SOL     OW76655   6.418   7.544   6.594  0.3559  0.1991 -0.1240
24994SOL    HW176656   6.381   7.632   6.601 -0.9079 -0.4573  2.6330
24994SOL    HW276657   6.371   7.492   6.659  1.0242 -2.5790 -1.6767
24995SOL     OW76658   0.407   4.254   2.978 -0.3490 -0.5416 -0.5149
24995SOL    HW176659   0.365   4.202   3.047 -0.0743 -0.7989 -0.5361
24995SOL    HW276660   0.399   4.199   2.900 -0.4225 -0.3682 -0.6291
24996SOL     OW76661   8.034   6.072   5.343  0.1406 -0.1669  0.0489
24996SOL    HW176662   8.020   6.086   5.437  0.9768 -1.8254  0.4514
24996SOL    HW276663   8.025   6.159   5.304 -0.4612  0.5093  1.6254
24997SOL     OW76664   8.362   5.914   2.253  0.1291 -0.2065  0.0604
24997SOL    HW176665   8.351   5.914   2.158  1.5107 -1.4672 -0.1405
24997SOL    HW276666   8.277   5.888   2.287 -0.8792  1.8077 -0.7049
24998SOL     OW76667   0.525   2.410   1.964 -0.2307 -0.3395 -0.3493
24998SOL    HW176668   0.613   2.441   1.946  0.2356 -0.6945  1.1655
24998SOL    HW276669   0.479   2.486   2.000 -0.4573 -0.2429 -0.8293
24999SOL     OW76670   1.052   5.293   1.826 -0.1819 -0.0193  0.5312
24999SOL    HW176671   0.986   5.340   1.775  2.9879  1.4457 -2.6107
24999SOL    HW276672   1.041   5.201   1.800 -0.6805  0.2802 -0.3576
25000SOL     OW76673   4.688   9.073   7.394 -0.3314 -0.0884 -0.3507
25000SOL    HW176674   4.689   9.081   7.490  1.4491  0.9578 -0.4245
25000SOL    HW276675   4.780   9.078   7.368 -0.8913  1.5433 -2.2710
25001SOL     OW76676   3.167   9.641   0.360  0.0551 -0.5575  0.3770
25001SOL    HW176677   3.250   9.619   0.317 -0.4594 -0.2321 -0.8230
25001SOL    HW276678   3.108   9.570   0.337 -0.1874 -0.4613  0.6915
25002SOL     OW76679   5.268   2.564   0.247  0.0971  0.1106  0.6089
25002SOL    HW176680   5.221   2.484   0.272 -0.5873  0.0655 -0.7691
25002SOL    HW276681   5.200   2.631   0.241  0.3027  0.2148 -0.6931
25003SOL     OW76682   9.418   5.675   9.177  0.4688  0.3870 -0.6417
25003SOL    HW176683   9.506   5.665   9.142  0.4717 -0.3391 -0.4537
25003SOL    HW276684   9.382   5.586   9.176  0.7442  0.1784  1.9238
25004SOL     OW76685   4.575   2.014   3.970 -0.0657  0.6233  0.3203
25004SOL    HW176686   4.577   2.028   4.065  0.1066  0.8687  0.2812
25004SOL    HW276687   4.532   1.929   3.960  0.0447  0.5259  0.6280
25005SOL     OW76688   1.436   2.362   9.013 -0.0806 -0.1363  0.1822
25005SOL    HW176689   1.400   2.351   9.102  1.0426  1.9276  0.9702
25005SOL    HW276690   1.362   2.344   8.955 -0.6439 -2.3277  1.4682
25006SOL     OW76691   0.841   2.361   6.948 -0.2085 -0.7682  0.0034
25006SOL    HW176692   0.785   2.339   7.022  0.5327 -1.4272  0.3892
25006SOL    HW276693   0.794   2.431   6.902 -1.9699 -2.1807 -0.4571
25007SOL     OW76694   7.872   6.289   7.605 -0.2361  0.0593 -0.8035
25007SOL    HW176695   7.926   6.212   7.621  0.2924  0.2037 -1.8214
25007SOL    HW276696   7.785   6.264   7.638  0.6881  0.3044  2.0449
25008SOL     OW76697   8.765   9.280   5.882  0.3024 -0.2652 -0.0204
25008SOL    HW176698   8.787   9.337   5.955  0.5155  0.0852 -0.3588
25008SOL    HW276699   8.837   9.218   5.876  1.0771  0.6970 -0.9392
25009SOL     OW76700   4.301   1.337   4.170  0.3304  0.7757  0.0332
25009SOL    HW176701   4.319   1.422   4.209 -0.3411  3.1703 -4.1598
25009SOL    HW276702   4.210   1.344   4.139  0.0152 -1.7808  0.1271
25010SOL     OW76703   4.327   1.778   7.167 -0.4624  0.4890  0.3764
25010SOL    HW176704   4.337   1.753   7.259  0.2810 -0.4969  0.0423
25010SOL    HW276705   4.415   1.768   7.130 -0.9077  0.1207 -0.6109
25011SOL     OW76706   1.551   4.574   5.789 -0.2980 -0.6314  0.2989
25011SOL    HW176707   1.500   4.610   5.716 -1.1808  0.5311  1.4569
25011SOL    HW276708   1.635   4.550   5.750  0.0673  2.0121 -0.6964
25012SOL     OW76709   0.971   4.331   3.206  0.0174  0.3741  0.3770
25012SOL    HW176710   1.058   4.301   3.181  0.8894  2.5625  0.5634
25012SOL    HW276711   0.932   4.361   3.124  0.4684  1.7825  0.6548
25013SOL     OW76712   7.493   5.870   6.800  0.2401  0.2571 -0.0278
25013SOL    HW176713   7.476   5.810   6.727  0.6094 -0.9113  0.8146
25013SOL    HW276714   7.510   5.954   6.758  2.3778 -0.7883 -1.4660
25014SOL     OW76715   9.001   7.392   5.760  0.4210 -0.2264 -0.0632
25014SOL    HW176716   8.995   7.298   5.740  3.7903 -0.5116 -0.3349
25014SOL    HW276717   9.046   7.396   5.844  1.5897  1.1135 -0.7088
25015SOL     OW76718   8.259   3.702   8.765 -0.0813 -0.2850  0.0705
25015SOL    HW176719   8.306   3.750   8.697 -1.9636  1.3736 -0.1298
25015SOL    HW276720   8.181   3.668   8.722 -1.6615  1.3648  1.4444
25016SOL     OW76721   7.972   5.317   8.701  0.0598  0.1102  0.3033
25016SOL    HW176722   7.997   5.362   8.620 -0.7978  1.8699  0.9465
25016SOL    HW276723   8.022   5.236   8.700  1.4996  0.9491 -1.0864
25017SOL     OW76724   2.787   3.937   0.801  0.4253  0.2495 -0.1892
25017SOL    HW176725   2.805   3.843   0.813  1.8913  0.2911 -1.6146
25017SOL    HW276726   2.801   3.975   0.888  0.5106 -0.7620  0.2583
25018SOL     OW76727   3.636   4.144   5.778 -0.0539 -0.2730 -0.4961
25018SOL    HW176728   3.585   4.215   5.817 -0.6832 -1.3080  0.6397
25018SOL    HW276729   3.620   4.152   5.684 -0.5729  0.7205 -0.3437
25019SOL     OW76730   0.711   5.028   7.885 -0.1721  0.5562  0.3287
25019SOL    HW176731   0.701   4.935   7.863 -3.5269  0.8709  0.0237
25019SOL    HW276732   0.745   5.068   7.806  1.8903 -0.4223  0.6468
25020SOL     OW76733   4.581   0.537   0.374  0.4406  0.2031  0.5629
25020SOL    HW176734   4.543   0.450   0.388  1.5507 -0.1832  1.3141
25020SOL    HW276735   4.553   0.588   0.450 -0.2136  0.5335  0.1206
25021SOL     OW76736   4.689   4.422   2.478  0.1063 -0.1502 -0.9127
25021SOL    HW176737   4.657   4.491   2.420 -2.0929  0.7444  1.1654
25021SOL    HW276738   4.784   4.430   2.476  0.0186  0.9315 -3.0174
25022SOL     OW76739   8.482   2.295   4.319 -0.1676  0.2029 -0.0821
25022SOL    HW176740   8.564   2.321   4.277  0.6453  0.2683  1.4738
25022SOL    HW276741   8.506   2.221   4.375 -1.1210  0.3427  0.5396
25023SOL     OW76742   0.273   8.760   8.934  0.3340 -0.2146 -0.1848
25023SOL    HW176743   0.284   8.854   8.927  0.5257 -0.3501 -2.6280
25023SOL    HW276744   0.315   8.736   9.016  0.1602  1.8279  0.5338
25024SOL     OW76745   3.773   7.986   7.160 -0.7696 -0.1870  0.1206
25024SOL    HW176746   3.842   7.944   7.109  0.0344  0.2690  0.8009
25024SOL    HW276747   3.749   8.063   7.108  0.1383  0.3504  0.4584
25025SOL     OW76748   2.399   6.059   3.903 -0.1102  0.3371  0.5278
25025SOL    HW176749   2.305   6.061   3.923 -0.1651 -2.1540  0.8640
25025SOL    HW276750   2.406   6.002   3.826  1.1089  0.7233  0.3279
25026SOL     OW76751   4.469   7.531   1.231  0.0549 -0.6898  0.7387
25026SOL    HW176752   4.434   7.619   1.220  1.7497  0.0878  1.2946
25026SOL    HW276753   4.392   7.476   1.247 -1.0855  0.5632 -0.2489
25027SOL     OW76754   5.408   2.705   6.075 -0.1907 -0.2879  0.2385
25027SOL    HW176755   5.437   2.772   6.013  0.5944 -0.8774 -0.0423
25027SOL    HW276756   5.329   2.669   6.036 -1.5906  1.5802  1.1791
25028SOL     OW76757   4.330   2.861   1.776  0.1227 -0.2907  0.5423
25028SOL    HW176758   4.413   2.883   1.735 -0.3150 -0.8070 -0.6486
25028SOL    HW276759   4.282   2.944   1.780 -0.3069 -0.4287 -1.1204
25029SOL     OW76760   9.123   1.650   4.079 -0.1780 -0.3864  0.4498
25029SOL    HW176761   9.154   1.690   4.160  2.7923 -0.0044 -0.7683
25029SOL    HW276762   9.138   1.557   4.090  0.4700 -0.3068  0.2423
25030SOL     OW76763   9.185   0.674   5.147  0.5333 -0.1791 -0.2194
25030SOL    HW176764   9.162   0.679   5.054  2.8863 -2.0393 -1.0256
25030SOL    HW276765   9.241   0.750   5.162 -2.4244  1.9933  0.6579
25031SOL     OW76766   6.822   3.981   0.600  0.2309  0.1589 -0.4063
25031SOL    HW176767   6.731   4.009   0.599 -0.1763 -1.0961 -1.3866
25031SOL    HW276768   6.858   4.018   0.680 -0.5760  2.3588 -0.9936
25032SOL     OW76769   4.565   5.916   3.216  0.7061 -0.4645  0.3585
25032SOL    HW176770   4.541   5.862   3.292  0.2863 -1.1411 -0.2415
25032SOL    HW276771   4.523   6.001   3.233  0.3608 -0.7096  0.7384
25033SOL     OW76772   6.874   2.807   8.161 -0.1361 -0.1476 -0.7021
25033SOL    HW176773   6.942   2.803   8.228 -1.6758  0.4331  0.9995
25033SOL    HW276774   6.884   2.726   8.111  1.0326 -0.6236  0.2639
25034SOL     OW76775   2.749   7.448   4.759  0.1467  0.2215 -0.0317
25034SOL    HW176776   2.703   7.425   4.678 -1.3234  1.2289  0.4778
25034SOL    HW276777   2.807   7.520   4.734 -1.0543  1.2269 -0.0111
25035SOL     OW76778   8.512   4.648   3.796 -0.1265 -0.0138 -0.5011
25035SOL    HW176779   8.524   4.730   3.747 -1.3732  0.9012  0.6480
25035SOL    HW276780   8.601   4.616   3.811  0.3635  0.8538 -1.3985
25036SOL     OW76781   8.784   8.277   8.446 -0.0207  0.2054 -0.1202
25036SOL    HW176782   8.703   8.316   8.481  1.4829  3.3150  0.2027
25036SOL    HW276783   8.836   8.256   8.523  0.3179  0.1748 -0.3524
25037SOL     OW76784   3.342   7.781   8.081 -0.5257 -0.1000  0.1723
25037SOL    HW176785   3.272   7.837   8.113 -1.1075  0.1273 -1.4185
25037SOL    HW276786   3.363   7.815   7.994 -1.0800 -2.4597 -0.9659
25038SOL     OW76787   5.787   1.297   8.023 -0.6892  0.3337 -0.0263
25038SOL    HW176788   5.823   1.263   8.105  0.0633  2.1007  0.4280
25038SOL    HW276789   5.712   1.350   8.051 -0.5021  0.8447 -0.4656
25039SOL     OW76790   1.560   2.492   5.202  0.5706 -0.3667 -0.0497
25039SOL    HW176791   1.484   2.443   5.172 -1.2189  1.5788  1.0153
25039SOL    HW276792   1.565   2.567   5.143  1.6390 -0.4281 -0.0552
25040SOL     OW76793   9.272   3.994   5.588  0.2959 -0.4333  0.4346
25040SOL    HW176794   9.249   3.948   5.669 -0.8850 -0.1057  0.3008
25040SOL    HW276795   9.200   3.974   5.528  0.8324 -0.1327 -0.3247
25041SOL     OW76796   5.711   2.631   3.408 -0.0123 -1.1681 -0.6463
25041SOL    HW176797   5.634   2.686   3.420 -0.2275 -1.7978  1.0443
25041SOL    HW276798   5.676   2.542   3.400  0.4234 -1.2464 -2.0317
25042SOL     OW76799   5.151   6.988   0.277 -0.5472  0.0373  0.4648
25042SOL    HW176800   5.106   6.913   0.316 -0.8021 -0.1343 -0.1481
25042SOL    HW276801   5.114   6.994   0.189  1.7725 -1.1217 -0.6708
25043SOL     OW76802   2.672   6.386   1.735 -0.2547  0.2154  0.3588
25043SOL    HW176803   2.715   6.425   1.659 -0.3175  0.6343  0.5370
25043SOL    HW276804   2.730   6.405   1.808  0.2580 -0.9620  0.2872
25044SOL     OW76805   4.151   1.190   2.667  0.2532 -0.6699  0.5276
25044SOL    HW176806   4.152   1.104   2.709  0.1609 -1.0887 -0.3155
25044SOL    HW276807   4.091   1.181   2.593 -1.5247  0.7526  1.7069
25045SOL     OW76808   0.411   5.316   6.081 -0.0490 -0.1296  0.3437
25045SOL    HW176809   0.465   5.331   6.003 -0.4438  1.6803  0.3911
25045SOL    HW276810   0.325   5.292   6.046  0.2999 -1.3585  0.2657
25046SOL     OW76811   5.191   8.856   3.843  0.3237 -0.0016  0.0510
25046SOL    HW176812   5.146   8.785   3.889  0.4012 -0.1094 -0.0353
25046SOL    HW276813   5.263   8.812   3.798  0.3308  0.1229 -0.0595
25047SOL     OW76814   0.273   3.735   3.139  0.0420  0.5571 -0.0684
25047SOL    HW176815   0.288   3.711   3.047  0.0351  3.2908 -0.8813
25047SOL    HW276816   0.360   3.754   3.173  0.0208 -0.2421  0.4475
25048SOL     OW76817   8.082   4.216   7.313  0.2159  0.5827  0.3248
25048SOL    HW176818   8.121   4.281   7.371 -0.4053  1.0151  0.2682
25048SOL    HW276819   8.013   4.264   7.266  1.2917  0.4932 -1.4404
25049SOL     OW76820   9.204   5.350   3.098  0.0614 -0.7978 -0.3506
25049SOL    HW176821   9.189   5.387   3.185 -2.5846 -1.7314 -0.3033
25049SOL    HW276822   9.173   5.417   3.038  4.4647  1.0586 -0.8913
25050SOL     OW76823   9.486   8.300   1.710 -0.1988  0.2659  0.1625
25050SOL    HW176824   9.471   8.283   1.803 -2.6278 -1.8798 -0.4841
25050SOL    HW276825   9.500   8.213   1.673  0.4954  1.0635 -1.5228
25051SOL     OW76826   1.374   2.709   0.056  0.6856 -0.1657 -0.1257
25051SOL    HW176827   1.452   2.697   0.110 -0.2537  0.1981  1.3731
25051SOL    HW276828   1.350   2.801   0.069 -0.4052 -0.4573  0.0334
25052SOL     OW76829   4.314   7.167   4.633 -0.3525 -0.4300 -0.1477
25052SOL    HW176830   4.353   7.253   4.647  0.2725 -0.9900  1.8351
25052SOL    HW276831   4.389   7.109   4.617 -0.6772 -0.8107 -0.3074
25053SOL     OW76832   2.873   0.004   5.930 -0.1692  0.0620 -0.4029
25053SOL    HW176833   2.871  -0.090   5.914  4.3515 -0.3290  0.0852
25053SOL    HW276834   2.845   0.043   5.848  0.0867 -1.7342 -1.3920
25054SOL     OW76835   0.513   3.086   4.678 -0.0960 -0.2289  0.1072
25054SOL    HW176836   0.562   3.138   4.614 -0.7275 -0.0885 -0.2764
25054SOL    HW276837   0.556   3.104   4.762  0.4252 -0.0154 -0.2026
25055SOL     OW76838   1.911   3.616   5.593  0.1131 -0.4920 -0.6699
25055SOL    HW176839   1.855   3.660   5.529  0.2079 -0.2477 -0.5839
25055SOL    HW276840   1.950   3.544   5.544  1.1237  0.4123 -1.2187
25056SOL     OW76841   6.377   2.878   8.503  0.5901  0.7937  0.1696
25056SOL    HW176842   6.412   2.885   8.414 -2.0318  1.7993 -0.8669
25056SOL    HW276843   6.332   2.793   8.503  2.5604 -0.3351  1.3861
25057SOL     OW76844   2.173   1.149   8.813 -0.2334 -0.0656 -0.1279
25057SOL    HW176845   2.188   1.083   8.881 -1.5226 -0.2148  0.0367
25057SOL    HW276846   2.124   1.103   8.745  0.9615  0.1057 -1.1368
25058SOL     OW76847   2.770   1.714   9.561 -0.7494 -0.3510  0.9231
25058SOL    HW176848   2.769   1.781   9.493 -2.1941 -1.5152 -0.2773
25058SOL    HW276849   2.704   1.742   9.624 -0.4961 -0.0625  1.0675
25059SOL     OW76850   0.455   3.855   6.923  0.0390 -0.3067 -0.6057
25059SOL    HW176851   0.373   3.816   6.889 -0.1191 -1.8678  1.4029
25059SOL    HW276852   0.517   3.783   6.924  1.9114  1.1039 -3.1854
25060SOL     OW76853   0.352   8.929   8.318 -0.1442  0.3388  0.2288
25060SOL    HW176854   0.261   8.911   8.342  0.1185 -0.2748  0.8132
25060SOL    HW276855   0.349   9.010   8.269 -1.2833 -0.8318 -1.7393
25061SOL     OW76856   3.410   0.771   5.470 -0.3012  0.6507  0.1986
25061SOL    HW176857   3.491   0.801   5.429 -0.0281  0.0824  0.3143
25061SOL    HW276858   3.343   0.831   5.437  0.3386  1.8662  1.0124
25062SOL     OW76859   2.114   8.783   6.075  0.0052  0.0396 -0.0211
25062SOL    HW176860   2.202   8.819   6.080  0.6296 -1.0009 -2.2623
25062SOL    HW276861   2.060   8.856   6.043  0.0673  0.6173  1.1524
25063SOL     OW76862   6.174   7.902   2.043 -0.2795  0.5020  0.2564
25063SOL    HW176863   6.206   7.975   1.989  0.9297 -1.0519 -1.2330
25063SOL    HW276864   6.097   7.870   1.996 -0.4027  0.3760  0.5440
25064SOL     OW76865   0.244   4.776   2.518 -0.7237 -0.1877  0.6742
25064SOL    HW176866   0.264   4.870   2.513 -1.8034  0.1265  1.6506
25064SOL    HW276867   0.240   4.747   2.427  0.6063  0.4824  0.3802
25065SOL     OW76868   7.134   6.826   5.596 -0.1171 -0.2005  0.2315
25065SOL    HW176869   7.076   6.754   5.618  0.1202 -1.1366 -1.8922
25065SOL    HW276870   7.221   6.786   5.594 -0.0590 -0.0603 -1.5837
25066SOL     OW76871   4.408   0.956   2.943 -0.0753 -0.4989  0.2062
25066SOL    HW176872   4.483   1.013   2.928 -1.7102  1.7971  0.2843
25066SOL    HW276873   4.400   0.905   2.862  0.3698  0.6816 -0.5928
25067SOL     OW76874   9.668   3.496   7.590 -0.4040 -0.3369 -0.3858
25067SOL    HW176875   9.726   3.431   7.550 -1.3072 -0.8897 -0.8369
25067SOL    HW276876   9.680   3.485   7.684  0.1323 -0.5259 -0.4761
25068SOL     OW76877   0.033   8.604   5.409  0.0824  0.5733  0.2215
25068SOL    HW176878   0.097   8.609   5.338 -0.9421  0.5785 -0.7421
25068SOL    HW276879   0.071   8.656   5.480  0.7540  1.2975 -0.6399
25069SOL     OW76880   0.835   0.852   5.408 -0.0422  0.3488  0.5520
25069SOL    HW176881   0.836   0.890   5.495 -2.3321 -0.5903  1.0602
25069SOL    HW276882   0.773   0.779   5.414 -0.2001  0.1945 -1.8175
25070SOL     OW76883   2.211   6.059   2.768  0.3499  0.3103  0.6296
25070SOL    HW176884   2.234   6.057   2.675  2.2748 -0.4105  1.0749
25070SOL    HW276885   2.250   5.979   2.804 -0.1895  0.6798  2.1025
25071SOL     OW76886   5.033   1.717   8.252 -0.2664  0.2668  0.1718
25071SOL    HW176887   5.091   1.736   8.179 -1.1691  0.9425 -0.3968
25071SOL    HW276888   4.973   1.650   8.219 -0.9645  0.9008  0.1223
25072SOL     OW76889   5.031   5.937   6.345 -0.1589  0.3119 -0.0847
25072SOL    HW176890   5.121   5.908   6.336  0.1256  0.7008  1.3007
25072SOL    HW276891   4.979   5.865   6.309  0.6772 -0.0315 -0.6450
25073SOL     OW76892   3.589   8.247   8.362 -0.4473 -0.3129  0.3725
25073SOL    HW176893   3.665   8.230   8.418 -0.6923  1.7331  1.4077
25073SOL    HW276894   3.519   8.194   8.400 -0.1852 -0.2304  0.9826
25074SOL     OW76895   8.267   8.276   6.920 -0.6064 -0.2182  0.1921
25074SOL    HW176896   8.268   8.182   6.900  1.0938 -0.5599  1.6407
25074SOL    HW276897   8.300   8.282   7.010 -3.5238  1.5608  1.3099
25075SOL     OW76898   7.650   3.307   4.059 -0.1480  0.0410  0.5484
25075SOL    HW176899   7.558   3.295   4.084 -0.1424  0.1370  0.6188
25075SOL    HW276900   7.678   3.384   4.109  0.3316 -0.7233  1.4738
25076SOL     OW76901   6.236   8.732   8.130 -0.5681  0.6100 -0.2722
25076SOL    HW176902   6.163   8.683   8.169 -0.4025 -0.4968 -1.2852
25076SOL    HW276903   6.258   8.682   8.051 -0.9063  2.7372 -1.8019
25077SOL     OW76904   7.220   3.653   4.616  0.3512 -0.2879  0.8010
25077SOL    HW176905   7.207   3.623   4.706  0.5471  0.3199  1.0365
25077SOL    HW276906   7.315   3.650   4.604  0.4519  1.1307  1.1485
25078SOL     OW76907   7.991   4.555   9.618  0.4771 -0.0812  0.1277
25078SOL    HW176908   7.947   4.479   9.656  1.3817 -0.4509  0.4696
25078SOL    HW276909   8.070   4.565   9.670  0.1194  1.4289  0.4292
25079SOL     OW76910   3.927   0.765   6.543 -0.2103  0.1248 -0.8695
25079SOL    HW176911   3.884   0.850   6.542 -0.0960  0.2006 -0.1435
25079SOL    HW276912   3.930   0.741   6.636 -0.0490 -0.5714 -1.0457
25080SOL     OW76913   9.651   2.769   5.955  0.5264  0.2855  0.8296
25080SOL    HW176914   9.636   2.862   5.972  1.3368  0.7834 -0.9405
25080SOL    HW276915   9.713   2.768   5.881 -0.3299 -1.6568  0.0770
25081SOL     OW76916   3.955   1.492   2.734  0.1042  0.2511 -0.1498
25081SOL    HW176917   3.979   1.478   2.642  1.4307  1.2306  0.0305
25081SOL    HW276918   4.031   1.462   2.783 -1.1007 -1.5114  0.7352
25082SOL     OW76919   8.356   1.746   2.033  0.4399 -0.1997  0.3038
25082SOL    HW176920   8.441   1.734   1.991  0.6116  2.0068 -0.1037
25082SOL    HW276921   8.302   1.790   1.968 -0.2098  0.6883  1.3964
25083SOL     OW76922   8.553   2.716   0.536 -0.0490  1.2242 -0.3698
25083SOL    HW176923   8.600   2.743   0.615  0.3256 -1.3844  0.3680
25083SOL    HW276924   8.461   2.731   0.556 -0.0798 -0.8244  1.1969
25084SOL     OW76925   7.234   2.578   2.823 -0.0370 -0.3945  0.2055
25084SOL    HW176926   7.190   2.661   2.808 -0.5772 -0.7777 -0.3732
25084SOL    HW276927   7.178   2.532   2.885 -0.3976 -0.8322 -0.4343
25085SOL     OW76928   3.375   5.872   4.129  0.4622 -0.4609 -0.0711
25085SOL    HW176929   3.303   5.934   4.119  0.8764 -0.0525 -0.6190
25085SOL    HW276930   3.450   5.916   4.088  0.5916 -1.6295 -1.1441
25086SOL     OW76931   2.402   5.722   3.562  0.1861  0.3349  0.0174
25086SOL    HW176932   2.400   5.798   3.620  1.7813  1.3363 -1.1672
25086SOL    HW276933   2.366   5.651   3.615  1.5310  1.2023  2.2112
25087SOL     OW76934   0.270   5.815   2.169  0.0141 -0.0997 -0.3097
25087SOL    HW176935   0.267   5.905   2.202 -0.3512 -0.0709 -0.4137
25087SOL    HW276936   0.243   5.762   2.244 -1.4936  0.0175 -0.7263
25088SOL     OW76937   5.232   1.803   5.204 -0.4365  0.0946 -0.5645
25088SOL    HW176938   5.252   1.769   5.291 -0.9395  2.0847  0.3793
25088SOL    HW276939   5.257   1.732   5.144  2.8294 -0.1700  0.9469
25089SOL     OW76940   7.704   5.015   6.966 -0.1842  0.1193  0.9078
25089SOL    HW176941   7.637   5.082   6.951  1.3173  1.7521  1.2531
25089SOL    HW276942   7.709   5.006   7.061 -0.2934 -0.4292  0.8686
25090SOL     OW76943   3.407   1.110   7.273 -1.1453 -0.3276  0.1132
25090SOL    HW176944   3.467   1.113   7.347  0.0334  1.0602 -0.8488
25090SOL    HW276945   3.333   1.164   7.300 -1.3699 -0.9455  0.7817
25091SOL     OW76946   1.599   4.306   3.964 -0.9586  0.0294 -0.1275
25091SOL    HW176947   1.686   4.294   4.002 -0.5829 -0.8141 -1.2023
25091SOL    HW276948   1.614   4.307   3.870 -2.2378 -1.3184 -0.3749
25092SOL     OW76949   9.426   3.682   1.808  0.0003 -0.5168  0.3394
25092SOL    HW176950   9.363   3.628   1.857  0.2077  0.2209  1.4551
25092SOL    HW276951   9.375   3.757   1.778  0.3527  0.1689  1.3916
25093SOL     OW76952   8.368   0.745   3.665  0.5169 -0.1048  0.3875
25093SOL    HW176953   8.297   0.719   3.607 -0.0451 -0.1499  1.0917
25093SOL    HW276954   8.419   0.808   3.613  0.4007 -0.6323 -0.3881
25094SOL     OW76955   1.932   4.368   6.372 -0.5609 -0.4955  0.4190
25094SOL    HW176956   1.891   4.358   6.457 -0.6556  0.0515  0.4378
25094SOL    HW276957   1.859   4.384   6.311 -0.2904  4.3304  0.9785
25095SOL     OW76958   5.927   6.589   7.866  0.2182 -0.1121 -0.1376
25095SOL    HW176959   5.975   6.663   7.904 -1.9048  0.9865  0.5826
25095SOL    HW276960   5.899   6.621   7.780 -2.4055  0.7838  0.9556
25096SOL     OW76961   5.297   1.738   0.485  0.0444  0.2955  0.0751
25096SOL    HW176962   5.246   1.740   0.404 -0.1994  1.2786  0.2369
25096SOL    HW276963   5.235   1.763   0.553 -0.0674 -1.7228  0.7718
25097SOL     OW76964   2.759   6.135   2.342 -0.0603  0.8264 -0.4179
25097SOL    HW176965   2.832   6.170   2.292 -1.0744  1.9523 -1.1453
25097SOL    HW276966   2.728   6.060   2.291  0.2162  0.6945 -0.3943
25098SOL     OW76967   2.339   1.366   6.056 -0.0464 -0.4622 -0.6395
25098SOL    HW176968   2.394   1.331   6.127  0.5116  1.0447 -0.2845
25098SOL    HW276969   2.360   1.312   5.980  1.0020 -0.7097 -0.1904
25099SOL     OW76970   6.727   5.380   2.229 -0.1494  0.4000 -0.1289
25099SOL    HW176971   6.794   5.383   2.297 -0.9685 -1.3025  0.8396
25099SOL    HW276972   6.734   5.463   2.183  2.0774  0.5847  0.4544
25100SOL     OW76973   1.136   6.940   5.567 -0.0524  0.1293  0.1007
25100SOL    HW176974   1.137   6.984   5.482 -0.1931  0.4132  0.2491
25100SOL    HW276975   1.216   6.887   5.566 -0.9766 -1.3571 -0.9935
25101SOL     OW76976   1.284   9.344   8.545 -0.2783 -0.2137  0.2320
25101SOL    HW176977   1.255   9.319   8.632 -0.9406  0.5389  0.2342
25101SOL    HW276978   1.205   9.376   8.501  0.3935  1.1439 -0.0187
25102SOL     OW76979   4.647   5.423   1.624  0.2258 -0.2166  0.3813
25102SOL    HW176980   4.571   5.482   1.622  0.6377  0.3012 -1.9728
25102SOL    HW276981   4.611   5.338   1.598  0.4638  0.0966 -1.0469
25103SOL     OW76982   6.015   7.213   5.498  0.2115 -0.0862  0.0164
25103SOL    HW176983   6.109   7.205   5.483 -0.1091 -0.5639 -1.9148
25103SOL    HW276984   5.998   7.307   5.495  0.6965  0.0474  0.9953
25104SOL     OW76985   9.046   4.903   6.732 -0.3881  0.2453 -0.0118
25104SOL    HW176986   8.967   4.956   6.744 -0.6726 -0.3071  0.6102
25104SOL    HW276987   9.114   4.949   6.782 -0.5955  0.1176  0.3934
25105SOL     OW76988   6.486   9.104   5.062 -0.0418 -0.1967 -0.0577
25105SOL    HW176989   6.442   9.098   4.978  0.5517 -1.5365 -0.3052
25105SOL    HW276990   6.453   9.029   5.112 -0.1069  0.3693  0.7770
25106SOL     OW76991   8.987   1.531   2.666 -0.1474 -0.6318  0.3163
25106SOL    HW176992   9.066   1.560   2.711 -1.2595  1.0111  1.2891
25106SOL    HW276993   8.942   1.475   2.729  0.2897 -1.7042 -0.2971
25107SOL     OW76994   4.594   7.557   6.470 -0.4514 -0.4632 -0.2473
25107SOL    HW176995   4.563   7.628   6.414 -1.7864 -0.6501  0.2163
25107SOL    HW276996   4.674   7.526   6.427  0.9668  2.1890  0.2890
25108SOL     OW76997   1.150   4.158   5.692  0.2254 -0.2494  0.1706
25108SOL    HW176998   1.068   4.111   5.677  0.2812 -0.2431 -0.1717
25108SOL    HW276999   1.202   4.140   5.614 -0.1239  1.1713 -0.4387
25109SOL     OW77000   0.114   4.067   7.411  0.9477 -0.2293 -0.6980
25109SOL    HW177001   0.143   4.083   7.321 -0.7871  0.2883 -1.2196
25109SOL    HW277002   0.049   4.136   7.427 -0.1234 -1.4094  0.2722
25110SOL     OW77003   0.913   3.933   1.010 -0.3858  0.4049 -0.5845
25110SOL    HW177004   0.948   3.990   1.079 -1.5768 -0.4985  0.8137
25110SOL    HW277005   0.826   3.968   0.992 -0.9526 -0.6644 -0.0299
25111SOL     OW77006   2.216   3.965   1.723  0.1854 -0.0379 -0.4589
25111SOL    HW177007   2.262   4.042   1.690  1.1890  1.0182  2.9539
25111SOL    HW277008   2.124   3.990   1.723  0.3140  0.4561 -1.0900
25112SOL     OW77009   4.248   5.977   1.769  0.0219 -0.6802 -0.1384
25112SOL    HW177010   4.257   5.956   1.676  1.3145 -0.9434  0.0247
25112SOL    HW277011   4.329   5.946   1.808  1.3435  3.0034  0.4443
25113SOL     OW77012   2.640   7.499   4.023  0.2963 -0.8894 -0.2519
25113SOL    HW177013   2.666   7.407   4.020 -0.4040 -1.1469 -3.8509
25113SOL    HW277014   2.554   7.499   4.065  0.2037 -1.9185 -0.4144
25114SOL     OW77015   7.184   8.359   2.029  0.4727 -0.4521  0.0677
25114SOL    HW177016   7.115   8.411   1.989  0.4908  0.3476  1.0170
25114SOL    HW277017   7.147   8.271   2.036  0.5460 -0.6637 -1.8201
25115SOL     OW77018   2.537   3.854   5.184 -0.2392  0.2201  0.2571
25115SOL    HW177019   2.535   3.787   5.253  1.4112 -1.6129 -1.3435
25115SOL    HW277020   2.579   3.930   5.226  1.5372 -1.1523  1.1141
25116SOL     OW77021   3.326   1.728   5.673  0.0053  0.0093 -0.0589
25116SOL    HW177022   3.409   1.717   5.721  1.1957 -1.0433 -2.2355
25116SOL    HW277023   3.279   1.794   5.723  0.8952 -1.3900  2.8671
25117SOL     OW77024   0.345   8.253   2.749 -0.2437 -0.2407  0.0043
25117SOL    HW177025   0.426   8.273   2.702  0.2020 -0.5712  0.6155
25117SOL    HW277026   0.291   8.331   2.737  0.5111  0.3501  0.3175
25118SOL     OW77027   2.799   5.393   8.510  0.3087 -0.0096  0.4355
25118SOL    HW177028   2.785   5.396   8.416 -0.1123  2.2291  0.5241
25118SOL    HW277029   2.841   5.476   8.531  1.2356 -0.8492  2.1208
25119SOL     OW77030   7.897   0.399   0.148 -0.4905  0.1069  0.2819
25119SOL    HW177031   7.843   0.322   0.133  1.6153 -1.6596  1.2597
25119SOL    HW277032   7.932   0.421   0.061 -0.5502 -0.4772  0.1046
25120SOL     OW77033   8.831   8.830   7.417  0.3123 -0.5848 -0.0791
25120SOL    HW177034   8.740   8.858   7.413 -0.0851 -1.7950  0.1588
25120SOL    HW277035   8.865   8.846   7.328  0.8574  2.8759  0.5885
25121SOL     OW77036   6.557   1.601   1.095  0.4025  0.6242  0.6720
25121SOL    HW177037   6.571   1.575   1.185  2.5488  2.0685  0.8296
25121SOL    HW277038   6.507   1.683   1.102 -3.0378 -1.2722  0.3157
25122SOL     OW77039   1.481   1.196   0.650  0.0206 -0.5359 -0.0403
25122SOL    HW177040   1.422   1.254   0.699 -1.0351  0.6757 -2.5702
25122SOL    HW277041   1.476   1.113   0.696  0.2819  0.8686  2.7550
25123SOL     OW77042   5.997   0.310   5.581  0.0556 -0.2507  0.1565
25123SOL    HW177043   6.062   0.342   5.518  1.0537  1.7545  2.0592
25123SOL    HW277044   6.045   0.248   5.636  0.7958  2.0168  2.2323
25124SOL     OW77045   2.535   6.354   4.860 -0.4238  0.0357 -0.5811
25124SOL    HW177046   2.608   6.347   4.921 -0.4532  0.3762 -0.5079
25124SOL    HW277047   2.556   6.291   4.791 -0.6634 -0.7540  0.0533
25125SOL     OW77048   8.748   1.932   3.507 -0.2966 -0.2542 -0.1156
25125SOL    HW177049   8.684   1.912   3.575 -0.3722  1.1324  0.2433
25125SOL    HW277050   8.756   2.027   3.507  1.9512 -0.3689  0.0330
25126SOL     OW77051   2.688   0.256   3.075  0.1184  0.1103  0.2857
25126SOL    HW177052   2.751   0.200   3.031  0.3374 -0.0435  0.7892
25126SOL    HW277053   2.725   0.271   3.162  0.1388  1.1593  0.1108
25127SOL     OW77054   0.933   5.248   8.590  0.2213 -0.6599 -0.1738
25127SOL    HW177055   0.954   5.159   8.619  1.4586 -0.4777 -0.4804
25127SOL    HW277056   0.969   5.305   8.658  2.3788 -0.2691 -1.5791
25128SOL     OW77057   1.514   7.390   0.437 -0.0635 -0.5809  0.6137
25128SOL    HW177058   1.496   7.349   0.352  1.9728 -1.4857  0.5698
25128SOL    HW277059   1.442   7.452   0.449 -1.7827 -2.2385 -0.5717
25129SOL     OW77060   1.448   6.219   2.907 -0.6285 -0.2151 -0.1258
25129SOL    HW177061   1.523   6.163   2.886  1.0822  0.4885  3.3195
25129SOL    HW277062   1.376   6.159   2.922 -0.0857 -1.1260 -1.0325
25130SOL     OW77063   0.888   3.743   2.298  0.2736 -0.0085  0.5411
25130SOL    HW177064   0.943   3.812   2.333 -1.2750  0.6917  1.7173
25130SOL    HW277065   0.857   3.695   2.374 -0.4701 -0.5800 -0.1007
25131SOL     OW77066   2.294   1.543   3.584  0.0176  0.2616  0.2935
25131SOL    HW177067   2.374   1.516   3.630 -0.3433 -0.6176  0.4229
25131SOL    HW277068   2.325   1.596   3.511  0.9263 -2.1771 -1.1918
25132SOL     OW77069   3.721   1.141   0.125 -0.1982  0.1458  0.6535
25132SOL    HW177070   3.799   1.187   0.093 -0.4773  0.2003  0.0444
25132SOL    HW277071   3.702   1.076   0.058 -1.4287  0.9716  0.1690
25133SOL     OW77072   1.004   0.380   5.013  0.4385 -0.5039  0.4033
25133SOL    HW177073   1.012   0.465   5.056 -1.0080 -0.4619  0.6437
25133SOL    HW277074   0.932   0.390   4.951  2.0794 -0.7568 -1.6602
25134SOL     OW77075   7.617   3.543   3.444 -0.1786  0.5317 -0.3726
25134SOL    HW177076   7.625   3.526   3.537 -1.3491 -2.8257 -0.7559
25134SOL    HW277077   7.705   3.530   3.409 -0.2932 -1.2916 -0.0748
25135SOL     OW77078   5.074   1.129   0.569  0.0230  0.3287  0.1484
25135SOL    HW177079   5.076   1.218   0.533 -0.6425 -0.4107 -1.8604
25135SOL    HW277080   5.030   1.077   0.501 -1.7806 -1.1011  2.2836
25136SOL     OW77081   9.408   4.508   6.597  0.1116  0.8597 -0.3172
25136SOL    HW177082   9.388   4.577   6.660  0.4951 -0.4670  1.3525
25136SOL    HW277083   9.322   4.480   6.564 -0.2779  0.2490  1.1487
25137SOL     OW77084   1.527   4.629   8.589 -0.2247  0.0900  0.1038
25137SOL    HW177085   1.505   4.722   8.594 -0.5886 -0.0252  0.8190
25137SOL    HW277086   1.543   4.603   8.680  1.3925 -0.2013 -0.2186
25138SOL     OW77087   0.282   3.955   5.096 -0.1928 -0.3588  0.0920
25138SOL    HW177088   0.293   4.042   5.060 -0.3334 -0.5912 -0.5276
25138SOL    HW277089   0.323   3.959   5.182  0.9554 -0.0478 -0.4516
25139SOL     OW77090   1.003   9.551   5.006  0.3622  0.0922 -0.2297
25139SOL    HW177091   1.067   9.532   4.937  0.0326 -0.8403 -0.2946
25139SOL    HW277092   0.927   9.495   4.984 -1.0828  2.2308 -0.9925
25140SOL     OW77093   9.220   4.368   9.065  0.0559  0.2847 -0.0218
25140SOL    HW177094   9.255   4.439   9.119 -2.1926  0.9458  0.6752
25140SOL    HW277095   9.199   4.409   8.981  1.1244 -0.1633 -0.5248
25141SOL     OW77096   8.049   7.553   2.131 -0.9393 -0.4492 -0.0156
25141SOL    HW177097   8.033   7.598   2.048 -0.8267  1.0602  0.7310
25141SOL    HW277098   7.963   7.543   2.170 -0.8880 -0.0342  0.2166
25142SOL     OW77099   7.726   6.146   1.957  0.4924 -0.2962 -0.1324
25142SOL    HW177100   7.691   6.174   1.873 -1.8760 -1.6287  0.3255
25142SOL    HW277101   7.707   6.219   2.016 -0.0235 -0.3328 -0.2481
25143SOL     OW77102   1.920   3.844   0.370  0.6055 -0.0302  0.2298
25143SOL    HW177103   1.945   3.848   0.278  0.5773  0.8319  0.2519
25143SOL    HW277104   1.999   3.871   0.418  0.8475 -1.1634  0.5089
25144SOL     OW77105   3.188   0.079   9.231 -0.2858  0.5658 -0.0424
25144SOL    HW177106   3.224   0.143   9.170  0.2268 -0.4566 -0.8455
25144SOL    HW277107   3.115   0.039   9.183 -0.8013  0.7559  0.5669
25145SOL     OW77108   3.653   2.801   2.248  0.1586 -0.2515  0.1362
25145SOL    HW177109   3.598   2.830   2.321  0.2473  3.3357 -1.0298
25145SOL    HW277110   3.733   2.769   2.290 -0.5623 -0.1723  1.6600
25146SOL     OW77111   0.203   4.501   4.008 -0.3015 -0.0311  0.5517
25146SOL    HW177112   0.152   4.449   4.071 -2.7557  0.8090 -0.5966
25146SOL    HW277113   0.227   4.580   4.056 -0.0332 -0.4509  1.1257
25147SOL     OW77114   5.948   6.674   6.856  0.3238  0.4495 -0.5724
25147SOL    HW177115   5.865   6.627   6.855  2.2770 -3.4219  0.3093
25147SOL    HW277116   5.976   6.676   6.764  0.6265 -1.1127 -0.5436
25148SOL     OW77117   3.245   1.425   5.405  0.9117 -0.3040  0.3166
25148SOL    HW177118   3.184   1.359   5.439  1.1586 -0.6245  0.1433
25148SOL    HW277119   3.189   1.495   5.372  0.5951 -1.0040 -0.6799
25149SOL     OW77120   5.446   0.770   2.090  0.0071 -0.2185 -0.2256
25149SOL    HW177121   5.363   0.773   2.042 -0.2499  1.1834  0.2606
25149SOL    HW277122   5.507   0.817   2.035  0.5627 -1.4370 -0.6839
25150SOL     OW77123   1.100   3.678   7.377  0.0638 -0.0884 -0.4784
25150SOL    HW177124   1.134   3.768   7.371 -0.6761  0.4495  2.2672
25150SOL    HW277125   1.011   3.684   7.342 -0.9605  0.9412  2.0523
25151SOL     OW77126   5.691   0.669   6.762 -0.0724  0.6064  0.1824
25151SOL    HW177127   5.618   0.711   6.807  0.1971  1.0989  0.1749
25151SOL    HW277128   5.707   0.725   6.686  0.2645  0.4592  0.1426
25152SOL     OW77129   8.376   0.694   0.474 -1.0349  0.4699  0.1312
25152SOL    HW177130   8.423   0.644   0.540 -0.3614  0.9628  0.0376
25152SOL    HW277131   8.413   0.664   0.391 -1.0838  0.6605  0.0414
25153SOL     OW77132   1.484   9.039   8.798 -0.3643  0.3386 -0.3525
25153SOL    HW177133   1.417   9.025   8.865  0.9180  0.3652  0.9727
25153SOL    HW277134   1.525   8.953   8.786 -1.0718  0.1435 -1.7111
25154SOL     OW77135   7.872   0.970   1.612  0.1171  0.8728  0.1167
25154SOL    HW177136   7.857   0.925   1.529  1.3124  0.7736 -0.0591
25154SOL    HW277137   7.928   0.910   1.661 -1.7568  0.2415  1.6162
25155SOL     OW77138   0.714   0.300   6.731  0.4816 -0.2277 -0.1643
25155SOL    HW177139   0.700   0.312   6.825 -2.3294 -0.4059 -0.4921
25155SOL    HW277140   0.798   0.342   6.714  0.6025  0.6555  2.2518
25156SOL     OW77141   7.510   8.572   7.811  0.3334 -0.1025  0.5455
25156SOL    HW177142   7.553   8.655   7.829 -0.5310  0.3820  0.4191
25156SOL    HW277143   7.515   8.562   7.716 -2.8443  1.6804  0.0735
25157SOL     OW77144   0.712   8.258   3.438 -0.0964 -0.5579 -0.1350
25157SOL    HW177145   0.729   8.233   3.348  0.5611  0.8429 -0.4230
25157SOL    HW277146   0.783   8.218   3.488  0.0584 -0.5721 -0.3660
25158SOL     OW77147   2.256   1.993   9.490  0.0402 -0.0581 -0.4204
25158SOL    HW177148   2.189   1.998   9.559 -1.6909 -1.6177 -1.8859
25158SOL    HW277149   2.210   2.019   9.410  1.5425  0.0088 -1.2928
25159SOL     OW77150   0.220   7.642   0.600 -0.0316 -0.0484  0.4464
25159SOL    HW177151   0.314   7.658   0.613 -0.2440  0.4391  1.5060
25159SOL    HW277152   0.178   7.682   0.676 -1.0690 -0.6565  0.2178
25160SOL     OW77153   0.420   0.463   2.560 -0.2186  0.0962  0.0585
25160SOL    HW177154   0.422   0.534   2.624 -1.9053  0.5197 -0.3123
25160SOL    HW277155   0.399   0.385   2.612  1.2130 -0.0823  0.4030
25161SOL     OW77156   0.282   0.012   4.898  0.0107  0.2998  0.2926
25161SOL    HW177157   0.301   0.062   4.976 -0.7621 -0.6104  1.0942
25161SOL    HW277158   0.346  -0.059   4.899 -0.6761 -0.3273  0.6976
25162SOL     OW77159   7.452   4.403   2.484  0.0363 -0.0563 -0.1677
25162SOL    HW177160   7.518   4.362   2.429  0.4491  0.6754 -0.2339
25162SOL    HW277161   7.432   4.338   2.551  0.3371 -0.5305 -0.5296
25163SOL     OW77162   2.826   4.519   4.323 -0.2160 -0.0222  0.2837
25163SOL    HW177163   2.808   4.613   4.322 -0.7537 -0.1235  0.3116
25163SOL    HW277164   2.919   4.513   4.301  0.4199  0.6494  2.5456
25164SOL     OW77165   6.829   2.141   3.388  0.1381 -0.2079 -0.3601
25164SOL    HW177166   6.889   2.174   3.321  0.3801  1.1468  0.4998
25164SOL    HW277167   6.781   2.218   3.418 -1.2322 -1.0832 -0.2032
25165SOL     OW77168   7.193   9.377   1.019  0.4462  0.2307  0.4171
25165SOL    HW177169   7.201   9.332   1.103  1.1326  0.2845  0.3881
25165SOL    HW277170   7.105   9.414   1.020  0.4801  0.3186  1.1568
25166SOL     OW77171   1.440   0.031   8.869  0.3507  0.3044 -0.4328
25166SOL    HW177172   1.450   0.126   8.858  0.2298  0.2630 -0.9196
25166SOL    HW277173   1.492   0.010   8.947  0.0244  0.8373 -0.0597
25167SOL     OW77174   4.815   2.378   0.224  0.0283  0.2398  0.0027
25167SOL    HW177175   4.750   2.329   0.273 -0.9863  2.6754  1.2992
25167SOL    HW277176   4.838   2.451   0.282  1.8092  1.0374 -1.5848
25168SOL     OW77177   6.769   9.471   6.019  0.6668 -0.5194  0.1132
25168SOL    HW177178   6.725   9.387   6.029  1.7678 -1.4510 -2.1761
25168SOL    HW277179   6.847   9.452   5.966  2.2757  1.5550  1.5198
25169SOL     OW77180   4.381   7.585   3.896  0.6321 -0.3873 -0.2789
25169SOL    HW177181   4.338   7.649   3.839 -0.8131 -1.2041 -0.1550
25169SOL    HW277182   4.343   7.501   3.870  2.8435 -1.3024 -0.7807
25170SOL     OW77183   6.379   0.771   8.106 -0.3957 -0.3181  0.3893
25170SOL    HW177184   6.346   0.822   8.031 -1.0487 -1.5526 -0.1897
25170SOL    HW277185   6.305   0.716   8.131 -0.0401 -0.2210  1.6868
25171SOL     OW77186   0.376   4.560   1.103 -0.5787 -0.3594  0.0894
25171SOL    HW177187   0.340   4.605   1.026  0.1422  0.6129  0.3021
25171SOL    HW277188   0.310   4.574   1.171 -0.4115  0.3102  0.1235
25172SOL     OW77189   5.266   2.509   2.579 -0.1584  0.2964 -0.1510
25172SOL    HW177190   5.292   2.419   2.557 -2.4898  0.0042 -2.0204
25172SOL    HW277191   5.197   2.530   2.517 -1.3161  2.5582  1.7704
25173SOL     OW77192   2.445   8.252   4.098  0.3390 -1.0041  0.2571
25173SOL    HW177193   2.384   8.179   4.089 -1.0042  0.0565  0.3334
25173SOL    HW277194   2.426   8.308   4.023  1.7033 -0.9671 -0.0815
25174SOL     OW77195   8.260   8.536   4.087  0.5994  0.2789 -0.2469
25174SOL    HW177196   8.318   8.503   4.156 -0.3671 -0.4707  0.2325
25174SOL    HW277197   8.243   8.461   4.031  1.2657  0.8542 -1.2346
25175SOL     OW77198   6.331   5.770   5.052 -0.2289  0.0946 -0.9523
25175SOL    HW177199   6.372   5.703   5.106 -0.2144  0.2695 -0.7448
25175SOL    HW277200   6.322   5.730   4.966 -0.1546 -0.1477 -0.8469
25176SOL     OW77201   0.930   3.457   4.584  0.2132 -0.1908  0.5928
25176SOL    HW177202   0.838   3.461   4.609  0.4586  0.4163  1.4352
25176SOL    HW277203   0.934   3.504   4.501 -0.6030 -2.2002 -0.6465
25177SOL     OW77204   4.894   2.892   4.348  0.3620 -0.6386  0.9336
25177SOL    HW177205   4.903   2.872   4.255  1.0608  1.6675  0.4273
25177SOL    HW277206   4.823   2.836   4.378  0.5593 -1.9146 -0.8167
25178SOL     OW77207   5.844   8.702   3.688 -0.5306  0.0772 -0.3048
25178SOL    HW177208   5.939   8.711   3.676 -0.6644  0.5402 -1.1315
25178SOL    HW277209   5.827   8.739   3.774  0.0684 -0.2156 -0.0542
25179SOL     OW77210   9.430   7.607   1.120 -0.1571 -0.4768  0.5134
25179SOL    HW177211   9.490   7.588   1.192  1.4447 -0.2687 -0.6983
25179SOL    HW277212   9.352   7.555   1.138  0.3299 -0.6445  2.2232
25180SOL     OW77213   8.926   5.672   2.342  0.0296 -0.0106  0.2016
25180SOL    HW177214   9.001   5.705   2.391 -2.1112  2.0009  2.4661
25180SOL    HW277215   8.921   5.579   2.365 -0.1696  0.5935  3.0251
25181SOL     OW77216   9.278   5.189   3.716 -0.5675  0.6307  0.2193
25181SOL    HW177217   9.265   5.145   3.632  0.6175  2.0837 -0.7504
25181SOL    HW277218   9.278   5.117   3.780  1.0389 -0.7802 -1.2685
25182SOL     OW77219   5.170   3.736   6.175  0.4712  0.1807  0.5617
25182SOL    HW177220   5.247   3.698   6.216 -0.5253 -2.8571 -0.1082
25182SOL    HW277221   5.118   3.661   6.148 -0.8982  2.0324 -2.4973
25183SOL     OW77222   5.681   9.195   6.131 -0.2614  0.0197 -0.1606
25183SOL    HW177223   5.734   9.264   6.091 -0.8137  0.3206 -0.3816
25183SOL    HW277224   5.712   9.114   6.091 -0.6882  0.2965 -1.0736
25184SOL     OW77225   5.414   7.047   0.401 -0.8160 -0.1658 -0.1570
25184SOL    HW177226   5.439   6.968   0.447  0.5124 -0.2934 -1.0509
25184SOL    HW277227   5.351   7.018   0.335 -0.1606 -0.5293 -0.6324
25185SOL     OW77228   6.058   6.165   5.844  0.4891 -0.0073 -0.3331
25185SOL    HW177229   6.111   6.226   5.793  1.4715  0.7229  1.4552
25185SOL    HW277230   6.122   6.115   5.895 -0.4571 -0.4654  0.4434
25186SOL     OW77231   7.436   0.651   5.283  0.6300  0.6890 -0.1622
25186SOL    HW177232   7.438   0.596   5.205 -1.0474  1.0389 -0.4984
25186SOL    HW277233   7.528   0.665   5.306  1.1189 -0.8682 -1.0356
25187SOL     OW77234   6.402   8.608   4.130 -0.7563  0.2846  0.0908
25187SOL    HW177235   6.321   8.590   4.178 -0.5654 -0.1668  0.2435
25187SOL    HW277236   6.388   8.567   4.044 -0.1151 -1.0782  0.6164
25188SOL     OW77237   4.075   2.501   2.746 -0.5250 -0.5434 -0.1687
25188SOL    HW177238   4.051   2.560   2.818  0.0620  1.9519 -1.8581
25188SOL    HW277239   4.158   2.462   2.773 -0.7612 -0.3515  0.8835
25189SOL     OW77240   5.404   7.994   1.286 -0.0799  0.1444  0.1916
25189SOL    HW177241   5.318   7.967   1.255  0.3349  0.5486 -1.4125
25189SOL    HW277242   5.421   8.076   1.241  0.9892  0.2739  0.7960
25190SOL     OW77243   3.004   3.217   3.616 -0.0125 -0.4030  0.0636
25190SOL    HW177244   2.931   3.174   3.572  0.9858 -2.5279  0.3557
25190SOL    HW277245   3.038   3.279   3.552 -2.6738  1.4807  0.2869
25191SOL     OW77246   2.682   8.572   1.133 -0.0110 -0.0456  0.2799
25191SOL    HW177247   2.671   8.667   1.135 -2.1002 -0.2290 -0.2414
25191SOL    HW277248   2.654   8.542   1.219  0.9697 -0.1957  0.5652
25192SOL     OW77249   1.746   2.325   2.425 -0.1058  0.1600 -0.3737
25192SOL    HW177250   1.681   2.365   2.483  1.2735  2.4560 -0.2580
25192SOL    HW277251   1.813   2.291   2.484 -0.3285 -0.5642 -0.5365
25193SOL     OW77252   7.080   4.808   4.214  0.1923 -0.1791 -0.1534
25193SOL    HW177253   7.043   4.896   4.218  1.6867  0.4377  1.2665
25193SOL    HW277254   7.010   4.750   4.244  0.1565  0.8841  1.9205
25194SOL     OW77255   6.419   5.101   0.942  0.1863 -0.1515  0.3097
25194SOL    HW177256   6.421   5.007   0.925  0.3377  0.2245 -1.9822
25194SOL    HW277257   6.484   5.138   0.883 -1.8451  1.6759 -0.9339
25195SOL     OW77258   5.303   5.587   5.547  0.6657 -0.0996  0.2466
25195SOL    HW177259   5.347   5.596   5.462 -0.3861  0.0639 -0.2978
25195SOL    HW277260   5.325   5.499   5.576  0.1282 -0.5752 -0.7397
25196SOL     OW77261   2.724   7.313   8.619  0.1945 -0.0749 -0.7552
25196SOL    HW177262   2.644   7.347   8.660  0.4599 -0.2108 -0.0997
25196SOL    HW277263   2.790   7.319   8.688  0.4060 -1.3032 -0.8324
25197SOL     OW77264   3.230   6.115   0.328  0.0258  0.0727 -0.0313
25197SOL    HW177265   3.254   6.128   0.420 -1.7423 -0.9914  0.6324
25197SOL    HW277266   3.137   6.138   0.324 -0.6641 -2.5569 -0.8970
25198SOL     OW77267   5.459   8.183   8.067 -0.7864  0.0084  0.2097
25198SOL    HW177268   5.439   8.199   8.159 -0.2618 -0.2436  0.3707
25198SOL    HW277269   5.550   8.152   8.067 -1.3897 -1.8913 -0.1906
25199SOL     OW77270   4.181   0.476   9.625  0.3870 -0.1920 -0.0245
25199SOL    HW177271   4.198   0.533   9.701 -0.4693 -1.0364  0.8246
25199SOL    HW277272   4.260   0.484   9.571 -0.4690  3.3909 -1.0075
25200SOL     OW77273   4.430   4.391   4.370  0.4053 -0.3434  0.5888
25200SOL    HW177274   4.384   4.331   4.429 -2.7985 -0.1433 -1.5136
25200SOL    HW277275   4.430   4.347   4.285  2.2376  0.6830 -0.0096
25201SOL     OW77276   3.770   9.661   3.146 -0.4488 -0.4672  0.2056
25201SOL    HW177277   3.743   9.651   3.054  0.0311 -1.9167  0.1926
25201SOL    HW277278   3.833   9.733   3.144 -3.4535  2.3481  0.0954
25202SOL     OW77279   8.290   7.365   8.973  0.2949 -0.5170  0.0969
25202SOL    HW177280   8.262   7.394   9.060  0.1155  0.8064 -0.3721
25202SOL    HW277281   8.267   7.439   8.915 -2.0160 -2.3507 -1.5401
25203SOL     OW77282   6.056   6.834   7.962  0.4467  0.0254  0.6985
25203SOL    HW177283   6.140   6.854   8.002  0.5673 -2.0757  1.6529
25203SOL    HW277284   5.992   6.885   8.012  0.7965 -1.1874  2.5031
25204SOL     OW77285   1.462   6.261   8.850  0.0929 -0.0090 -0.0572
25204SOL    HW177286   1.392   6.256   8.915  0.7478 -0.2894  0.6429
25204SOL    HW277287   1.420   6.298   8.773 -0.7225  0.2513  0.4940
25205SOL     OW77288   8.782   7.967   6.478 -0.4131  0.1480 -0.2375
25205SOL    HW177289   8.720   7.931   6.541 -0.0543 -1.2314 -0.6456
25205SOL    HW277290   8.831   7.891   6.446 -0.2482  0.8854 -1.8156
25206SOL     OW77291   0.980   7.987   5.694 -0.2548  0.1939  0.1825
25206SOL    HW177292   1.033   8.067   5.698 -0.6889  0.4967 -0.0841
25206SOL    HW277293   1.041   7.917   5.716  0.0671  0.6266  0.6968
25207SOL     OW77294   3.479   2.815   0.212  0.3521  0.3494 -0.2711
25207SOL    HW177295   3.477   2.878   0.285  1.4997  1.8441 -1.4764
25207SOL    HW277296   3.417   2.747   0.239 -0.3259  1.5593  1.4666
25208SOL     OW77297   2.668   1.098   6.813 -0.0978 -0.1703  0.2838
25208SOL    HW177298   2.586   1.131   6.849  1.1746 -0.4101  3.8468
25208SOL    HW277299   2.661   1.003   6.819 -0.2954 -0.2758 -1.3274
25209SOL     OW77300   5.449   0.778   7.434  0.1975 -0.0223  0.3882
25209SOL    HW177301   5.526   0.741   7.476  0.2295 -0.1062  0.2582
25209SOL    HW277302   5.481   0.859   7.393 -0.0762  0.6402  1.4558
25210SOL     OW77303   5.570   0.309   3.332  0.3708 -0.1086 -0.3154
25210SOL    HW177304   5.588   0.245   3.264 -0.2517  0.1337 -0.7181
25210SOL    HW277305   5.592   0.393   3.292 -2.1042  0.2805 -1.0650
25211SOL     OW77306   7.789   2.452   4.469  0.8820 -0.0282 -0.3952
25211SOL    HW177307   7.733   2.524   4.499  1.5691  0.1610  0.4646
25211SOL    HW277308   7.747   2.373   4.502 -0.3275 -0.1356 -2.0290
25212SOL     OW77309   8.777   2.956   9.663 -0.0381  0.2675  0.3537
25212SOL    HW177310   8.807   2.865   9.667 -0.7294  0.0908  2.3763
25212SOL    HW277311   8.702   2.953   9.604  0.9780 -0.1324 -0.9748
25213SOL     OW77312   1.360   4.660   7.444  0.3411 -0.0040 -0.1310
25213SOL    HW177313   1.381   4.581   7.395  0.1641 -0.3983  0.4143
25213SOL    HW277314   1.437   4.675   7.500  0.6672  0.6090 -0.7236
25214SOL     OW77315   6.757   3.133   1.994  0.1428 -0.1218 -0.4553
25214SOL    HW177316   6.703   3.183   1.933 -0.3913  0.7955  0.7480
25214SOL    HW277317   6.704   3.055   2.014 -0.1444  0.1001 -0.3428
25215SOL     OW77318   2.335   4.992   1.169  0.4786  0.2103  0.3940
25215SOL    HW177319   2.393   5.023   1.238  0.8307 -1.1172  0.7297
25215SOL    HW277320   2.247   5.005   1.203  0.5413  2.1801 -0.0916
25216SOL     OW77321   1.987   9.546   3.216 -0.1433  0.0505 -0.2397
25216SOL    HW177322   1.952   9.626   3.177  0.6955  2.1916  3.0643
25216SOL    HW277323   1.926   9.524   3.286  0.4603 -1.3813 -0.1179
25217SOL     OW77324   4.553   6.136   2.558 -0.1978 -0.3694  0.3471
25217SOL    HW177325   4.475   6.139   2.502  1.6763  2.3719 -2.4773
25217SOL    HW277326   4.540   6.206   2.621  0.1600  0.5211 -0.5319
25218SOL     OW77327   3.187   3.461   1.099 -0.3871  0.0579 -0.7944
25218SOL    HW177328   3.237   3.391   1.057 -1.4692 -1.0400 -0.3094
25218SOL    HW277329   3.207   3.453   1.192 -0.6731  0.2479 -0.7150
25219SOL     OW77330   0.225   3.155   1.501 -0.3684 -0.2645 -0.2040
25219SOL    HW177331   0.273   3.164   1.419 -1.3738  0.4334 -0.7300
25219SOL    HW277332   0.162   3.226   1.501  0.0777  0.1963  1.5176
25220SOL     OW77333   1.266   9.269   6.710 -0.1153 -0.4382  0.4403
25220SOL    HW177334   1.293   9.201   6.649  0.3550  0.0470  0.0954
25220SOL    HW277335   1.335   9.336   6.703  0.9538 -1.1558  2.8268
25221SOL     OW77336   4.381   9.434   2.727  0.5630 -0.4155  0.2952
25221SOL    HW177337   4.403   9.520   2.690 -0.0850 -0.1593  0.4957
25221SOL    HW277338   4.465   9.396   2.752  0.7998  0.4354  0.8088
25222SOL     OW77339   3.232   9.308   0.928  0.3244  0.2030 -0.2128
25222SOL    HW177340   3.211   9.401   0.940  0.3705 -0.0417  2.3700
25222SOL    HW277341   3.327   9.304   0.935  0.4744  0.1060 -1.9183
25223SOL     OW77342   9.160   6.166   8.325 -0.1091  0.0096 -0.0513
25223SOL    HW177343   9.104   6.182   8.401  0.9773 -1.4783  1.1314
25223SOL    HW277344   9.244   6.205   8.348 -0.2929  1.1894 -1.3066
25224SOL     OW77345   9.139   6.218   6.329  0.1130 -0.2724 -0.4227
25224SOL    HW177346   9.182   6.152   6.275 -1.1793 -0.5307 -1.1673
25224SOL    HW277347   9.068   6.252   6.275 -0.4335  0.3682  0.6519
25225SOL     OW77348   6.121   7.038   2.522 -0.4988 -0.4632 -0.2568
25225SOL    HW177349   6.048   6.977   2.534  0.3602 -1.1789  1.6679
25225SOL    HW277350   6.181   6.991   2.464 -0.5734 -0.7735 -0.0884
25226SOL     OW77351   9.652   9.666   0.378 -0.2957 -0.0693  0.1206
25226SOL    HW177352   9.610   9.628   0.301  0.7432 -1.2325  0.1079
25226SOL    HW277353   9.668   9.758   0.353  0.0644 -0.4359 -1.0729
25227SOL     OW77354   6.930   5.086   7.180 -0.3131  0.0884  0.2222
25227SOL    HW177355   7.013   5.101   7.135  0.0666  3.7505  1.8030
25227SOL    HW277356   6.868   5.144   7.137 -1.9970 -2.0666 -0.4648
25228SOL     OW77357   4.507   5.445   6.069 -0.3529  0.6816 -0.3039
25228SOL    HW177358   4.586   5.462   6.017 -1.0414  1.4328 -1.1448
25228SOL    HW277359   4.477   5.532   6.096 -0.9424  0.4142 -0.0765
25229SOL     OW77360   7.233   0.846   4.941  0.1811  0.2344 -0.2030
25229SOL    HW177361   7.282   0.775   4.982 -0.5781 -1.2797 -1.8262
25229SOL    HW277362   7.151   0.851   4.991  0.7601  0.8880  0.7278
25230SOL     OW77363   4.647   4.173   9.025  0.0563  0.4008  0.8489
25230SOL    HW177364   4.595   4.251   9.044 -2.1012 -0.3341 -1.3919
25230SOL    HW277365   4.590   4.100   9.049 -1.0072 -0.4728 -3.4332
25231SOL     OW77366   1.538   5.886   0.476  0.1698  0.0903 -0.0212
25231SOL    HW177367   1.573   5.951   0.537 -1.3472  0.7681  0.1812
25231SOL    HW277368   1.471   5.933   0.427 -2.8159 -1.8365  1.8676
25232SOL     OW77369   5.154   5.927   5.383  0.8405 -0.6284 -0.2390
25232SOL    HW177370   5.243   5.916   5.415  1.5994  1.1570 -1.5696
25232SOL    HW277371   5.161   5.993   5.313 -1.5137 -0.4462 -0.3956
25233SOL     OW77372   6.264   8.556   9.379 -0.6019 -0.1031  0.5930
25233SOL    HW177373   6.295   8.469   9.354  0.6668  0.6338 -0.5351
25233SOL    HW277374   6.181   8.540   9.424  0.0310 -1.9423  1.1868
25234SOL     OW77375   3.109   2.175   5.063  0.1821  0.2272 -0.3995
25234SOL    HW177376   3.156   2.256   5.084 -0.8417  0.6208  0.4572
25234SOL    HW277377   3.084   2.140   5.148  0.2797 -0.8043 -0.7825
25235SOL     OW77378   2.325   3.152   0.956  0.5502 -0.2512  0.5770
25235SOL    HW177379   2.395   3.214   0.938  0.9843 -1.1454 -1.0150
25235SOL    HW277380   2.311   3.106   0.873 -0.0264 -1.9887  1.5711
25236SOL     OW77381   9.565   7.496   3.002 -0.2023 -0.2696 -0.4175
25236SOL    HW177382   9.524   7.572   2.961  1.1864  0.9186  0.2887
25236SOL    HW277383   9.620   7.533   3.071 -1.1972 -2.0817  1.4546
25237SOL     OW77384   3.921   2.291   9.027  0.1084 -0.0766  0.1096
25237SOL    HW177385   3.996   2.323   9.079  0.0160  0.9118 -0.3474
25237SOL    HW277386   3.868   2.369   9.012 -0.6239 -0.6352 -0.2266
25238SOL     OW77387   0.930   0.442   8.676  0.8711  0.2939  0.3138
25238SOL    HW177388   0.908   0.511   8.740 -0.0230 -0.2186  0.5665
25238SOL    HW277389   0.974   0.375   8.728 -1.0131 -0.7221  0.6795
25239SOL     OW77390   3.410   6.482   7.781  0.8769 -0.2414 -0.2028
25239SOL    HW177391   3.394   6.407   7.837  0.7844 -0.7759 -0.9318
25239SOL    HW277392   3.441   6.551   7.840  0.6339 -0.7437  0.5139
25240SOL     OW77393   7.173   1.601   0.959  0.6096  0.1384 -0.2139
25240SOL    HW177394   7.193   1.690   0.987  0.6701 -0.0320  0.3024
25240SOL    HW277395   7.086   1.583   0.995  1.0680 -0.4042  0.6769
25241SOL     OW77396   3.473   5.664   6.749  0.3231  0.0048 -0.2243
25241SOL    HW177397   3.497   5.587   6.697  2.1167  0.1932  0.2489
25241SOL    HW277398   3.543   5.672   6.813 -1.5421  0.1117  1.9287
25242SOL     OW77399   5.178   3.465   9.067  0.0609 -0.2930 -0.1713
25242SOL    HW177400   5.245   3.495   9.129 -0.1729  0.6472 -0.3624
25242SOL    HW277401   5.118   3.413   9.120 -0.7526  1.4070  0.6617
25243SOL     OW77402   6.652   7.759   3.870 -0.4111 -0.0090 -0.0699
25243SOL    HW177403   6.677   7.852   3.865 -2.4015  0.5222 -1.8957
25243SOL    HW277404   6.714   7.714   3.813  0.0954  0.3071  0.2209
25244SOL     OW77405   6.510   1.306   4.399  0.0871  0.0415  0.0313
25244SOL    HW177406   6.526   1.213   4.415  0.5333  0.5343  2.7972
25244SOL    HW277407   6.584   1.351   4.440 -0.1708  1.6608 -1.1690
25245SOL     OW77408   7.397   0.471   0.816  0.1771 -0.7428 -0.2199
25245SOL    HW177409   7.456   0.547   0.821 -1.2842  0.4360 -0.2992
25245SOL    HW277410   7.421   0.428   0.734  0.5424  0.0418 -0.5325
25246SOL     OW77411   4.728   8.130   6.827  0.4807 -0.7058  0.3935
25246SOL    HW177412   4.775   8.192   6.770  1.1998 -0.3152  1.3906
25246SOL    HW277413   4.711   8.055   6.770  1.4446 -0.4518 -0.2621
25247SOL     OW77414   7.972   4.409   5.720 -0.7053 -0.6107 -0.1847
25247SOL    HW177415   7.955   4.370   5.806 -1.5835  0.7306  0.2725
25247SOL    HW277416   7.897   4.385   5.667 -2.4945  2.3574  0.8036
25248SOL     OW77417   5.702   3.076   7.452 -0.2448  0.1295  0.1409
25248SOL    HW177418   5.723   3.155   7.403  2.0769 -0.6592 -0.2453
25248SOL    HW277419   5.684   3.010   7.385 -2.0162  0.2410  0.4589
25249SOL     OW77420   1.106   1.763   0.379 -0.0590  0.0797 -0.3029
25249SOL    HW177421   1.146   1.677   0.391 -0.2254 -0.0321 -0.5352
25249SOL    HW277422   1.154   1.820   0.438 -1.2010 -0.5562  1.3023
25250SOL     OW77423   8.207   5.075   6.315  0.1242  0.1490  0.5017
25250SOL    HW177424   8.267   5.018   6.266  0.8523  1.1367  0.2191
25250SOL    HW277425   8.129   5.080   6.260  0.9307  1.2518 -0.6010
25251SOL     OW77426   6.377   4.902   8.137 -0.4403 -0.3286  0.2506
25251SOL    HW177427   6.344   4.832   8.080  0.2042 -0.1456 -0.3642
25251SOL    HW277428   6.384   4.978   8.080 -1.5078  0.3629  1.0112
25252SOL     OW77429   0.154   8.648   2.539  0.3749  0.1076 -0.5488
25252SOL    HW177430   0.075   8.695   2.514  1.2876  1.0337 -1.8750
25252SOL    HW277431   0.213   8.716   2.571  0.3548 -0.6805  1.2541
25253SOL     OW77432   9.597   9.591   9.227 -0.2704 -0.2771  0.2953
25253SOL    HW177433   9.509   9.585   9.189 -0.2289  1.0028 -0.0552
25253SOL    HW277434   9.586   9.564   9.318 -0.4234 -3.1857 -0.4911
25254SOL     OW77435   3.385   2.097   5.563 -0.0121  0.1852 -0.3136
25254SOL    HW177436   3.339   2.114   5.646  0.6945 -1.2636  0.4154
25254SOL    HW277437   3.449   2.029   5.585  1.3510  0.9690 -1.6786
25255SOL     OW77438   0.038   6.701   8.250  0.0408 -0.7212  0.2160
25255SOL    HW177439   0.108   6.732   8.308 -0.3161 -3.1579  2.1305
25255SOL    HW277440   0.084   6.674   8.171  1.1028 -0.9171  0.8748
25256SOL     OW77441   4.782   1.060   9.602 -0.0709  0.0044 -0.1775
25256SOL    HW177442   4.809   0.977   9.563  0.3938  0.2900 -0.4646
25256SOL    HW277443   4.779   1.043   9.697  0.1553 -0.3005 -0.2256
25257SOL     OW77444   3.588   9.073   2.733 -0.2306  0.2053  0.1286
25257SOL    HW177445   3.526   9.124   2.786 -3.0300 -1.5989 -1.1650
25257SOL    HW277446   3.654   9.043   2.796 -0.8819  1.8369  1.6920
25258SOL     OW77447   7.144   3.491   0.010 -0.3442  0.4815 -0.3955
25258SOL    HW177448   7.199   3.497  -0.069  3.0149  0.5277  1.7565
25258SOL    HW277449   7.090   3.413  -0.005  0.6010  0.1619 -2.5040
25259SOL     OW77450   7.369   0.974   8.412  0.4559  0.2207 -0.4598
25259SOL    HW177451   7.299   1.040   8.417  0.1785 -0.1045  0.0921
25259SOL    HW277452   7.390   0.969   8.319  0.3072  0.9088 -0.5397
25260SOL     OW77453   0.598   8.176   5.931 -0.3137  0.0559  0.9275
25260SOL    HW177454   0.676   8.121   5.925 -0.4583 -0.1416  0.8258
25260SOL    HW277455   0.540   8.142   5.863 -0.5189  0.1504  1.0556
25261SOL     OW77456   3.989   8.606   4.248 -0.0707 -1.0286 -0.6343
25261SOL    HW177457   3.928   8.666   4.292  0.5000 -1.0812  0.2448
25261SOL    HW277458   3.936   8.529   4.227 -0.2822 -1.1209  0.2239
25262SOL     OW77459   5.147   8.453   4.743  0.0694 -0.0876 -0.2266
25262SOL    HW177460   5.058   8.441   4.709  0.2233 -0.2179 -0.5810
25262SOL    HW277461   5.151   8.546   4.767 -0.7836 -0.4558  1.5484
25263SOL     OW77462   8.231   6.160   2.436  0.6040 -0.2065  0.0120
25263SOL    HW177463   8.205   6.081   2.387 -0.8991  0.9048 -1.1138
25263SOL    HW277464   8.273   6.215   2.370 -0.1955  0.7466  0.2825
25264SOL     OW77465   5.387   6.528   5.927 -0.3088 -0.3653  0.3097
25264SOL    HW177466   5.349   6.611   5.900  0.3883 -0.0208  0.3517
25264SOL    HW277467   5.360   6.465   5.861 -1.7897 -0.3572  0.8820
25265SOL     OW77468   6.051   4.508   7.212  0.2542  0.5218 -0.0230
25265SOL    HW177469   6.131   4.510   7.160  1.4080 -0.7138  1.5917
25265SOL    HW277470   6.077   4.539   7.298 -1.2531  1.0657  0.2655
25266SOL     OW77471   2.134   9.395   4.253  0.0400 -0.3414  0.0155
25266SOL    HW177472   2.188   9.385   4.331  0.6761 -0.2023 -0.3986
25266SOL    HW277473   2.121   9.306   4.221  0.2914 -0.3454 -0.0689
25267SOL     OW77474   1.450   0.234   4.937 -0.0796 -0.4220  0.1700
25267SOL    HW177475   1.515   0.199   4.998  0.8568  0.2673 -0.4036
25267SOL    HW277476   1.365   0.218   4.979  0.3381 -2.7310  0.2550
25268SOL     OW77477   8.523   2.724   2.191  0.3334 -0.3535 -0.4297
25268SOL    HW177478   8.527   2.717   2.286 -1.3964 -0.8933 -0.3484
25268SOL    HW277479   8.486   2.811   2.175  1.1903 -0.0231 -0.6362
25269SOL     OW77480   9.547   7.675   9.174  1.0642 -0.0198 -0.4661
25269SOL    HW177481   9.614   7.666   9.106 -0.3289 -0.6317 -1.8033
25269SOL    HW277482   9.518   7.586   9.191  2.2342 -0.0262  1.8805
25270SOL     OW77483   5.671   2.210   1.009 -0.4249  0.2201 -0.5330
25270SOL    HW177484   5.697   2.301   1.022  0.1112  0.0187 -0.1479
25270SOL    HW277485   5.752   2.160   1.020 -0.4630 -0.2113 -1.9560
25271SOL     OW77486   5.948   6.893   5.473  0.8414 -0.4058 -0.4290
25271SOL    HW177487   5.931   6.904   5.566 -0.3675 -2.2957 -0.3798
25271SOL    HW277488   5.879   6.943   5.430  1.3451  0.3923 -0.3160
25272SOL     OW77489   8.879   3.620   0.123  0.2140  0.8557  0.1827
25272SOL    HW177490   8.812   3.673   0.082 -0.9502 -0.6961 -0.0252
25272SOL    HW277491   8.940   3.599   0.052 -0.6010  0.0138 -0.3034
25273SOL     OW77492   0.870   3.178   6.564  0.1411  0.0786  0.9398
25273SOL    HW177493   0.837   3.268   6.569  0.6220  0.3219 -0.1041
25273SOL    HW277494   0.921   3.168   6.645  1.8775  1.5029  0.0982
25274SOL     OW77495   2.089   9.372   4.792 -0.0413 -0.0664 -0.2055
25274SOL    HW177496   2.064   9.453   4.746  1.9737  1.2193  0.7941
25274SOL    HW277497   2.132   9.319   4.725  3.5502  2.1019  0.1488
25275SOL     OW77498   2.324   6.806   5.131  0.3078 -0.2325 -0.3959
25275SOL    HW177499   2.419   6.806   5.146  0.1867  0.7824  0.5505
25275SOL    HW277500   2.287   6.839   5.213 -0.8624 -0.5032 -0.7960
25276SOL     OW77501   5.135   6.205   0.597 -0.0948 -0.5849  0.2876
25276SOL    HW177502   5.135   6.121   0.551 -5.6521 -0.4877 -0.6275
25276SOL    HW277503   5.166   6.267   0.531  2.5893 -1.5721  0.4819
25277SOL     OW77504   5.640   7.219   4.430 -0.4907  0.0143 -0.3431
25277SOL    HW177505   5.682   7.294   4.388  0.1543  1.1520  2.1340
25277SOL    HW277506   5.702   7.147   4.418  0.2043  0.5963 -0.3353
25278SOL     OW77507   8.283   1.610   9.129  0.0402  0.1007  0.1750
25278SOL    HW177508   8.298   1.664   9.207 -0.7587  0.4877  0.0729
25278SOL    HW277509   8.189   1.594   9.129  0.3507 -2.0863  0.7051
25279SOL     OW77510   1.798   7.084   7.988 -0.2507  0.0603 -0.0151
25279SOL    HW177511   1.777   7.146   7.918 -1.6382  0.2982  0.5643
25279SOL    HW277512   1.819   7.139   8.064  0.2943 -0.1918  0.0235
25280SOL     OW77513   4.595   3.925   3.024 -0.4060  0.2851  0.4297
25280SOL    HW177514   4.552   3.953   2.943  1.1028 -0.6509 -0.7402
25280SOL    HW277515   4.570   3.833   3.034  1.3890 -0.3431 -0.3865
25281SOL     OW77516   6.477   8.094   1.673 -0.2984  0.6222 -0.5375
25281SOL    HW177517   6.505   8.010   1.637  1.3959  0.4834  0.9441
25281SOL    HW277518   6.483   8.155   1.600  2.1642  0.1904 -0.7720
25282SOL     OW77519   1.544   3.276   4.974  0.1624 -0.1984  0.3346
25282SOL    HW177520   1.490   3.207   5.012 -1.2375 -0.1600 -1.4615
25282SOL    HW277521   1.482   3.337   4.936  1.4390  0.2109 -1.2058
25283SOL     OW77522   2.528   1.407   3.678 -0.6792 -0.3828  0.4640
25283SOL    HW177523   2.487   1.422   3.764 -0.2211  0.1410  0.5995
25283SOL    HW277524   2.622   1.420   3.694 -0.5877 -0.3095 -0.1075
25284SOL     OW77525   5.156   4.719   1.304  0.3048  0.0568 -0.4627
25284SOL    HW177526   5.087   4.662   1.338  1.4606 -0.9260  0.3247
25284SOL    HW277527   5.118   4.807   1.308 -0.1857 -0.1774  2.0449
25285SOL     OW77528   8.519   2.399   8.880  0.1816 -0.0283 -0.1556
25285SOL    HW177529   8.523   2.305   8.898  0.7783  0.0811  0.3059
25285SOL    HW277530   8.600   2.434   8.917  1.2678  0.2903 -2.6813
25286SOL     OW77531   1.803   8.262   0.814  0.3544  0.1381 -0.2535
25286SOL    HW177532   1.847   8.314   0.746 -0.9083  0.5198 -0.8064
25286SOL    HW277533   1.752   8.198   0.766 -0.3482  0.2366  0.3431
25287SOL     OW77534   2.728   9.114   7.275  0.1105 -0.1824 -0.2193
25287SOL    HW177535   2.760   9.163   7.351  1.0027  0.7445 -1.1582
25287SOL    HW277536   2.785   9.037   7.271 -0.8540 -0.9983  0.8535
25288SOL     OW77537   9.086   9.315   3.778 -0.3710  0.0412  0.4964
25288SOL    HW177538   9.015   9.280   3.724  0.8309 -0.5641 -0.7482
25288SOL    HW277539   9.139   9.367   3.717  0.1567  0.6464  1.4487
25289SOL     OW77540   0.822   3.751   5.081 -0.0963  0.0287 -0.4269
25289SOL    HW177541   0.761   3.680   5.065  0.6821 -0.6028 -0.6731
25289SOL    HW277542   0.831   3.794   4.996  1.9018 -1.6090 -1.1440
25290SOL     OW77543   4.700   8.503   3.806  0.3429 -0.1156 -0.7313
25290SOL    HW177544   4.708   8.411   3.783  1.7665  0.1411 -1.4046
25290SOL    HW277545   4.685   8.547   3.722 -1.1860  0.1964 -0.3160
25291SOL     OW77546   5.512   7.863   0.954  0.2400 -0.1174  0.2434
25291SOL    HW177547   5.559   7.913   0.888 -2.2010  1.4496 -0.4347
25291SOL    HW277548   5.452   7.807   0.904 -0.8863  0.3044  1.0707
25292SOL     OW77549   5.100   8.520   6.741  0.4001  0.0380  0.5224
25292SOL    HW177550   5.058   8.594   6.697 -2.0145 -0.3433  1.9848
25292SOL    HW277551   5.146   8.559   6.816 -0.4744  0.1492  1.0195
25293SOL     OW77552   4.589   2.659   6.128  0.2874 -0.2190  0.2693
25293SOL    HW177553   4.556   2.585   6.180  0.9760 -0.1646  0.7930
25293SOL    HW277554   4.575   2.632   6.037 -0.8674 -0.3488  0.4690
25294SOL     OW77555   1.376   7.134   4.270 -0.2105 -0.2791 -0.0687
25294SOL    HW177556   1.467   7.142   4.242 -0.0299  0.3328  0.6698
25294SOL    HW277557   1.374   7.054   4.322 -0.2676 -0.7019 -0.7027
25295SOL     OW77558   3.427   3.786   2.760 -0.2186 -0.3364 -0.1582
25295SOL    HW177559   3.392   3.844   2.827  0.9104 -0.1768  0.3179
25295SOL    HW277560   3.452   3.707   2.807  1.5465  0.1666 -0.1696
25296SOL     OW77561   8.157   6.562   1.695 -0.1296 -0.3431 -0.7813
25296SOL    HW177562   8.123   6.651   1.705 -0.7514 -0.6558  0.0844
25296SOL    HW277563   8.250   6.574   1.676  0.2735  0.4922  1.4196
25297SOL     OW77564   2.661   1.723   5.539 -0.0244  0.2385 -0.3127
25297SOL    HW177565   2.623   1.747   5.623 -0.7577  2.2445 -1.1699
25297SOL    HW277566   2.704   1.803   5.507  1.9048 -0.9895 -1.0152
25298SOL     OW77567   6.195   6.638   6.379  0.4761  0.1160 -0.1971
25298SOL    HW177568   6.175   6.546   6.364 -1.1406  0.5478 -0.9532
25298SOL    HW277569   6.197   6.677   6.291  0.4340  0.9258  0.1462
25299SOL     OW77570   0.707   8.741   5.671 -0.0288 -0.4616  0.3471
25299SOL    HW177571   0.693   8.835   5.659 -2.1178 -0.5746  1.4087
25299SOL    HW277572   0.718   8.730   5.765  1.0325 -1.2192  0.1494
25300SOL     OW77573   3.921   0.990   2.178 -0.4226  0.1261  0.5190
25300SOL    HW177574   3.921   1.072   2.128 -0.5997  0.6934  1.4329
25300SOL    HW277575   3.963   0.927   2.119 -0.4659  0.8184 -0.2792
25301SOL     OW77576   0.904   8.043   0.247 -0.5083 -0.2761 -0.4535
25301SOL    HW177577   0.861   7.960   0.269 -2.1260  0.2666 -1.4199
25301SOL    HW277578   0.857   8.109   0.299  0.3658  0.1257 -0.1550
25302SOL     OW77579   6.652   9.181   0.707 -0.0486  0.0331 -0.3411
25302SOL    HW177580   6.706   9.105   0.724  1.1710  0.5410 -1.7330
25302SOL    HW277581   6.702   9.234   0.645 -1.6766  1.0477 -0.8863
25303SOL     OW77582   5.687   9.306   3.134 -0.1796 -0.0565  0.2505
25303SOL    HW177583   5.612   9.256   3.166 -0.1021  0.4191  1.1910
25303SOL    HW277584   5.652   9.356   3.060 -0.5439 -0.6023  0.0494
25304SOL     OW77585   4.617   5.073   9.338  0.2990 -0.2267 -0.0575
25304SOL    HW177586   4.673   5.063   9.261  0.1094 -0.7771 -0.1266
25304SOL    HW277587   4.666   5.131   9.396  1.8042 -2.1605  0.6986
25305SOL     OW77588   0.407   5.196   8.197 -0.5666 -0.3816 -0.0225
25305SOL    HW177589   0.346   5.269   8.187 -0.3961 -0.0580  1.2428
25305SOL    HW277590   0.352   5.123   8.227 -0.4114 -0.2280  0.6334
25306SOL     OW77591   5.255   7.440   5.068  0.3586  0.0375 -0.1489
25306SOL    HW177592   5.309   7.363   5.088  1.7418  0.8838 -0.4562
25306SOL    HW277593   5.316   7.500   5.025 -0.9328  0.9248 -0.7749
25307SOL     OW77594   8.711   3.907   0.621  0.2208 -0.6590 -0.1753
25307SOL    HW177595   8.772   3.973   0.585 -1.0308  0.1395 -0.9199
25307SOL    HW277596   8.756   3.824   0.608  1.2181 -0.0830 -0.5751
25308SOL     OW77597   1.081   5.092   4.809  0.2901  0.1970  0.4797
25308SOL    HW177598   1.056   5.181   4.835 -0.8509  0.0884 -0.1692
25308SOL    HW277599   1.151   5.068   4.870  2.1515  2.3249 -0.6810
25309SOL     OW77600   3.159   4.194   1.736  0.6316  0.2176 -0.7048
25309SOL    HW177601   3.204   4.260   1.684  0.4256  1.9659  1.1814
25309SOL    HW277602   3.072   4.187   1.696  0.3434  1.8065 -0.4326
25310SOL     OW77603   2.211   6.628   7.548  0.3999  0.2436 -0.1093
25310SOL    HW177604   2.148   6.576   7.598 -0.3935  2.1570  0.9462
25310SOL    HW277605   2.260   6.563   7.497 -0.4521 -1.5464  1.2488
25311SOL     OW77606   3.122   2.602   1.849 -0.2575  0.5155 -0.1987
25311SOL    HW177607   3.185   2.673   1.860 -2.7881  2.7637  0.8250
25311SOL    HW277608   3.159   2.529   1.899  0.9088  2.1401  1.4254
25312SOL     OW77609   1.368   0.872   4.718  0.4847 -0.2173  0.1057
25312SOL    HW177610   1.310   0.913   4.783 -0.8807  0.5614 -1.5135
25312SOL    HW277611   1.416   0.806   4.767 -1.6604 -0.7843  1.6000
25313SOL     OW77612   5.857   3.449   7.485  0.4444  0.4556 -0.3731
25313SOL    HW177613   5.904   3.386   7.539 -1.2907 -0.3132  0.3085
25313SOL    HW277614   5.806   3.396   7.424 -0.3516  1.2259 -0.3972
25314SOL     OW77615   1.695   1.464   9.184 -0.1289  0.7661 -0.2692
25314SOL    HW177616   1.652   1.547   9.207 -1.6655  0.5250 -2.0128
25314SOL    HW277617   1.754   1.488   9.112 -1.5223  0.1983 -1.6588
25315SOL     OW77618   6.728   2.761   9.593 -0.3323 -0.0135 -0.0687
25315SOL    HW177619   6.691   2.800   9.514  2.5483  0.1601 -1.4888
25315SOL    HW277620   6.746   2.835   9.650 -1.8153 -0.0735  0.5010
25316SOL     OW77621   7.764   6.452   1.736 -0.3929 -0.7068 -0.1708
25316SOL    HW177622   7.845   6.418   1.775 -0.4791 -0.6673  0.0469
25316SOL    HW277623   7.732   6.515   1.801 -0.9279 -1.1817  0.0352
25317SOL     OW77624   5.454   2.515   2.284  0.4021 -0.0007 -0.8144
25317SOL    HW177625   5.450   2.532   2.189 -0.6894  1.0318 -0.6155
25317SOL    HW277626   5.423   2.425   2.294  0.0866  0.0331 -1.4198
25318SOL     OW77627   2.948   4.218   0.981 -0.2776 -0.7876  0.2011
25318SOL    HW177628   2.917   4.307   0.963  0.4648  0.1287  2.9607
25318SOL    HW277629   2.871   4.170   1.010 -0.4263 -0.6492  0.0330
25319SOL     OW77630   6.010   6.487   3.566  0.1929 -0.3197 -0.1895
25319SOL    HW177631   6.029   6.454   3.654 -0.2077 -0.7373 -0.2522
25319SOL    HW277632   6.028   6.412   3.509 -0.9918 -0.5305 -0.3109
25320SOL     OW77633   2.907   1.349   9.090  0.0104  0.4114 -0.1268
25320SOL    HW177634   2.915   1.277   9.026  0.0560 -1.1242  1.5319
25320SOL    HW277635   2.885   1.425   9.037  2.4141 -0.2582 -2.2637
25321SOL     OW77636   9.432   2.338   9.320  0.5758 -0.6284 -0.3629
25321SOL    HW177637   9.412   2.303   9.233  2.2414  0.3058 -1.1703
25321SOL    HW277638   9.507   2.287   9.350  2.4014  1.4456 -1.1345
25322SOL     OW77639   6.181   1.649   2.929  0.0323 -0.1241  0.6121
25322SOL    HW177640   6.128   1.726   2.950 -0.9646 -0.8337  0.7871
25322SOL    HW277641   6.195   1.606   3.014  0.8614  0.0343  0.5593
25323SOL     OW77642   4.187   3.159   9.154 -0.1147  0.1074 -0.1058
25323SOL    HW177643   4.178   3.254   9.165  0.7509  0.7996 -4.0155
25323SOL    HW277644   4.097   3.127   9.151 -0.4437  0.3615  3.1192
25324SOL     OW77645   0.913   3.788   0.554 -0.0227  0.6406 -0.0949
25324SOL    HW177646   1.007   3.803   0.539  0.3138  0.0118  1.2144
25324SOL    HW277647   0.900   3.695   0.535 -0.1626  0.4946  0.6838
25325SOL     OW77648   8.187   3.105   5.592 -0.0660  0.0454  0.0737
25325SOL    HW177649   8.109   3.059   5.559  0.1676 -0.1327 -0.2346
25325SOL    HW277650   8.172   3.113   5.686  0.4333 -1.7426  0.3389
25326SOL     OW77651   6.727   8.439   8.598 -0.2757  0.1854 -0.3903
25326SOL    HW177652   6.651   8.432   8.656  0.0590  1.5525  0.2678
25326SOL    HW277653   6.758   8.349   8.588 -2.3623 -0.5026 -1.2246
25327SOL     OW77654   1.518   8.574   1.255  0.1118 -0.3209 -0.6171
25327SOL    HW177655   1.530   8.550   1.347 -0.2047 -1.3098 -0.8250
25327SOL    HW277656   1.431   8.614   1.252  0.1872 -0.1421 -0.4651
25328SOL     OW77657   0.737   0.159   6.488 -0.1951  0.7556  0.4848
25328SOL    HW177658   0.710   0.212   6.562 -2.1358 -0.6823  0.8839
25328SOL    HW277659   0.791   0.089   6.528  0.3450  1.0429  0.2723
25329SOL     OW77660   3.599   5.128   5.459  0.5450  0.4709 -0.3682
25329SOL    HW177661   3.561   5.090   5.380  1.2744 -0.6952 -0.1768
25329SOL    HW277662   3.562   5.077   5.531  2.0147 -0.3512 -0.1495
25330SOL     OW77663   0.917   0.659   8.854 -0.4446  0.2770 -0.1233
25330SOL    HW177664   0.852   0.730   8.848 -0.0222  0.6568 -0.2593
25330SOL    HW277665   1.001   0.702   8.839 -0.2201 -0.3387 -0.6600
25331SOL     OW77666   8.286   6.950   0.353  0.1154 -0.3059  0.5077
25331SOL    HW177667   8.378   6.922   0.349  0.1773 -0.1655  0.8901
25331SOL    HW277668   8.274   7.002   0.274  0.3004 -0.5189  0.3366
25332SOL     OW77669   6.831   1.485   7.527  0.2052  0.1392  0.2339
25332SOL    HW177670   6.742   1.517   7.517  0.2248  0.3641  0.7482
25332SOL    HW277671   6.847   1.432   7.448 -0.3705  0.1113  0.1350
25333SOL     OW77672   2.930   6.451   6.974  0.2880  0.2682 -0.7832
25333SOL    HW177673   2.978   6.533   6.960 -2.1930  1.9054 -0.4483
25333SOL    HW277674   2.843   6.479   7.001 -0.4967 -2.5413 -0.0636
25334SOL     OW77675   2.936   3.071   5.718 -0.1447  0.1545 -0.1423
25334SOL    HW177676   2.940   3.068   5.623 -0.2724 -0.3197 -0.1383
25334SOL    HW277677   2.930   2.979   5.745  0.5940  0.2407  0.3567
25335SOL     OW77678   6.383   5.950   7.667 -0.4328 -0.3558  0.3210
25335SOL    HW177679   6.474   5.977   7.675 -0.2432 -0.1088 -1.9023
25335SOL    HW277680   6.333   6.023   7.705  0.2563  0.4717 -0.3220
25336SOL     OW77681   8.903   0.157   1.530  0.6488 -0.1485  0.0989
25336SOL    HW177682   8.943   0.223   1.588  1.0909  1.8487 -2.2978
25336SOL    HW277683   8.971   0.090   1.521  1.2219  0.3457  0.5659
25337SOL     OW77684   0.142   3.078   4.417 -0.0474  0.2527  0.4318
25337SOL    HW177685   0.099   3.064   4.333 -0.7140  1.0252  0.6314
25337SOL    HW277686   0.070   3.082   4.480  0.4685 -0.8793  1.1379
25338SOL     OW77687   0.219   8.518   8.786  0.0145 -0.0613 -0.3112
25338SOL    HW177688   0.236   8.606   8.819  3.0743 -0.8344  0.4926
25338SOL    HW277689   0.306   8.479   8.774 -1.0784 -1.8731 -3.8755
25339SOL     OW77690   9.387   5.236   5.295  0.0319 -0.2629 -0.1260
25339SOL    HW177691   9.401   5.240   5.389 -1.5251 -1.2986  0.1816
25339SOL    HW277692   9.432   5.314   5.261  1.0638 -0.1565  1.3850
25340SOL     OW77693   0.282   4.892   3.753  0.1237 -0.2017 -0.0681
25340SOL    HW177694   0.333   4.964   3.715 -0.0367  0.2136  0.4790
25340SOL    HW277695   0.239   4.851   3.679  0.4743  0.0692 -0.4259
25341SOL     OW77696   7.888   4.113   6.382 -0.3722  0.1364 -0.5422
25341SOL    HW177697   7.866   4.078   6.296 -1.2285  0.2766 -0.3903
25341SOL    HW277698   7.805   4.147   6.416 -0.4575 -1.4796  1.0527
25342SOL     OW77699   8.890   0.582   5.393  0.2159 -0.5717 -0.7547
25342SOL    HW177700   8.970   0.531   5.383  0.2206 -0.2338 -2.9801
25342SOL    HW277701   8.918   0.661   5.438  0.3716 -2.0411  1.9252
25343SOL     OW77702   1.885   6.740   4.597 -0.3258  0.4070  0.1497
25343SOL    HW177703   1.817   6.795   4.635  0.1410 -0.1354  1.8671
25343SOL    HW277704   1.842   6.657   4.579 -0.3808  0.4278  0.1857
25344SOL     OW77705   4.775   1.001   1.875  0.1632 -0.0495  0.0747
25344SOL    HW177706   4.801   0.931   1.815  0.2208  0.5516 -0.6213
25344SOL    HW277707   4.839   0.996   1.946  0.6123 -0.2417 -0.3344
25345SOL     OW77708   2.788   4.423   8.491  0.4163 -0.4029 -0.1410
25345SOL    HW177709   2.796   4.440   8.585 -0.0483 -1.1165  0.0334
25345SOL    HW277710   2.869   4.378   8.468  1.3170  1.2701 -0.4554
25346SOL     OW77711   6.009   8.654   5.613 -0.5322 -0.2087  1.0148
25346SOL    HW177712   5.944   8.585   5.600 -1.5976  0.8367  0.6414
25346SOL    HW277713   6.009   8.669   5.708 -0.1796 -0.8058  1.1181
25347SOL     OW77714   5.828   0.477   8.821  0.2447  0.4999 -0.1344
25347SOL    HW177715   5.922   0.467   8.839 -0.1068 -2.0110  0.7392
25347SOL    HW277716   5.790   0.501   8.906 -0.1913 -1.2739  0.2104
25348SOL     OW77717   8.979   2.857   8.566  0.3285  0.7131  0.2464
25348SOL    HW177718   8.906   2.918   8.576  0.4617  0.9201 -0.0136
25348SOL    HW277719   9.016   2.878   8.480 -0.0913 -0.2552 -0.1817
25349SOL     OW77720   0.618   7.035   9.169 -0.3013 -0.1738 -0.0476
25349SOL    HW177721   0.687   7.099   9.191 -0.3426 -0.6420  1.6088
25349SOL    HW277722   0.582   7.066   9.087  0.1764  1.5410  0.3437
25350SOL     OW77723   8.246   0.315   4.211  0.4191  0.4091  0.0891
25350SOL    HW177724   8.228   0.312   4.117 -0.6563 -1.0984  0.3043
25350SOL    HW277725   8.173   0.267   4.251  1.3416  0.2218  1.6312
25351SOL     OW77726   6.882   5.367   2.450  0.1464 -0.2319 -0.2101
25351SOL    HW177727   6.887   5.286   2.501  0.9174  0.4197  0.7878
25351SOL    HW277728   6.968   5.408   2.461  1.0258 -0.8871 -3.5124
25352SOL     OW77729   1.150   7.973   4.280 -0.5998  0.3845 -1.1211
25352SOL    HW177730   1.166   7.993   4.373  0.4976 -2.3281 -0.6242
25352SOL    HW277731   1.231   7.999   4.236  0.8846 -2.7080 -0.4561
25353SOL     OW77732   1.835   5.670   8.930  0.1198  0.1818 -0.0980
25353SOL    HW177733   1.748   5.682   8.968  0.6416 -0.4150  1.3541
25353SOL    HW277734   1.895   5.707   8.995  0.9810  0.2479 -0.9063
25354SOL     OW77735   5.994   1.601   7.289 -0.2325  0.1197  0.2536
25354SOL    HW177736   5.931   1.558   7.347  0.0607 -0.7129 -0.0300
25354SOL    HW277737   6.079   1.564   7.315  0.2003  1.5105  0.8965
25355SOL     OW77738   0.914   1.275   3.623  0.3002 -0.4461  0.3677
25355SOL    HW177739   0.875   1.351   3.666  1.6171  0.7177 -0.4314
25355SOL    HW277740   0.936   1.305   3.535 -1.0009 -2.3509 -0.6940
25356SOL     OW77741   3.174   4.980   5.962  0.3252  0.2205  0.0814
25356SOL    HW177742   3.147   4.940   5.879 -0.6328 -0.6165  0.7717
25356SOL    HW277743   3.171   5.074   5.945  2.6386  0.0997 -1.5838
25357SOL     OW77744   7.299   2.765   3.410 -0.4755 -0.7605  0.2213
25357SOL    HW177745   7.293   2.860   3.412 -2.0040 -0.8433  1.5200
25357SOL    HW277746   7.210   2.735   3.396 -0.2015 -2.0158  1.0031
25358SOL     OW77747   6.900   3.754   0.877 -0.3515  0.1455 -0.3121
25358SOL    HW177748   6.958   3.711   0.813 -2.0085  0.2156 -1.9363
25358SOL    HW277749   6.896   3.845   0.849 -1.1671  0.1633 -0.1601
25359SOL     OW77750   6.921   7.226   8.126  0.7155 -0.4018 -0.6300
25359SOL    HW177751   6.889   7.314   8.148 -1.8097 -1.1830 -0.9013
25359SOL    HW277752   6.946   7.188   8.210  1.0586  0.2977 -0.4103
25360SOL     OW77753   3.471   7.757   7.372  0.1139  0.0786  0.8026
25360SOL    HW177754   3.446   7.683   7.317  0.6119  1.2811 -1.1516
25360SOL    HW277755   3.394   7.776   7.425 -0.9713 -0.1836 -0.6090
25361SOL     OW77756   3.470   4.363   7.266  0.5859  0.3582 -0.0883
25361SOL    HW177757   3.528   4.315   7.326  2.1758 -0.3215 -2.0403
25361SOL    HW277758   3.409   4.297   7.234  0.2497  0.5389  0.1774
25362SOL     OW77759   8.994   9.065   5.867  0.2384  0.5292  0.3887
25362SOL    HW177760   9.059   9.134   5.883  0.2027  0.5721  0.3478
25362SOL    HW277761   9.040   8.983   5.884  1.1780  0.3860 -2.4096
25363SOL     OW77762   5.111   0.707   3.714 -0.1107  0.2425  0.5509
25363SOL    HW177763   5.126   0.612   3.719  0.0215  0.2375  0.0848
25363SOL    HW277764   5.042   0.723   3.778 -0.4073 -0.2323  0.3607
25364SOL     OW77765   0.285   3.884   7.490 -0.0027 -0.1724 -0.3508
25364SOL    HW177766   0.332   3.851   7.413  2.2171  1.7629  0.0665
25364SOL    HW277767   0.223   3.948   7.455  0.7759  0.4677 -0.5947
25365SOL     OW77768   9.233   3.003   5.216  0.0173 -0.0792  0.3730
25365SOL    HW177769   9.263   3.012   5.125 -1.8387 -1.2089 -0.4252
25365SOL    HW277770   9.186   3.085   5.234 -2.0407 -0.9245 -0.7561
25366SOL     OW77771   5.074   4.940   0.547 -0.4276  0.4100  0.7656
25366SOL    HW177772   5.100   4.949   0.639 -1.9769  0.7328  1.1983
25366SOL    HW277773   5.040   4.851   0.540  0.4116  0.1168  0.2997
25367SOL     OW77774   9.309   7.252   4.635 -0.1238 -0.2253 -0.3389
25367SOL    HW177775   9.361   7.261   4.715 -1.9496 -0.2915  0.9245
25367SOL    HW277776   9.224   7.291   4.658 -0.8764 -0.7894 -2.0573
25368SOL     OW77777   1.738   9.252   3.189 -0.2531 -0.1562  0.5696
25368SOL    HW177778   1.716   9.345   3.196  3.2257  0.8365  0.4035
25368SOL    HW277779   1.764   9.240   3.098  0.2525 -1.0212  0.8105
25369SOL     OW77780   1.641   1.773   7.018  0.2587 -0.2356 -0.3784
25369SOL    HW177781   1.653   1.720   7.097  2.0451 -2.1596 -1.8174
25369SOL    HW277782   1.585   1.720   6.961 -1.2916  1.2729 -0.3457
25370SOL     OW77783   6.499   9.016   1.542  0.4494  0.2837 -0.1437
25370SOL    HW177784   6.568   9.080   1.525  0.2162  0.8001  0.7511
25370SOL    HW277785   6.506   8.953   1.471  0.6082  1.3742 -1.1329
25371SOL     OW77786   0.294   7.817   2.176  0.5689  0.0472 -0.0035
25371SOL    HW177787   0.362   7.769   2.129  0.8913 -0.5383  1.0409
25371SOL    HW277788   0.217   7.761   2.171  0.7526 -0.2664  0.6181
25372SOL     OW77789   6.854   0.830   9.201 -0.3417  0.4634 -0.2759
25372SOL    HW177790   6.934   0.866   9.238 -0.7810  1.7906 -0.5500
25372SOL    HW277791   6.876   0.740   9.176  0.6559  0.3671  0.9022
25373SOL     OW77792   8.370   8.000   6.695  0.7497 -0.1566  0.4914
25373SOL    HW177793   8.286   7.963   6.669  0.6275 -0.2321  0.9952
25373SOL    HW277794   8.370   7.997   6.791  0.9141  0.7546  0.5284
25374SOL     OW77795   4.184   0.373   0.615  0.1031  0.2722 -0.2414
25374SOL    HW177796   4.259   0.431   0.607  0.1874  0.2544  0.3637
25374SOL    HW277797   4.117   0.411   0.558 -0.3658  1.7998  1.2341
25375SOL     OW77798   2.253   4.985   6.870 -0.4593 -0.2535 -0.1975
25375SOL    HW177799   2.226   4.897   6.842  0.3951 -0.9576  1.0828
25375SOL    HW277800   2.300   5.021   6.794  0.7761 -1.6334 -0.1304
25376SOL     OW77801   0.056   5.451   3.575 -0.2933 -0.0111  0.6555
25376SOL    HW177802   0.006   5.508   3.518 -1.4638 -1.7081 -0.0752
25376SOL    HW277803  -0.009   5.393   3.615  0.9188 -1.3715  0.7403
25377SOL     OW77804   3.112   2.015   8.035 -0.7954  0.6832 -0.4907
25377SOL    HW177805   3.041   2.008   7.971 -0.3624 -1.4103 -0.8006
25377SOL    HW277806   3.092   1.949   8.101 -0.9765  2.4700  1.3712
25378SOL     OW77807   7.458   4.373   6.802  0.4447 -0.6661 -0.0474
25378SOL    HW177808   7.374   4.348   6.764 -0.8797  1.2554  1.4506
25378SOL    HW277809   7.454   4.341   6.892  0.2756  1.4032  0.7433
25379SOL     OW77810   6.566   0.554   9.054  0.1674  0.7701  0.3563
25379SOL    HW177811   6.635   0.550   8.988 -0.7386  0.3936 -0.5953
25379SOL    HW277812   6.487   0.574   9.005 -1.0745 -2.3115  0.9079
25380SOL     OW77813   6.267   3.467   2.338 -0.2314 -0.1965 -0.3521
25380SOL    HW177814   6.201   3.406   2.305  0.4973 -0.9811 -0.4060
25380SOL    HW277815   6.239   3.485   2.428  0.5970 -2.2377  0.3829
25381SOL     OW77816   5.008   0.360   2.973 -0.0495 -0.0762 -0.1312
25381SOL    HW177817   5.014   0.381   2.880  0.0352 -0.0241 -0.1134
25381SOL    HW277818   4.914   0.364   2.992  0.0093  0.8860  0.0060
25382SOL     OW77819   0.138   3.250   3.733 -0.3977 -0.3023 -0.1876
25382SOL    HW177820   0.075   3.272   3.801 -0.8733 -0.6668 -0.5037
25382SOL    HW277821   0.096   3.180   3.683 -0.1270  0.0774 -0.9567
25383SOL     OW77822   5.205   4.641   0.386  0.4069  0.2484  0.4358
25383SOL    HW177823   5.267   4.695   0.338  0.3361  0.0664  0.1381
25383SOL    HW277824   5.169   4.581   0.320  0.3301 -0.0187  0.7175
25384SOL     OW77825   8.895   0.221   3.824  0.1210  0.2279 -0.0497
25384SOL    HW177826   8.985   0.202   3.849 -0.1410 -2.7933 -1.0834
25384SOL    HW277827   8.852   0.248   3.905  1.8029  1.3413  0.5208
25385SOL     OW77828   1.600   3.171   3.999 -0.0520 -0.0371  0.0853
25385SOL    HW177829   1.563   3.221   3.926  2.3119 -0.1044 -1.2236
25385SOL    HW277830   1.578   3.080   3.980  1.7635 -0.2214 -1.3777
25386SOL     OW77831   0.471   8.236   4.169 -0.2855  1.0256 -0.2508
25386SOL    HW177832   0.449   8.154   4.124  0.0820  1.2594 -0.8680
25386SOL    HW277833   0.565   8.248   4.152 -0.3120  1.5126 -0.0582
25387SOL     OW77834   3.617   3.735   6.583  0.6096  0.2144 -0.2808
25387SOL    HW177835   3.654   3.804   6.638  1.5361 -0.5739  0.1028
25387SOL    HW277836   3.661   3.655   6.612 -0.2917 -0.5067 -0.8689
25388SOL     OW77837   8.511   9.194   7.597  0.3376  0.3448 -0.4597
25388SOL    HW177838   8.508   9.118   7.655 -0.0032 -0.0177 -0.9364
25388SOL    HW277839   8.544   9.265   7.651 -0.6250  0.1834  0.3727
25389SOL     OW77840   4.018   8.708   2.706 -0.3974 -0.2336 -0.7425
25389SOL    HW177841   3.923   8.702   2.696 -0.4280  0.5821 -1.0130
25389SOL    HW277842   4.050   8.728   2.618 -0.0010 -0.1404 -0.5802
25390SOL     OW77843   5.959   8.887   4.076  0.2481 -0.2280 -0.6048
25390SOL    HW177844   5.947   8.855   3.986 -3.6799  2.3179 -1.2465
25390SOL    HW277845   5.920   8.819   4.131 -0.2302 -0.4071 -1.1560
25391SOL     OW77846   6.587   5.193   1.659 -0.7802  0.1539  0.0864
25391SOL    HW177847   6.632   5.108   1.658  1.1187  1.0839 -1.9172
25391SOL    HW277848   6.557   5.204   1.749  1.3638 -1.4003  1.0649
25392SOL     OW77849   6.035   3.686   1.494  0.4772 -0.0757 -0.0375
25392SOL    HW177850   6.016   3.659   1.584  1.3223 -1.0025 -0.1160
25392SOL    HW277851   6.069   3.607   1.452 -2.0023 -0.3338 -1.8406
25393SOL     OW77852   7.683   9.544   6.119 -0.6403  0.0033 -0.5232
25393SOL    HW177853   7.654   9.460   6.083 -0.9333 -0.4775  0.7693
25393SOL    HW277854   7.759   9.523   6.174 -3.0854 -0.2055  3.1809
25394SOL     OW77855   0.699   8.681   2.624 -0.4989  0.1589  0.3126
25394SOL    HW177856   0.663   8.758   2.581  1.7296  1.2112  0.1947
25394SOL    HW277857   0.730   8.625   2.552 -0.6183 -0.0900  0.4509
25395SOL     OW77858   4.025   4.484   6.944 -0.1588 -0.4645  0.0457
25395SOL    HW177859   4.064   4.404   6.911 -0.4759 -0.0585 -1.3653
25395SOL    HW277860   4.098   4.545   6.952  0.3068 -1.2232  2.3405
25396SOL     OW77861   2.629   8.263   6.543  1.0230  0.0294  0.2889
25396SOL    HW177862   2.720   8.291   6.551  1.1117 -0.0019 -0.5305
25396SOL    HW277863   2.630   8.171   6.569  1.1762  0.1004  0.5403
25397SOL     OW77864   1.924   5.946   5.721 -0.0687  0.3278 -0.5067
25397SOL    HW177865   1.988   6.011   5.751 -0.0327  0.3195 -0.5675
25397SOL    HW277866   1.913   5.888   5.796 -0.6834  0.8579 -0.1767
25398SOL     OW77867   7.229   9.060   5.859 -0.2435 -0.1049 -0.5387
25398SOL    HW177868   7.266   8.972   5.863  0.4866  0.1324 -1.7077
25398SOL    HW277869   7.137   9.048   5.883  0.3209 -0.8396  1.5191
25399SOL     OW77870   1.940   9.100   0.051  0.0491  0.1279 -0.4895
25399SOL    HW177871   1.858   9.052   0.060  0.8847 -1.4623 -1.0025
25399SOL    HW277872   1.937   9.135  -0.039 -0.3847  0.7438 -0.2468
25400SOL     OW77873   0.887   9.350   3.132 -0.3675  0.5064 -0.1295
25400SOL    HW177874   0.932   9.432   3.111 -0.8333  1.0384  0.8442
25400SOL    HW277875   0.821   9.340   3.063  0.8897 -0.0336 -1.2967
25401SOL     OW77876   6.313   7.672   4.659 -0.8316 -0.1214  0.1459
25401SOL    HW177877   6.391   7.725   4.675 -0.4357 -0.0615 -1.7872
25401SOL    HW277878   6.319   7.601   4.723  1.1026 -0.4161 -0.3192
25402SOL     OW77879   9.366   3.461   5.302 -0.4715  0.2285  0.1128
25402SOL    HW177880   9.323   3.492   5.222  2.1164 -0.9747 -1.9170
25402SOL    HW277881   9.460   3.469   5.283  0.3706 -4.2708  1.2218
25403SOL     OW77882   1.293   8.982   7.883 -0.1487 -0.5726 -0.5573
25403SOL    HW177883   1.368   9.042   7.890  0.9362 -1.8601 -0.7332
25403SOL    HW277884   1.239   9.004   7.959 -0.1544  1.0895 -0.9999
25404SOL     OW77885   5.631   3.225   3.694 -0.4542  0.6554  0.4282
25404SOL    HW177886   5.675   3.213   3.610  0.1430 -1.2340  0.9530
25404SOL    HW277887   5.602   3.316   3.693  0.9364  1.1394 -1.1486
25405SOL     OW77888   6.469   7.669   6.994 -0.3973 -0.0435  0.3325
25405SOL    HW177889   6.558   7.641   7.018 -1.1167 -2.5328  0.4118
25405SOL    HW277890   6.426   7.685   7.078 -0.1725  0.6806  0.3122
25406SOL     OW77891   1.926   2.083   7.953  0.1977  0.9367  0.2992
25406SOL    HW177892   1.862   2.029   7.998  0.0739  1.2873  0.5516
25406SOL    HW277893   1.932   2.045   7.865 -0.6676  1.1431  0.1387
25407SOL     OW77894   0.650   6.630   6.043 -0.3197  0.1945  0.3525
25407SOL    HW177895   0.642   6.538   6.067 -0.6878  0.2534  0.4765
25407SOL    HW277896   0.615   6.677   6.119 -1.4580  0.3906 -0.2667
25408SOL     OW77897   5.806   7.383   0.682 -0.0005  0.0844  0.1063
25408SOL    HW177898   5.755   7.308   0.713 -0.2133 -0.4442 -1.4340
25408SOL    HW277899   5.834   7.359   0.594  1.0964  1.2638  0.0940
25409SOL     OW77900   5.945   4.339   9.449  0.6500  0.0568 -0.2922
25409SOL    HW177901   5.963   4.425   9.486 -1.1107  0.0993  0.5993
25409SOL    HW277902   5.974   4.344   9.358  0.9313  1.4568 -0.1373
25410SOL     OW77903   7.489   3.104   1.879 -0.0785  0.3235  0.2128
25410SOL    HW177904   7.507   3.011   1.883 -0.0826  0.3625  1.4030
25410SOL    HW277905   7.456   3.119   1.790  2.0762 -0.4044 -0.7736
25411SOL     OW77906   3.644   4.968   2.793  0.4451 -0.3410 -0.4751
25411SOL    HW177907   3.561   4.934   2.827 -0.3994  0.7377 -1.3544
25411SOL    HW277908   3.707   4.952   2.863  0.3581 -4.4026 -1.0991
25412SOL     OW77909   8.640   8.426   1.763 -0.1796 -0.5127  0.3046
25412SOL    HW177910   8.565   8.477   1.732  0.2190  1.0102  1.7054
25412SOL    HW277911   8.603   8.361   1.823 -0.4892 -0.5210  0.1069
25413SOL     OW77912   9.466   7.795   0.672  0.1768 -0.3987  0.7317
25413SOL    HW177913   9.427   7.824   0.589 -0.5286 -1.5813  0.6203
25413SOL    HW277914   9.552   7.761   0.646 -0.5556 -1.9900  0.2309
25414SOL     OW77915   8.295   4.565   5.151 -0.7281  0.0528  0.0575
25414SOL    HW177916   8.357   4.622   5.197  0.2325 -0.1884 -0.8892
25414SOL    HW277917   8.307   4.479   5.192 -1.1001  0.1952  0.4780
25415SOL     OW77918   6.795   7.267   0.763  0.9238  0.0649 -0.1137
25415SOL    HW177919   6.810   7.360   0.781  1.2816 -0.1151  0.5556
25415SOL    HW277920   6.731   7.266   0.692  0.8961  0.8230 -0.1045
25416SOL     OW77921   5.187   8.343   8.031  0.0058 -0.2691 -0.0885
25416SOL    HW177922   5.100   8.334   8.072 -0.3221  3.0463  0.2171
25416SOL    HW277923   5.241   8.278   8.077 -2.1016 -1.9846  0.1670
25417SOL     OW77924   3.607   8.241   6.518 -0.2277  0.3744  0.3388
25417SOL    HW177925   3.664   8.308   6.480 -0.4389  1.6438  2.1291
25417SOL    HW277926   3.518   8.270   6.494 -0.2634 -0.0039  0.0057
25418SOL     OW77927   7.444   4.239   4.587 -0.1713  0.5864  0.0751
25418SOL    HW177928   7.403   4.154   4.573 -0.4697  0.6774  0.4026
25418SOL    HW277929   7.530   4.231   4.546  0.3659 -0.3394  1.3179
25419SOL     OW77930   2.526   7.725   4.196  0.1014 -0.2562  0.2201
25419SOL    HW177931   2.491   7.760   4.114 -3.5123  0.0632  1.7309
25419SOL    HW277932   2.592   7.789   4.223 -2.2230  2.4475 -0.0054
25420SOL     OW77933   1.831   9.464   6.073 -0.3794 -0.5350  0.6140
25420SOL    HW177934   1.740   9.477   6.047  0.0383 -1.2549 -1.4647
25420SOL    HW277935   1.854   9.542   6.123 -1.5117  0.7049 -0.7213
25421SOL     OW77936   8.598   8.869   4.386  0.0240  0.5847  0.3567
25421SOL    HW177937   8.542   8.873   4.308  1.0412 -1.2198 -0.5291
25421SOL    HW277938   8.685   8.890   4.354  0.6339 -1.1633  0.7707
25422SOL     OW77939   8.639   2.834   3.332 -0.8131 -0.5216 -0.0556
25422SOL    HW177940   8.706   2.797   3.389  0.7325 -0.0989 -1.4962
25422SOL    HW277941   8.569   2.769   3.331  0.7149 -2.2572 -0.5338
25423SOL     OW77942   7.888   8.434   9.337  0.3205  0.0121  0.5951
25423SOL    HW177943   7.927   8.419   9.424  0.7588 -0.0504  0.3928
25423SOL    HW277944   7.908   8.526   9.318  1.3623 -0.3233  0.0092
25424SOL     OW77945   6.679   1.019   3.268 -0.2754  0.4940  1.2494
25424SOL    HW177946   6.651   0.938   3.227  1.0288  0.7646 -0.3062
25424SOL    HW277947   6.760   0.996   3.315 -0.5516  0.6508  1.8088
25425SOL     OW77948   7.133   1.847   2.821  0.6961  0.5637 -0.4178
25425SOL    HW177949   7.213   1.813   2.863  0.1275  0.2310  0.4294
25425SOL    HW277950   7.122   1.792   2.743  1.7607  1.1767 -1.0114
25426SOL     OW77951   9.496   8.003   5.614  0.1493  0.1882  0.6192
25426SOL    HW177952   9.569   7.977   5.671  0.7803  1.7775  0.6019
25426SOL    HW277953   9.537   8.052   5.543 -0.9600  1.7550  0.9959
25427SOL     OW77954   8.319   6.824   6.042 -0.0513  0.6568  0.6754
25427SOL    HW177955   8.359   6.772   5.972 -1.3621  0.4293  0.0820
25427SOL    HW277956   8.281   6.899   5.997 -1.7617  0.0146  0.9983
25428SOL     OW77957   5.463   1.158   2.355 -0.2042  0.6339 -0.1564
25428SOL    HW177958   5.427   1.242   2.382  1.2176  1.5696 -1.0378
25428SOL    HW277959   5.403   1.126   2.288  0.4423  2.0892 -1.4849
25429SOL     OW77960   9.472   4.249   6.776  0.4553 -0.0262  0.2213
25429SOL    HW177961   9.397   4.189   6.785 -0.6097  1.1306 -0.6119
25429SOL    HW277962   9.448   4.306   6.703  2.2538  0.2563 -0.1959
25430SOL     OW77963   3.465   7.638   9.352  0.4429 -0.1709  0.5324
25430SOL    HW177964   3.466   7.709   9.288  1.6361 -0.1115  0.5916
25430SOL    HW277965   3.378   7.598   9.343  0.4387  0.1047 -0.8184
25431SOL     OW77966   6.957   9.049   5.888 -0.5665  0.2158  0.1846
25431SOL    HW177967   6.960   9.031   5.794 -0.0354 -1.1813  0.4475
25431SOL    HW277968   6.891   8.989   5.922  1.7571 -1.9858  1.1986
25432SOL     OW77969   1.588   7.013   5.885 -0.1266  0.3211  0.1758
25432SOL    HW177970   1.633   7.085   5.928 -1.0326  0.3009  1.2121
25432SOL    HW277971   1.548   6.964   5.957 -2.0818  0.5406 -0.6987
25433SOL     OW77972   5.974   4.219   4.791  0.6354 -0.4516  0.0453
25433SOL    HW177973   6.009   4.176   4.870 -0.1196  0.6016  0.9898
25433SOL    HW277974   5.883   4.191   4.786 -0.8414  3.1763  2.4361
25434SOL     OW77975   4.073   3.182   2.271 -0.1200 -0.2048 -0.0319
25434SOL    HW177976   4.117   3.135   2.341  0.2540 -2.2463 -1.5364
25434SOL    HW277977   3.992   3.132   2.255 -0.6858  0.7944 -0.4111
25435SOL     OW77978   3.220   1.305   6.423 -0.0230 -0.0434  0.2349
25435SOL    HW177979   3.280   1.247   6.470 -1.0847 -1.6722 -0.3520
25435SOL    HW277980   3.203   1.261   6.340 -2.3420  0.1121  0.5499
25436SOL     OW77981   6.840   8.823   9.467  0.3623 -0.0942 -0.2400
25436SOL    HW177982   6.836   8.870   9.384 -1.0163 -0.6218 -0.4837
25436SOL    HW277983   6.862   8.891   9.531 -1.0683  0.8132 -0.6628
25437SOL     OW77984   8.550   3.469   2.648 -0.1223  1.0544 -0.6040
25437SOL    HW177985   8.563   3.520   2.568  1.8630 -1.6324 -2.1527
25437SOL    HW277986   8.625   3.410   2.652 -1.2863 -0.4482  2.0701
25438SOL     OW77987   5.217   6.839   9.047 -0.5801  0.2175 -0.0898
25438SOL    HW177988   5.234   6.765   8.989  2.0054  1.4618 -1.0916
25438SOL    HW277989   5.302   6.883   9.056 -1.7734  2.4626  1.3175
25439SOL     OW77990   6.869   6.327   3.298 -0.1960 -0.3211  0.2121
25439SOL    HW177991   6.917   6.268   3.239  0.3678 -0.0936  0.4359
25439SOL    HW277992   6.877   6.413   3.256 -0.3332 -0.2684  0.2956
25440SOL     OW77993   0.453   4.691   2.727 -0.1186 -0.3195 -0.2412
25440SOL    HW177994   0.384   4.693   2.660 -0.4631 -0.2840  0.1159
25440SOL    HW277995   0.455   4.780   2.762  0.8949 -0.0064 -1.0441
25441SOL     OW77996   0.511   5.540   8.794 -0.0867 -0.6372 -0.0306
25441SOL    HW177997   0.528   5.631   8.820 -0.4172  0.4790 -3.2338
25441SOL    HW277998   0.598   5.501   8.786  0.1772  0.0308 -0.5462
25442SOL     OW77999   2.629   8.137   4.349  0.3208  0.4452  0.1215
25442SOL    HW178000   2.621   8.186   4.267  1.9762  0.1448 -0.2677
25442SOL    HW278001   2.563   8.174   4.407 -0.8760  0.6659 -1.3455
25443SOL     OW78002   4.245   2.548   8.516 -0.3067 -0.4784 -0.3041
25443SOL    HW178003   4.171   2.510   8.470  1.2256 -2.2254 -1.4710
25443SOL    HW278004   4.315   2.483   8.507  1.5724  1.3611  0.1850
25444SOL     OW78005   9.122   2.920   9.519 -0.0097 -0.7092  0.3493
25444SOL    HW178006   9.095   2.833   9.548 -2.3753 -0.3311 -0.5030
25444SOL    HW278007   9.142   2.909   9.426 -2.4286 -0.0205 -0.3306
25445SOL     OW78008   6.842   8.781   0.509  0.3105  0.4962 -0.3678
25445SOL    HW178009   6.913   8.721   0.487 -1.7161 -1.2992 -2.4958
25445SOL    HW278010   6.781   8.775   0.435 -2.7377  0.8712  1.9246
25446SOL     OW78011   7.111   3.183   4.217  0.1935 -0.6802  0.2494
25446SOL    HW178012   7.029   3.230   4.202 -0.6422 -1.7461  1.2546
25446SOL    HW278013   7.132   3.142   4.133 -1.3390 -1.9244  0.4201
25447SOL     OW78014   2.956   2.628   9.055  0.6304 -0.4013 -0.6903
25447SOL    HW178015   2.905   2.651   9.133 -1.2183 -0.1017 -1.9428
25447SOL    HW278016   2.894   2.584   8.998  2.0718 -1.0185 -1.8275
25448SOL     OW78017   4.626   8.204   2.723  0.1719 -0.1049  0.1859
25448SOL    HW178018   4.691   8.196   2.792 -0.5628 -1.1639  0.7778
25448SOL    HW278019   4.666   8.264   2.660  0.7765  1.0389  1.5957
25449SOL     OW78020   3.778   5.752   1.800  0.3451  0.0519  0.6739
25449SOL    HW178021   3.835   5.796   1.737 -0.4002  0.8377  0.5289
25449SOL    HW278022   3.728   5.822   1.840  0.2805 -0.5178  1.6183
25450SOL     OW78023   2.663   8.095   0.001 -0.3540  0.0042 -0.2614
25450SOL    HW178024   2.719   8.075  -0.073  0.8009 -0.0069  0.5992
25450SOL    HW278025   2.696   8.040   0.072 -0.5145  1.0633  0.6590
25451SOL     OW78026   5.501   8.587   7.663 -0.6799  0.3028  0.8032
25451SOL    HW178027   5.416   8.581   7.619 -1.1505  0.0535  1.7233
25451SOL    HW278028   5.505   8.510   7.719  1.1448 -0.9328 -0.8525
25452SOL     OW78029   5.371   2.647   8.874  0.4756 -0.5355 -0.4494
25452SOL    HW178030   5.371   2.552   8.866  1.5201 -0.7549  1.4541
25452SOL    HW278031   5.462   2.672   8.861  0.3382  0.1092 -0.2274
25453SOL     OW78032   3.918   4.666   9.218  0.1138 -0.3897  0.3008
25453SOL    HW178033   3.961   4.626   9.293 -2.1684  1.1068  2.5602
25453SOL    HW278034   3.963   4.750   9.206 -0.5656  0.1025  1.1050
25454SOL     OW78035   4.583   2.061   2.090  0.1216 -0.3679 -0.7526
25454SOL    HW178036   4.611   2.065   2.181 -1.7839  1.6500 -0.1688
25454SOL    HW278037   4.501   2.013   2.092  0.7087 -1.4646 -1.6409
25455SOL     OW78038   4.114   8.063   2.557  0.4895  0.3183  0.0922
25455SOL    HW178039   4.031   8.110   2.569  0.1318  0.1577 -1.5034
25455SOL    HW278040   4.125   8.014   2.638 -1.1440  0.0881  0.2220
25456SOL     OW78041   5.816   9.218   7.077 -0.1433  0.1432 -0.2735
25456SOL    HW178042   5.854   9.260   7.000  3.5916 -1.3258  0.5475
25456SOL    HW278043   5.787   9.132   7.045  0.8234 -0.2138 -0.2499
25457SOL     OW78044   0.206   3.785   3.731  0.0774  0.4543 -0.4950
25457SOL    HW178045   0.267   3.745   3.793 -0.6873 -1.3169 -0.8237
25457SOL    HW278046   0.120   3.775   3.772 -0.1239  2.1172 -0.4422
25458SOL     OW78047   4.106   4.342   1.456  0.2528  0.1606  0.2338
25458SOL    HW178048   4.179   4.297   1.498  0.7126 -0.2116 -0.9412
25458SOL    HW278049   4.138   4.430   1.439 -0.0242  0.3936  0.8752
25459SOL     OW78050   0.612   3.083   9.230 -0.3254  0.1563 -0.1658
25459SOL    HW178051   0.601   3.012   9.167  0.5889  0.7339 -1.0212
25459SOL    HW278052   0.698   3.066   9.269 -0.9406 -0.2723  1.0596
25460SOL     OW78053   6.893   5.336   8.267 -1.1847 -0.1264 -0.3519
25460SOL    HW178054   6.829   5.265   8.264 -1.6984  0.2204  1.2541
25460SOL    HW278055   6.963   5.305   8.324 -2.1356  1.1426  1.6317
25461SOL     OW78056   6.328   4.607   7.996  0.3074  0.5577 -0.3759
25461SOL    HW178057   6.264   4.537   7.997 -0.2626  1.0589  0.9007
25461SOL    HW278058   6.397   4.578   8.056  0.6897  0.5508 -0.8099
25462SOL     OW78059   4.977   0.337   4.218 -0.1756  0.1926 -0.0825
25462SOL    HW178060   5.037   0.395   4.170  2.5225 -2.0974  0.2903
25462SOL    HW278061   5.012   0.336   4.307 -0.1312 -1.9757 -0.0897
25463SOL     OW78062   7.392   3.379   1.811  0.6473  0.4254  0.0689
25463SOL    HW178063   7.370   3.407   1.900 -0.5830 -0.1154 -0.0383
25463SOL    HW278064   7.309   3.346   1.776  0.9866  1.1112 -1.4575
25464SOL     OW78065   3.506   5.577   8.992  0.0198  0.1865 -0.8096
25464SOL    HW178066   3.471   5.594   9.080 -0.1270  1.6263 -1.1250
25464SOL    HW278067   3.431   5.590   8.934  0.6430  1.6034 -1.3370
25465SOL     OW78068   5.040   7.873   4.638 -0.5509 -0.1148  0.1299
25465SOL    HW178069   5.098   7.837   4.571 -1.0041 -0.2355 -0.1994
25465SOL    HW278070   5.031   7.966   4.614 -2.3617 -0.5749 -1.2088
25466SOL     OW78071   0.454   7.846   3.094  0.0721 -0.3581  0.6364
25466SOL    HW178072   0.476   7.916   3.033 -1.8655  0.6362  1.0158
25466SOL    HW278073   0.435   7.891   3.176 -0.7456 -1.3521  1.0180
25467SOL     OW78074   8.642   2.515   2.073 -0.3249  0.1900 -0.2121
25467SOL    HW178075   8.694   2.475   2.142 -1.0421 -2.3570 -1.0549
25467SOL    HW278076   8.582   2.574   2.119 -1.3174 -1.9971  1.4888
25468SOL     OW78077   1.843   0.582   5.476 -0.0382 -0.4835  0.8029
25468SOL    HW178078   1.796   0.661   5.452  0.8759 -0.3780 -0.8233
25468SOL    HW278079   1.865   0.593   5.569 -0.3843  0.9151  0.7301
25469SOL     OW78080   8.852   5.978   7.864  0.2555 -0.0041 -0.0862
25469SOL    HW178081   8.911   6.010   7.932  0.8776  0.5142 -0.8439
25469SOL    HW278082   8.768   5.964   7.908  0.0040  2.4901  0.3542
25470SOL     OW78083   3.082   1.910   6.424  0.2223  0.6094 -0.1762
25470SOL    HW178084   3.171   1.910   6.458  0.5492 -2.8948 -0.6296
25470SOL    HW278085   3.093   1.916   6.329  0.1776 -1.5610 -0.3641
25471SOL     OW78086   6.111   2.216   7.779 -0.0107 -0.8159 -0.2939
25471SOL    HW178087   6.063   2.227   7.861 -0.0394  0.4137 -0.4472
25471SOL    HW278088   6.043   2.218   7.711  0.2080  0.8953 -0.5107
25472SOL     OW78089   2.881   0.790   4.559  0.3160  0.2837  0.2579
25472SOL    HW178090   2.834   0.873   4.562  0.3096  0.2554  1.3583
25472SOL    HW278091   2.825   0.733   4.506  0.2112  0.8997 -0.3155
25473SOL     OW78092   3.411   8.125   8.120 -0.1610  0.3195  0.2354
25473SOL    HW178093   3.385   8.106   8.030 -1.1862 -1.1283  0.7996
25473SOL    HW278094   3.506   8.137   8.116 -0.0269 -0.9442 -0.8664
25474SOL     OW78095   1.708   5.066   7.371 -0.0069  0.0854  0.3190
25474SOL    HW178096   1.735   5.157   7.381  2.6374 -0.4289 -1.2543
25474SOL    HW278097   1.696   5.034   7.460  0.1247  1.6539  0.9291
25475SOL     OW78098   8.044   7.188   2.662 -0.5435 -0.0894 -0.0342
25475SOL    HW178099   7.979   7.122   2.638 -1.0730  0.6099 -0.5673
25475SOL    HW278100   8.092   7.204   2.581  0.6409 -0.9582  0.4750
25476SOL     OW78101   2.833   6.489   1.921 -0.4110  0.5675  0.2021
25476SOL    HW178102   2.832   6.466   2.013  0.3846  1.8780  0.5665
25476SOL    HW278103   2.888   6.567   1.916 -0.6963  0.7115 -1.3338
25477SOL     OW78104   2.178   8.794   7.439  0.2559  0.0366  0.4781
25477SOL    HW178105   2.166   8.700   7.424 -1.0510  0.2329  0.1640
25477SOL    HW278106   2.095   8.833   7.412  0.7906  1.2908  0.5902
25478SOL     OW78107   3.794   0.924   0.837  0.7834 -0.2565 -0.0741
25478SOL    HW178108   3.844   0.855   0.880 -1.4972 -2.4809 -0.7516
25478SOL    HW278109   3.822   0.919   0.745  0.2165 -0.6793 -0.2270
25479SOL     OW78110   5.425   1.130   8.146 -0.3604 -0.0726 -0.4475
25479SOL    HW178111   5.407   1.058   8.086  1.2757  0.0674 -1.1351
25479SOL    HW278112   5.372   1.203   8.113 -1.9875 -0.8978  0.2258
25480SOL     OW78113   3.928   1.422   3.705 -0.2348  0.5058 -0.2604
25480SOL    HW178114   3.991   1.351   3.719 -1.2887 -0.0571  2.1407
25480SOL    HW278115   3.977   1.502   3.726  0.4857  0.3966 -1.3953
25481SOL     OW78116   9.097   6.296   7.207  0.1399 -0.6257  0.3426
25481SOL    HW178117   9.177   6.302   7.155  1.6639 -3.0129  2.1947
25481SOL    HW278118   9.031   6.264   7.145  1.5093 -1.9187 -0.5295
25482SOL     OW78119   1.555   5.187   6.769  0.6655  0.1627  0.6592
25482SOL    HW178120   1.505   5.203   6.689  0.2264 -0.8452  0.7211
25482SOL    HW278121   1.641   5.226   6.752  0.1767  1.0914  0.1977
25483SOL     OW78122   7.615   1.408   3.804  0.0734  0.1996 -0.2347
25483SOL    HW178123   7.666   1.403   3.885 -1.5694  0.4167  0.8517
25483SOL    HW278124   7.557   1.332   3.808 -0.2486  0.3955 -1.0511
25484SOL     OW78125   9.205   4.353   6.398  0.2656 -0.4603  0.4315
25484SOL    HW178126   9.168   4.330   6.313 -1.9107  0.6720  0.9834
25484SOL    HW278127   9.258   4.278   6.423 -1.6784 -2.2281 -0.4918
25485SOL     OW78128   6.153   3.107   3.825 -0.3446 -0.5628  0.0442
25485SOL    HW178129   6.224   3.170   3.827  0.3441 -1.0750 -2.8390
25485SOL    HW278130   6.075   3.159   3.804 -0.2206 -0.3656  0.0748
25486SOL     OW78131   3.535   2.194   6.806 -1.2435  0.3701 -0.5176
25486SOL    HW178132   3.495   2.237   6.881 -0.9301  2.0037 -1.2346
25486SOL    HW278133   3.461   2.159   6.756 -1.5102  0.1271  0.0314
25487SOL     OW78134   6.203   0.454   4.552 -0.1619 -0.0992 -0.2724
25487SOL    HW178135   6.110   0.440   4.570  0.0706 -0.6390  0.5625
25487SOL    HW278136   6.205   0.528   4.491 -1.1683 -0.5224 -0.8368
25488SOL     OW78137   0.128   7.472   6.941  0.3599  0.7537 -0.2006
25488SOL    HW178138   0.109   7.565   6.926  3.5074  1.7796  1.3447
25488SOL    HW278139   0.095   7.455   7.029  1.4737  0.9834  0.2745
25489SOL     OW78140   1.012   6.724   8.853  0.0782 -0.1315  0.1326
25489SOL    HW178141   1.075   6.791   8.826 -1.2445  0.6508 -1.1646
25489SOL    HW278142   1.011   6.661   8.781 -1.9502  0.8681 -0.8027
25490SOL     OW78143   8.945   7.335   4.055  0.9766  0.5319 -0.2649
25490SOL    HW178144   8.858   7.362   4.027  0.9305  0.0059 -0.6473
25490SOL    HW278145   8.962   7.387   4.134  0.1070  0.2771  0.1041
25491SOL     OW78146   8.806   7.126   7.091 -0.0796 -0.4529  0.0618
25491SOL    HW178147   8.782   7.217   7.073 -0.2925 -0.8158 -1.5853
25491SOL    HW278148   8.880   7.108   7.033  0.9741 -0.8864  1.4854
25492SOL     OW78149   6.302   9.275   2.037  0.5810 -0.4719 -0.1658
25492SOL    HW178150   6.215   9.314   2.050  1.4313  1.4921  0.1078
25492SOL    HW278151   6.316   9.279   1.943  0.0429 -1.6188 -0.3086
25493SOL     OW78152   2.175   3.957   5.527 -0.2761 -0.0122  0.9762
25493SOL    HW178153   2.141   3.888   5.470  0.0409 -0.0189  0.7988
25493SOL    HW278154   2.194   4.030   5.468  0.7864 -0.2895  0.9636
25494SOL     OW78155   3.066   3.121   4.207 -0.0817 -0.1212  0.0456
25494SOL    HW178156   3.126   3.064   4.157  1.3208  0.3683  1.1027
25494SOL    HW278157   3.096   3.210   4.187 -0.1315  0.1133  0.9866
25495SOL     OW78158   0.465   6.217   1.724 -0.1736  0.7008  0.4986
25495SOL    HW178159   0.446   6.286   1.661 -0.0273  1.5642  1.3816
25495SOL    HW278160   0.540   6.170   1.687 -1.3816 -0.1589 -0.9944
25496SOL     OW78161   7.481   8.572   4.371 -0.4676 -0.1222  0.2665
25496SOL    HW178162   7.412   8.589   4.307  0.2477  1.0838 -0.2162
25496SOL    HW278163   7.435   8.559   4.453 -1.4725 -2.4440 -0.5539
25497SOL     OW78164   9.477   5.693   0.619  0.4157 -0.0099 -0.0529
25497SOL    HW178165   9.387   5.681   0.648  0.4319 -0.7516 -0.2836
25497SOL    HW278166   9.475   5.677   0.524  0.8955 -0.7587  0.0449
25498SOL     OW78167   5.429   9.215   7.913  0.1022 -0.5394 -0.3947
25498SOL    HW178168   5.451   9.139   7.967 -0.2112  0.1550  0.7409
25498SOL    HW278169   5.514   9.257   7.895  0.3323 -1.4142 -1.4586
25499SOL     OW78170   1.322   5.362   2.935 -0.0290  0.1047  0.0442
25499SOL    HW178171   1.337   5.452   2.904  1.6080 -0.2252 -0.2277
25499SOL    HW278172   1.387   5.351   3.005 -1.2047 -0.3944  1.0790
25500SOL     OW78173   8.270   8.211   2.950 -0.2241  0.4641 -0.3670
25500SOL    HW178174   8.234   8.146   3.011 -0.2097  0.7758 -0.0242
25500SOL    HW278175   8.365   8.204   2.962 -0.2517  1.3014  0.4710
25501SOL     OW78176   7.403   6.615   4.123 -0.0768  0.0408 -0.4334
25501SOL    HW178177   7.338   6.575   4.181 -0.3889  1.7857  0.5019
25501SOL    HW278178   7.417   6.550   4.054 -0.6048 -1.5948  0.9369
25502SOL     OW78179   0.102   9.574   7.140  0.2887  0.1379  0.1069
25502SOL    HW178180   0.100   9.493   7.089  0.4904  0.0432  0.2463
25502SOL    HW278181   0.096   9.544   7.231  0.1654  0.2924  0.1503
25503SOL     OW78182   7.858   7.709   1.490 -0.0342 -0.7060  0.0915
25503SOL    HW178183   7.797   7.733   1.419  0.6112 -0.5287 -0.4162
25503SOL    HW278184   7.803   7.699   1.567 -0.5075  1.2581  0.0657
25504SOL     OW78185   2.671   6.580   4.237 -0.1523  0.2114 -0.0072
25504SOL    HW178186   2.618   6.511   4.197  1.3845 -0.8339 -0.3638
25504SOL    HW278187   2.689   6.641   4.166 -0.0756  0.0452 -0.1325
25505SOL     OW78188   1.113   7.697   0.305 -0.2557 -0.1162 -0.2239
25505SOL    HW178189   1.166   7.624   0.274 -0.1539  0.2670 -0.9776
25505SOL    HW278190   1.039   7.700   0.244  0.6429  1.4936 -1.3271
25506SOL     OW78191   7.822   0.195   8.192  0.0501 -0.4377 -0.5630
25506SOL    HW178192   7.867   0.110   8.189  0.1275 -0.3662 -2.6145
25506SOL    HW278193   7.838   0.234   8.106 -1.8902  0.6564 -0.4910
25507SOL     OW78194   4.475   2.568   7.455 -0.1034  0.4546  0.4160
25507SOL    HW178195   4.425   2.489   7.470 -0.9727  1.0420  0.6609
25507SOL    HW278196   4.419   2.622   7.399  0.1303  1.2339  0.9217
25508SOL     OW78197   7.702   3.728   5.658 -0.2750 -0.5313  0.2786
25508SOL    HW178198   7.761   3.713   5.584 -0.3882  1.5323 -0.3044
25508SOL    HW278199   7.741   3.681   5.731  0.8604 -1.0651 -0.6414
25509SOL     OW78200   6.740   5.468   1.903 -1.0981  0.4845  0.0803
25509SOL    HW178201   6.692   5.517   1.969 -2.4588  0.4757 -0.8623
25509SOL    HW278202   6.723   5.515   1.821  0.0689  0.1599 -0.3723
25510SOL     OW78203   8.015   6.604   5.148  0.1827  0.0452  0.7385
25510SOL    HW178204   8.026   6.670   5.217 -0.7124  1.7457 -0.6509
25510SOL    HW278205   7.920   6.598   5.136  0.2771 -1.1616  0.4915
25511SOL     OW78206   9.622   7.121   7.341 -0.1322 -0.1869 -0.2995
25511SOL    HW178207   9.651   7.047   7.394  0.7410  0.9933  0.9276
25511SOL    HW278208   9.696   7.141   7.284 -0.4686 -0.4124 -0.8270
25512SOL     OW78209   4.246   7.075   2.831 -0.2265 -0.1410  0.6305
25512SOL    HW178210   4.191   7.012   2.878 -1.1096 -0.6811 -1.0110
25512SOL    HW278211   4.215   7.161   2.861  0.0600 -0.4564  1.8851
25513SOL     OW78212   1.901   7.970   0.107 -0.1930  0.4624  0.1598
25513SOL    HW178213   1.856   8.049   0.135 -2.2009 -0.5580 -0.0350
25513SOL    HW278214   1.851   7.939   0.031  1.3764 -0.2660 -0.6313
25514SOL     OW78215   5.930   5.226   0.531  0.3708 -0.4026 -0.8548
25514SOL    HW178216   5.983   5.170   0.473  0.1396 -0.0148 -1.4547
25514SOL    HW278217   5.976   5.225   0.614  2.2742  1.2374 -1.7933
25515SOL     OW78218   2.385   1.295   1.509  0.1141 -0.3135 -0.0515
25515SOL    HW178219   2.476   1.322   1.505 -0.0846  0.4111  0.2183
25515SOL    HW278220   2.388   1.200   1.499  0.9436 -0.3654  0.6004
25516SOL     OW78221   3.687   0.458   0.411 -0.1329  0.4839 -0.0602
25516SOL    HW178222   3.709   0.367   0.431 -0.5650  0.1315 -1.1098
25516SOL    HW278223   3.771   0.498   0.387  0.3505  0.8415  1.9800
25517SOL     OW78224   7.369   6.385   2.518  0.0796  0.1001  0.0952
25517SOL    HW178225   7.286   6.406   2.476 -0.5455 -0.4533  1.0051
25517SOL    HW278226   7.360   6.293   2.543  1.0098  0.0048  0.1031
25518SOL     OW78227   5.201   9.034   2.320 -0.0736  0.3118 -0.0599
25518SOL    HW178228   5.155   9.046   2.237 -0.8790 -2.5860 -0.1389
25518SOL    HW278229   5.132   9.018   2.384  0.6457 -0.5108  0.5376
25519SOL     OW78230   5.941   0.619   2.051  0.5200  0.5640  0.1988
25519SOL    HW178231   6.022   0.591   2.009  0.5401 -1.9546  1.6917
25519SOL    HW278232   5.955   0.601   2.144 -1.9018 -0.4192  0.4523
25520SOL     OW78233   3.299   5.176   8.139  0.0386 -0.1031  0.2717
25520SOL    HW178234   3.269   5.196   8.051 -2.2670 -2.2544  0.4679
25520SOL    HW278235   3.219   5.171   8.192  1.2918  0.3168  2.3310
25521SOL     OW78236   4.415   4.278   0.693  0.1051  0.2664  0.3630
25521SOL    HW178237   4.417   4.373   0.703  1.2953  0.0697  2.4894
25521SOL    HW278238   4.507   4.251   0.699 -0.1690 -1.0078 -0.6352
25522SOL     OW78239   1.059   7.062   2.798  0.2509 -0.4151 -0.0830
25522SOL    HW178240   1.032   7.111   2.875 -0.5794 -0.2701 -0.4578
25522SOL    HW278241   1.068   7.127   2.729 -3.0378 -0.9299 -1.1897
25523SOL     OW78242   7.889   9.376   8.628  0.0126  0.1424 -0.0251
25523SOL    HW178243   7.920   9.329   8.705 -0.4825  0.2540  0.2462
25523SOL    HW278244   7.880   9.309   8.560 -0.3851 -0.1046  0.2695
25524SOL     OW78245   6.974   2.276   2.668 -0.3769  0.4998  0.2411
25524SOL    HW178246   6.986   2.280   2.573  1.2023  0.4550  0.4189
25524SOL    HW278247   6.953   2.184   2.686 -1.0500  0.5797 -0.0854
25525SOL     OW78248   3.743   3.515   7.548 -0.1584  0.2248 -0.3080
25525SOL    HW178249   3.752   3.592   7.603 -2.4647  0.1010  0.3047
25525SOL    HW278250   3.752   3.441   7.608  2.1458 -0.0717 -0.9071
25526SOL     OW78251   5.513   0.787   3.407  0.0938  0.9067 -0.2019
25526SOL    HW178252   5.490   0.696   3.387  1.7476  0.0825  1.3532
25526SOL    HW278253   5.460   0.809   3.483  1.3219  0.4224  0.8283
25527SOL     OW78254   9.038   9.063   9.431 -0.4614 -0.6093  0.1268
25527SOL    HW178255   9.057   8.970   9.419  0.1798 -0.2928 -1.6867
25527SOL    HW278256   9.075   9.105   9.353  0.4570  1.3420  1.5252
25528SOL     OW78257   4.592   0.315   5.792 -0.2736 -0.3412  0.1120
25528SOL    HW178258   4.579   0.391   5.736 -0.4067  0.4206  1.1671
25528SOL    HW278259   4.669   0.271   5.755  0.6718  1.0809  0.3359
25529SOL     OW78260   7.080   8.946   0.033 -0.7981  0.0524  0.4925
25529SOL    HW178261   6.987   8.946   0.010 -0.7762 -0.1714  0.3955
25529SOL    HW278262   7.108   8.856   0.017 -0.7838 -0.1216  1.4116
25530SOL     OW78263   5.180   5.978   5.836 -0.6000  0.1857  0.1323
25530SOL    HW178264   5.130   5.983   5.754 -1.1463 -0.7610  0.3910
25530SOL    HW278265   5.166   5.889   5.867  3.1950 -0.9842 -0.9671
25531SOL     OW78266   8.449   5.068   7.750 -0.8181  0.0431  0.2169
25531SOL    HW178267   8.359   5.081   7.781 -2.0865 -1.9640 -2.2210
25531SOL    HW278268   8.487   5.007   7.813 -1.6761 -0.2350  0.4883
25532SOL     OW78269   2.622   1.418   8.311 -0.3462 -0.0830 -0.2645
25532SOL    HW178270   2.712   1.403   8.282  0.9455  2.4070  1.9869
25532SOL    HW278271   2.614   1.366   8.391 -0.8950 -0.2318 -0.4126
25533SOL     OW78272   1.781   2.005   4.261  0.3801  0.8733  0.9274
25533SOL    HW178273   1.688   2.019   4.280  0.3399 -0.0449  1.4796
25533SOL    HW278274   1.826   2.031   4.341  0.5563  0.8878  0.8237
25534SOL     OW78275   9.245   7.027   5.878  0.2066 -0.4376 -0.5743
25534SOL    HW178276   9.216   6.940   5.852  0.7017 -1.2965  1.5727
25534SOL    HW278277   9.272   7.018   5.969 -0.3453  2.1236 -0.0629
25535SOL     OW78278   0.727   7.938   3.368 -0.3053  0.3575  0.6492
25535SOL    HW178279   0.763   8.010   3.316  0.9177  0.1929  1.2468
25535SOL    HW278280   0.761   7.859   3.327 -0.8393  0.1527  0.5947
25536SOL     OW78281   0.572   4.826   5.190  0.2607 -0.4517  0.3993
25536SOL    HW178282   0.571   4.858   5.280  0.8548 -1.3265  0.7288
25536SOL    HW278283   0.501   4.761   5.187  0.4963 -0.7121  0.3561
25537SOL     OW78284   6.949   4.652   9.577  0.3288 -0.0613 -0.0588
25537SOL    HW178285   7.008   4.620   9.509 -0.6290 -0.4371 -0.7544
25537SOL    HW278286   6.896   4.575   9.600  0.6196  0.0661  1.1054
25538SOL     OW78287   5.436   4.863   4.094 -0.2233 -0.9113 -0.1100
25538SOL    HW178288   5.517   4.822   4.123 -0.4698 -1.4123 -0.1255
25538SOL    HW278289   5.454   4.889   4.003  0.0243 -0.7373 -0.0112
25539SOL     OW78290   5.517   6.667   2.809 -0.0089 -0.4450  0.1581
25539SOL    HW178291   5.518   6.735   2.742  0.4706 -0.7925 -0.1982
25539SOL    HW278292   5.607   6.633   2.809  0.0053 -0.4173  1.0102
25540SOL     OW78293   2.804   2.096   2.640 -0.2098 -0.3235  0.2854
25540SOL    HW178294   2.748   2.154   2.589  0.0206  1.1019  1.5747
25540SOL    HW278295   2.752   2.075   2.718 -0.0709 -1.4044  0.0947
25541SOL     OW78296   3.491   7.874   9.202 -0.3438 -0.1481 -0.4173
25541SOL    HW178297   3.416   7.905   9.151 -0.6595  1.6439  1.0491
25541SOL    HW278298   3.564   7.925   9.169 -0.1319 -0.4903 -0.4830
25542SOL     OW78299   9.675   1.681   4.307 -0.1163  0.4876  0.1336
25542SOL    HW178300   9.640   1.626   4.377 -0.3908  2.2433  1.4334
25542SOL    HW278301   9.766   1.697   4.332  0.2805 -0.1884 -0.7904
25543SOL     OW78302   0.516   5.362   1.743 -0.1905  0.8777  0.0475
25543SOL    HW178303   0.584   5.316   1.793 -3.5262 -0.9985  3.3141
25543SOL    HW278304   0.514   5.317   1.659  1.8714  0.3189  0.2432
25544SOL     OW78305   7.545   7.844   7.724  0.1537 -0.9440 -0.0753
25544SOL    HW178306   7.563   7.832   7.631  0.0879  1.0526 -0.4059
25544SOL    HW278307   7.619   7.802   7.768  0.7594 -0.9783 -1.0791
25545SOL     OW78308   2.045   6.777   3.253  0.2236 -0.5379  0.1181
25545SOL    HW178309   2.042   6.766   3.348  1.9379 -0.5060  0.2136
25545SOL    HW278310   2.096   6.702   3.222  0.2732 -0.1764 -0.7027
25546SOL     OW78311   6.235   2.423   6.007  0.2442 -0.3722 -0.2955
25546SOL    HW178312   6.330   2.417   6.012  0.1245 -1.7162  2.9406
25546SOL    HW278313   6.216   2.434   5.914  3.4959 -1.0916 -1.1524
25547SOL     OW78314   4.304   3.109   0.245  0.0140  0.1885 -0.0668
25547SOL    HW178315   4.304   3.072   0.334  0.4493 -0.4099 -0.3099
25547SOL    HW278316   4.396   3.117   0.223 -0.0896 -0.8360 -0.9384
25548SOL     OW78317   1.633   0.527   9.665  0.1229  0.6103 -0.3279
25548SOL    HW178318   1.562   0.567   9.715  0.7386 -0.1657  1.2506
25548SOL    HW278319   1.648   0.586   9.591 -0.1960  2.3307  0.9247
25549SOL     OW78320   7.009   5.787   0.800 -0.2084 -0.6470  0.0144
25549SOL    HW178321   6.974   5.797   0.888 -0.5304  0.7883 -0.2580
25549SOL    HW278322   7.086   5.844   0.798 -0.8787  0.2540 -0.9824
25550SOL     OW78323   2.985   8.518   4.936 -0.3550 -0.5230 -0.1675
25550SOL    HW178324   2.954   8.511   4.846  0.7718  1.0941 -0.7436
25550SOL    HW278325   2.911   8.492   4.990 -1.1402 -1.2509 -1.5450
25551SOL     OW78326   1.212   3.104   3.197  0.1120  0.0385  0.3741
25551SOL    HW178327   1.195   3.086   3.105  0.5246 -0.6041  0.4174
25551SOL    HW278328   1.306   3.123   3.201  0.1123 -0.0202  0.6736
25552SOL     OW78329   3.616   1.464   4.098 -0.2776 -0.5764  0.0490
25552SOL    HW178330   3.574   1.548   4.116  0.1326 -0.3596 -0.0006
25552SOL    HW278331   3.579   1.436   4.014 -0.7107 -0.6372  0.2580
25553SOL     OW78332   2.264   7.859   6.509  0.2808 -0.8524 -0.0093
25553SOL    HW178333   2.230   7.948   6.518  0.9835 -0.7603  2.5473
25553SOL    HW278334   2.195   7.802   6.543  0.2853 -1.1902 -0.5536
25554SOL     OW78335   0.682   2.671   0.428  0.3663 -0.1829 -0.0972
25554SOL    HW178336   0.755   2.672   0.366  1.2685  1.7870  0.9035
25554SOL    HW278337   0.607   2.701   0.377  0.8160  0.1860 -0.5577
25555SOL     OW78338   7.562   7.055   0.633 -0.2269  0.2286 -0.1495
25555SOL    HW178339   7.578   7.121   0.566  0.1914 -0.2575 -0.5366
25555SOL    HW278340   7.637   7.062   0.692  0.7897 -1.1144 -1.2010
25556SOL     OW78341   5.514   2.197   7.045  0.1555 -0.3793  0.1837
25556SOL    HW178342   5.534   2.110   7.011  0.7570  0.1040 -0.7480
25556SOL    HW278343   5.599   2.238   7.058 -0.0897  1.2584 -2.6307
25557SOL     OW78344   0.397   3.631   3.831  0.2785 -0.3356 -0.2575
25557SOL    HW178345   0.443   3.576   3.894 -0.4893 -2.2010 -1.2230
25557SOL    HW278346   0.466   3.683   3.789  1.2474 -1.5410 -0.2248
25558SOL     OW78347   0.684   4.654   0.240  0.0713  0.1292 -0.0616
25558SOL    HW178348   0.598   4.694   0.230 -0.6366 -1.2660  0.1739
25558SOL    HW278349   0.721   4.652   0.151  0.2227  1.4575 -0.0441
25559SOL     OW78350   8.341   8.467   9.269  0.3373  0.2917 -0.0325
25559SOL    HW178351   8.272   8.470   9.336  0.4880  0.0914  0.1336
25559SOL    HW278352   8.306   8.518   9.196 -0.2006 -0.2280 -0.1445
25560SOL     OW78353   5.963   8.843   6.759  0.2205  0.3087  0.4378
25560SOL    HW178354   5.912   8.799   6.827  0.0672 -0.3629 -0.0992
25560SOL    HW278355   6.047   8.861   6.800  0.6462 -1.4024  0.3763
25561SOL     OW78356   4.200   0.619   1.649 -0.5240  0.2761 -0.1105
25561SOL    HW178357   4.124   0.599   1.704 -0.9794  2.4425  0.1408
25561SOL    HW278358   4.230   0.534   1.617 -2.9217 -0.6607 -0.0540
25562SOL     OW78359   7.154   2.428   7.884 -0.0435 -0.1987 -0.5017
25562SOL    HW178360   7.104   2.487   7.827 -0.0169 -0.4886 -0.8255
25562SOL    HW278361   7.147   2.342   7.842  0.3985 -0.3170 -0.3373
25563SOL     OW78362   4.791   6.999   9.044 -0.0907 -0.2187 -0.0644
25563SOL    HW178363   4.772   6.945   8.967  0.8067  0.3336 -0.6926
25563SOL    HW278364   4.786   7.089   9.012  0.6821  0.0090  0.4226
25564SOL     OW78365   7.529   3.757   1.898 -0.3442  0.5649 -0.5083
25564SOL    HW178366   7.519   3.820   1.970 -1.6777 -0.1174 -0.0559
25564SOL    HW278367   7.585   3.802   1.835 -0.9398  2.0628 -0.0331
25565SOL     OW78368   4.096   8.734   7.461  0.3857  0.0925  0.4387
25565SOL    HW178369   4.011   8.701   7.431 -0.6024  1.5130  1.5806
25565SOL    HW278370   4.085   8.749   7.554  2.3223 -0.9081  0.8815
25566SOL     OW78371   3.311   7.403   0.278  0.2051  0.2550  0.0595
25566SOL    HW178372   3.236   7.460   0.298  0.7346  0.3323  1.9864
25566SOL    HW278373   3.386   7.450   0.313  0.6338 -1.6896  1.9658
25567SOL     OW78374   1.951   7.894   2.554  0.0562 -0.3740 -0.3583
25567SOL    HW178375   1.921   7.862   2.640 -0.6523  1.0671 -0.0296
25567SOL    HW278376   1.971   7.815   2.505 -2.0039 -1.3708  0.2662
25568SOL     OW78377   7.953   0.691   0.486 -0.2029  0.0019  0.1083
25568SOL    HW178378   7.903   0.694   0.404  0.2682  2.4179 -0.1428
25568SOL    HW278379   7.886   0.693   0.555 -0.5777 -1.5128 -0.1596
25569SOL     OW78380   7.557   5.544   4.019 -0.0993  0.5798  0.0241
25569SOL    HW178381   7.645   5.561   3.985  0.2864 -0.3704  0.4928
25569SOL    HW278382   7.545   5.450   4.006 -1.1794  0.7542 -0.3184
25570SOL     OW78383   1.771   1.195   1.427  0.0110  0.6240  0.3365
25570SOL    HW178384   1.755   1.289   1.418 -0.0522  0.7603  1.6956
25570SOL    HW278385   1.846   1.190   1.487 -1.2558 -0.2122  1.9214
25571SOL     OW78386   8.774   8.510   4.919 -0.2838  0.0283  0.1547
25571SOL    HW178387   8.715   8.582   4.898 -0.0882  0.4219  0.8956
25571SOL    HW278388   8.857   8.553   4.940  1.0821 -0.6085 -3.2416
25572SOL     OW78389   9.566   9.038   3.119 -0.0200  0.3786  0.5635
25572SOL    HW178390   9.644   9.038   3.063  0.7337 -2.2453  1.4453
25572SOL    HW278391   9.515   8.963   3.087 -1.3157  0.9956  1.1359
25573SOL     OW78392   1.730   8.769   6.803 -0.1634  0.3139  0.3190
25573SOL    HW178393   1.696   8.735   6.720 -1.0126 -0.1380  0.8424
25573SOL    HW278394   1.806   8.821   6.778  0.2529 -0.7195 -0.6507
25574SOL     OW78395   7.783   3.724   4.536 -0.0579  0.0959  0.5436
25574SOL    HW178396   7.825   3.660   4.478 -1.6715  0.3590 -0.9991
25574SOL    HW278397   7.836   3.803   4.527  1.8071 -0.8420  2.2697
25575SOL     OW78398   6.639   9.502   0.513  0.1222  0.3107  0.0598
25575SOL    HW178399   6.694   9.434   0.552  1.2619  0.4436 -1.2418
25575SOL    HW278400   6.657   9.581   0.564  1.7314  0.5297 -0.7866
25576SOL     OW78401   0.557   4.197   6.294 -0.0100 -0.8465 -0.2763
25576SOL    HW178402   0.607   4.219   6.372  0.2522  3.9067 -1.5059
25576SOL    HW278403   0.465   4.204   6.321  0.0766  1.1499 -0.3388
25577SOL     OW78404   8.229   0.108   8.507  0.0413 -0.1722  0.3423
25577SOL    HW178405   8.173   0.048   8.458 -1.4808 -0.6612  2.5277
25577SOL    HW278406   8.218   0.192   8.462 -2.7827 -0.1700  0.8578
25578SOL     OW78407   4.168   5.687   1.633 -0.7034 -0.3971 -0.1281
25578SOL    HW178408   4.082   5.727   1.644  0.5648  2.7940 -0.8451
25578SOL    HW278409   4.230   5.757   1.650  1.7614 -2.1314 -1.3185
25579SOL     OW78410   0.901   3.471   7.468  0.4368  0.4575  0.1109
25579SOL    HW178411   0.896   3.462   7.563 -2.3142  0.0714  0.0330
25579SOL    HW278412   0.930   3.385   7.438  2.4948  0.9373  0.6015
25580SOL     OW78413   8.254   9.072   3.099 -0.2249 -0.0119 -0.0520
25580SOL    HW178414   8.165   9.090   3.069 -0.7429 -0.2451  1.2620
25580SOL    HW278415   8.272   9.141   3.163  0.3770 -0.2185  0.0066
25581SOL     OW78416   5.840   4.043   3.325 -0.0828  0.6965  0.3419
25581SOL    HW178417   5.912   4.105   3.314  0.4973 -0.1741 -1.1672
25581SOL    HW278418   5.776   4.068   3.258  0.6064 -0.8766 -0.9848
25582SOL     OW78419   8.826   0.105   0.216 -0.1698 -0.2193  0.1177
25582SOL    HW178420   8.850   0.123   0.307  3.9298 -1.5870 -0.5145
25582SOL    HW278421   8.796   0.014   0.217  0.8536 -0.5622 -0.0334
25583SOL     OW78422   5.697   6.382   0.189  0.1871  0.0018  0.0564
25583SOL    HW178423   5.781   6.416   0.158  0.1312  2.8220  2.5109
25583SOL    HW278424   5.710   6.371   0.283 -1.9091 -0.5328  0.3192
25584SOL     OW78425   1.568   8.695   8.232 -0.1061  0.3797 -0.6670
25584SOL    HW178426   1.630   8.758   8.269 -2.6838  2.7774 -0.1280
25584SOL    HW278427   1.529   8.739   8.157 -2.5857 -0.1687  0.1983
25585SOL     OW78428   4.653   3.002   7.562 -0.3374 -0.0098  0.0799
25585SOL    HW178429   4.673   2.993   7.656 -2.3962 -1.3596  0.4431
25585SOL    HW278430   4.559   3.014   7.559  0.0486  4.0845 -1.6582
25586SOL     OW78431   6.628   7.432   2.027  0.0430  0.4361  0.2283
25586SOL    HW178432   6.644   7.483   2.107 -0.4948 -0.6529  1.0626
25586SOL    HW278433   6.568   7.362   2.055 -0.8026  0.5125 -1.3250
25587SOL     OW78434   4.931   8.677   3.064 -0.6132  0.0700 -0.0295
25587SOL    HW178435   4.966   8.762   3.040  1.4518 -0.9303 -0.7841
25587SOL    HW278436   4.982   8.650   3.141  0.2923 -1.3589 -1.0661
25588SOL     OW78437   4.013   6.220   7.674  0.1977  0.0854 -0.3499
25588SOL    HW178438   3.984   6.239   7.764  1.0410 -1.0490  0.1940
25588SOL    HW278439   3.969   6.138   7.652 -1.7519  1.4343 -1.8595
25589SOL     OW78440   3.401   5.160   1.839  0.3042  0.7442 -0.4147
25589SOL    HW178441   3.394   5.095   1.769  2.5276 -0.0830  0.0449
25589SOL    HW278442   3.344   5.127   1.909 -0.6277  0.7078 -1.1775
25590SOL     OW78443   3.649   2.435   1.939 -0.0954 -0.1143  0.2351
25590SOL    HW178444   3.570   2.407   1.985  0.6114 -0.9306  0.9772
25590SOL    HW278445   3.714   2.369   1.960  0.3823 -0.2956 -1.6198
25591SOL     OW78446   3.024   1.453   2.995  0.4717  0.1998 -0.1226
25591SOL    HW178447   3.006   1.414   2.910 -0.4525  0.3088  0.0167
25591SOL    HW278448   3.114   1.428   3.014 -0.4693 -3.1173  0.6227
25592SOL     OW78449   5.708   3.906   3.073 -0.0640  0.7187 -0.6781
25592SOL    HW178450   5.618   3.905   3.107  1.1893  0.8781  3.0950
25592SOL    HW278451   5.739   3.816   3.086  0.9774  1.1782  0.0512
25593SOL     OW78452   1.644   0.362   0.239  0.3432 -0.1548  0.2052
25593SOL    HW178453   1.675   0.424   0.174  0.5651  0.4439  0.8757
25593SOL    HW278454   1.682   0.278   0.212  0.0732 -0.0106 -0.6780
25594SOL     OW78455   8.817   5.657   5.648 -0.0783 -0.2366  0.3338
25594SOL    HW178456   8.777   5.626   5.566  0.0306  1.4491 -0.3964
25594SOL    HW278457   8.790   5.593   5.714 -0.9365 -1.1263 -0.8436
25595SOL     OW78458   0.292   4.658   1.733 -0.2269  0.4706 -0.3609
25595SOL    HW178459   0.302   4.640   1.640 -1.2692  2.1820 -0.8591
25595SOL    HW278460   0.199   4.679   1.744 -0.0282  0.7742  0.9646
25596SOL     OW78461   5.457   3.397   5.263  0.1330  0.0262 -0.2699
25596SOL    HW178462   5.450   3.382   5.169  0.5627 -1.8713 -0.0437
25596SOL    HW278463   5.542   3.439   5.275  0.1953  0.0291 -0.7038
25597SOL     OW78464   3.417   7.897   0.849  0.2018  0.5433 -0.4568
25597SOL    HW178465   3.375   7.969   0.896 -0.6678  0.3949 -0.9836
25597SOL    HW278466   3.411   7.822   0.909 -0.1215  0.5757 -0.4431
25598SOL     OW78467   6.629   2.701   6.336 -0.8470  0.9274 -0.1843
25598SOL    HW178468   6.541   2.714   6.371 -0.5146  0.5584  0.8131
25598SOL    HW278469   6.654   2.613   6.364 -0.9823  0.1683 -2.2853
25599SOL     OW78470   2.520   1.316   6.281  0.5539  0.2783  0.0707
25599SOL    HW178471   2.587   1.330   6.214  0.6865  1.9084  0.4885
25599SOL    HW278472   2.518   1.221   6.294  0.7771 -0.0494 -1.9672
25600SOL     OW78473   3.699   7.089   5.340  0.2757 -0.0195  0.3319
25600SOL    HW178474   3.653   7.162   5.381 -1.1680 -0.1328 -0.9979
25600SOL    HW278475   3.767   7.130   5.287 -1.2368  0.5060 -1.3086
25601SOL     OW78476   2.215   9.158   8.525 -0.4400 -0.5607  0.4420
25601SOL    HW178477   2.292   9.210   8.545  0.1655 -1.6201  0.9964
25601SOL    HW278478   2.187   9.123   8.610 -2.2143  0.6914  0.4307
25602SOL     OW78479   3.105   7.590   0.291 -0.3188 -0.6920  0.4296
25602SOL    HW178480   3.022   7.547   0.272  0.4994 -1.7814 -0.9425
25602SOL    HW278481   3.142   7.609   0.205  0.5829  0.3271  1.0161
25603SOL     OW78482   6.779   1.780   0.213 -0.2451  0.8128 -0.0776
25603SOL    HW178483   6.707   1.723   0.186  0.3008  0.8783 -1.7528
25603SOL    HW278484   6.844   1.772   0.144  2.2184 -0.6166  2.2351
25604SOL     OW78485   7.650   8.967   4.104 -0.3329 -0.5782 -0.3705
25604SOL    HW178486   7.688   9.030   4.043  2.9818 -1.3804  0.6934
25604SOL    HW278487   7.663   8.882   4.062 -3.6951 -0.8173 -1.2457
25605SOL     OW78488   1.671   6.384   4.609  0.2950 -0.6088 -0.4047
25605SOL    HW178489   1.679   6.294   4.576 -0.6487 -0.3488 -1.4069
25605SOL    HW278490   1.670   6.438   4.530 -0.1622  0.1917  0.1403
25606SOL     OW78491   6.620   9.619   4.919  0.0525 -0.3230 -0.4208
25606SOL    HW178492   6.579   9.559   4.981  0.7948  0.7799  1.2229
25606SOL    HW278493   6.551   9.680   4.895 -0.2236 -0.7120 -0.6097
25607SOL     OW78494   2.518   8.293   0.871 -0.1017  0.4394  0.3702
25607SOL    HW178495   2.565   8.321   0.950 -0.6244  0.9414  0.5070
25607SOL    HW278496   2.426   8.311   0.890 -0.0338  3.1815 -1.3721
25608SOL     OW78497   9.575   0.270   2.763 -0.2691 -0.3900 -0.3882
25608SOL    HW178498   9.490   0.309   2.779 -0.1233  0.7955 -2.2554
25608SOL    HW278499   9.555   0.185   2.724 -0.6029 -0.2368 -0.5569
25609SOL     OW78500   6.303   3.382   6.841 -0.0681 -0.3662  0.0474
25609SOL    HW178501   6.332   3.433   6.917  1.6305 -2.0472  0.6107
25609SOL    HW278502   6.383   3.342   6.807 -1.3591 -3.4772  0.2910
25610SOL     OW78503   9.363   6.482   0.258  0.2652  0.2696 -0.2475
25610SOL    HW178504   9.444   6.493   0.307  1.5172 -1.3141 -1.7948
25610SOL    HW278505   9.315   6.415   0.306  1.2648 -0.9315 -0.8663
25611SOL     OW78506   8.747   8.118   1.793 -0.1336  0.1429  0.7917
25611SOL    HW178507   8.743   8.061   1.716 -0.3712  1.2696 -0.0548
25611SOL    HW278508   8.832   8.097   1.833  0.1455 -0.2311  0.0357
25612SOL     OW78509   5.010   5.112   6.718  0.1543  0.4315 -0.4615
25612SOL    HW178510   4.999   5.140   6.808 -0.4960 -0.9553 -0.0706
25612SOL    HW278511   4.922   5.083   6.691  0.8824 -1.9251 -0.5188
25613SOL     OW78512   0.473   5.819   1.052  0.2943 -0.2316  0.2525
25613SOL    HW178513   0.567   5.834   1.046  0.3054 -0.3127  0.2188
25613SOL    HW278514   0.434   5.888   0.997  0.2937  0.2709  0.8723
25614SOL     OW78515   5.701   4.163   0.884 -0.1499 -0.4235  0.8801
25614SOL    HW178516   5.721   4.250   0.850 -0.1346 -0.8991 -0.3535
25614SOL    HW278517   5.609   4.168   0.911 -0.2993 -0.1747  0.3238
25615SOL     OW78518   2.450   2.701   3.723 -0.2993 -0.1495 -0.1032
25615SOL    HW178519   2.477   2.789   3.747 -0.1852 -0.5555  1.4165
25615SOL    HW278520   2.372   2.713   3.668 -1.6399  0.8984  1.8860
25616SOL     OW78521   5.938   2.704   5.454  0.2318 -0.0071 -0.1514
25616SOL    HW178522   5.916   2.643   5.383 -0.5325  0.0613  0.0190
25616SOL    HW278523   5.882   2.780   5.438 -1.9505 -1.0191  1.9817
25617SOL     OW78524   7.573   0.620   7.275  0.4646  0.4462 -0.3651
25617SOL    HW178525   7.637   0.676   7.319 -0.0363 -0.0691  1.0708
25617SOL    HW278526   7.626   0.557   7.226  1.0383  2.2490 -2.1793
25618SOL     OW78527   8.496   3.217   5.735 -0.2753 -0.2163 -0.2273
25618SOL    HW178528   8.414   3.233   5.781 -1.5868  0.4674 -2.6044
25618SOL    HW278529   8.469   3.198   5.645  2.2176  1.3777 -1.4270
25619SOL     OW78530   0.597   4.319   5.277 -0.4445  0.3485 -0.2122
25619SOL    HW178531   0.574   4.234   5.240 -2.4037  0.3664  0.8272
25619SOL    HW278532   0.520   4.345   5.328  0.6540  2.0918  0.6716
25620SOL     OW78533   4.297   4.889   6.036  0.0937 -0.1993  0.5952
25620SOL    HW178534   4.205   4.887   6.013 -0.2551  2.1206  1.4632
25620SOL    HW278535   4.342   4.851   5.961 -1.4273  0.7215 -0.8398
25621SOL     OW78536   2.505   0.189   9.293 -0.0739  0.5060 -0.5222
25621SOL    HW178537   2.474   0.123   9.355  1.0289 -0.7375 -1.2576
25621SOL    HW278538   2.462   0.270   9.321 -0.6436 -0.3004  1.0374
25622SOL     OW78539   8.689   4.647   8.933  0.6532  0.4132 -0.0001
25622SOL    HW178540   8.733   4.562   8.929  0.9260  0.5926 -1.9352
25622SOL    HW278541   8.618   4.641   8.869 -0.6864  0.9415  1.3909
25623SOL     OW78542   7.753   4.557   0.735 -0.5127 -0.1332  0.1316
25623SOL    HW178543   7.757   4.525   0.826  2.3865  2.0740  0.9408
25623SOL    HW278544   7.668   4.601   0.729 -0.7198 -0.2203  1.8205
25624SOL     OW78545   5.543   0.137   4.759 -0.2980 -0.1086 -0.0978
25624SOL    HW178546   5.452   0.137   4.731 -0.3312  0.3386  0.0136
25624SOL    HW278547   5.548   0.066   4.824 -0.7763  0.4572  0.5725
25625SOL     OW78548   0.657   5.333   7.154 -0.5592 -0.4303  0.5086
25625SOL    HW178549   0.692   5.253   7.115 -1.3158 -0.3631 -0.3418
25625SOL    HW278550   0.621   5.305   7.238 -1.2469 -1.0900  0.0138
25626SOL     OW78551   3.938   2.065   0.533 -0.5202  0.0801 -0.0071
25626SOL    HW178552   3.888   2.131   0.484  1.8222  2.4693  0.6154
25626SOL    HW278553   4.016   2.050   0.479  0.1247 -0.3575  1.0276
25627SOL     OW78554   5.627   3.633   7.531  0.0794  0.3948  0.2958
25627SOL    HW178555   5.701   3.573   7.542  0.6461  0.9695 -0.2445
25627SOL    HW278556   5.652   3.688   7.456 -0.9914  0.4692 -0.0211
25628SOL     OW78557   1.970   4.469   3.980  0.1215  0.1465  0.0710
25628SOL    HW178558   1.944   4.506   3.896 -1.2730 -0.7735  0.0784
25628SOL    HW278559   1.933   4.381   3.981 -0.0289  0.1942  1.7218
25629SOL     OW78560   6.066   4.130   9.662 -0.2285 -0.3151 -0.0152
25629SOL    HW178561   6.093   4.122   9.754  0.6046 -0.7915 -0.2935
25629SOL    HW278562   6.148   4.137   9.613 -0.6795  2.4165 -0.5342
25630SOL     OW78563   0.515   8.858   3.507  0.6496  0.5297  0.3857
25630SOL    HW178564   0.518   8.764   3.521 -0.2739  0.5183  0.5988
25630SOL    HW278565   0.606   8.886   3.507  1.1507 -0.7410 -2.4661
25631SOL     OW78566   4.783   3.531   4.774  0.0612  0.0240 -0.0476
25631SOL    HW178567   4.745   3.560   4.691  1.0314  3.6459  0.5837
25631SOL    HW278568   4.876   3.552   4.766  0.5157 -1.2644  1.3424
25632SOL     OW78569   0.757   7.998   0.799  0.0543  0.1595  0.2182
25632SOL    HW178570   0.746   7.997   0.894 -0.2366  1.1282  0.2058
25632SOL    HW278571   0.717   8.080   0.772 -1.2281 -0.7865 -0.9043
25633SOL     OW78572   0.121   8.100   0.133 -0.1690 -0.0567  0.3726
25633SOL    HW178573   0.213   8.112   0.110  0.2612 -0.2120  1.9353
25633SOL    HW278574   0.073   8.149   0.066  1.0691  0.5404 -0.1053
25634SOL     OW78575   5.722   1.164   0.019  0.3519 -0.1157 -0.2209
25634SOL    HW178576   5.668   1.132   0.091  0.4949  0.9811  0.3983
25634SOL    HW278577   5.662   1.170  -0.056  0.0008 -0.4089  0.0324
25635SOL     OW78578   2.086   5.335   1.824  0.1321 -0.5861 -0.1413
25635SOL    HW178579   2.168   5.286   1.813 -0.0483 -1.4350  1.8753
25635SOL    HW278580   2.023   5.269   1.854 -0.6822  0.4949  0.5590
25636SOL     OW78581   7.858   4.690   8.023  0.0736 -0.3292 -0.1961
25636SOL    HW178582   7.821   4.601   8.017  2.2143 -1.2465 -0.9421
25636SOL    HW278583   7.783   4.746   8.042 -1.1760 -2.4306  1.4756
25637SOL     OW78584   5.401   1.660   5.735  0.3799  0.2589  0.0067
25637SOL    HW178585   5.336   1.723   5.766  1.3137  1.5064 -0.4580
25637SOL    HW278586   5.408   1.676   5.641  0.3726 -0.7995 -0.1818
25638SOL     OW78587   7.691   4.308   2.364 -0.1037  0.1134 -0.4429
25638SOL    HW178588   7.741   4.388   2.348  0.9551 -0.8447 -2.2502
25638SOL    HW278589   7.755   4.237   2.354 -1.3369 -1.0339 -0.4878
25639SOL     OW78590   1.975   4.954   8.600 -0.3948 -0.4901  0.5766
25639SOL    HW178591   1.962   5.048   8.587  1.3034 -0.2858  0.1563
25639SOL    HW278592   1.889   4.916   8.582 -0.7058  0.8195 -0.9682
25640SOL     OW78593   4.674   4.370   1.037 -0.1282 -0.1395  0.0029
25640SOL    HW178594   4.741   4.404   1.095 -1.1069  2.1812 -0.0913
25640SOL    HW278595   4.657   4.442   0.976 -2.2406 -0.8689 -0.3539
25641SOL     OW78596   9.121   8.847   7.918 -0.3124 -0.5781 -0.3138
25641SOL    HW178597   9.141   8.753   7.929  0.2099 -0.5145 -0.6354
25641SOL    HW278598   9.094   8.854   7.827 -0.9391 -0.5092 -0.1239
25642SOL     OW78599   5.146   2.735   8.292  0.1846 -0.0512 -0.4432
25642SOL    HW178600   5.191   2.758   8.373 -0.2339  1.7045 -0.6616
25642SOL    HW278601   5.085   2.808   8.277 -0.6985 -0.9867 -1.6345
25643SOL     OW78602   5.375   1.255   8.626 -0.3368 -0.2971  0.6973
25643SOL    HW178603   5.379   1.265   8.721  1.3900 -0.2026  0.6461
25643SOL    HW278604   5.466   1.248   8.598 -0.8557 -2.0750 -0.7775
25644SOL     OW78605   0.518   6.377   4.241  0.1001  0.3379  0.3592
25644SOL    HW178606   0.447   6.314   4.243  0.2236  0.1721 -0.1583
25644SOL    HW278607   0.593   6.331   4.279 -0.1211  0.5832  1.0977
25645SOL     OW78608   1.022   7.255   3.819 -0.4027  0.1531  0.1421
25645SOL    HW178609   0.990   7.165   3.808  0.5102 -0.0401 -1.1714
25645SOL    HW278610   1.117   7.247   3.811 -0.1672  1.0216  1.6716
25646SOL     OW78611   1.343   6.380   0.987 -0.1650  0.8698 -0.1225
25646SOL    HW178612   1.355   6.349   0.897  0.7025 -0.3045  0.3731
25646SOL    HW278613   1.387   6.465   0.988  0.9161  0.3353 -0.5027
25647SOL     OW78614   5.519   3.624   7.795  0.4372  0.0121 -0.0290
25647SOL    HW178615   5.578   3.559   7.833  0.1205 -1.2543 -1.6154
25647SOL    HW278616   5.563   3.651   7.714  0.0200  0.9446  0.0451
25648SOL     OW78617   3.832   1.732   2.303  0.2109  0.6449  0.6432
25648SOL    HW178618   3.818   1.801   2.238 -1.1190  0.1596  0.3801
25648SOL    HW278619   3.779   1.760   2.378  0.6481  0.5203  0.9986
25649SOL     OW78620   2.372   3.985   3.683  0.1604 -0.3631 -0.1600
25649SOL    HW178621   2.350   3.957   3.772  1.8212 -2.5323 -0.3765
25649SOL    HW278622   2.333   3.918   3.627  2.6928 -1.3807 -0.7997
25650SOL     OW78623   6.371   0.530   7.123 -0.0702 -0.2136  0.3377
25650SOL    HW178624   6.290   0.564   7.161  0.9456  1.4906  1.0851
25650SOL    HW278625   6.359   0.537   7.029 -0.6607  0.3258  0.4479
25651SOL     OW78626   2.185   3.404   0.473  0.4694 -0.1646  0.5528
25651SOL    HW178627   2.245   3.338   0.439  1.0578  1.0109 -0.8140
25651SOL    HW278628   2.151   3.448   0.395 -0.5731  0.5699  1.3869
25652SOL     OW78629   5.526   4.087   0.278 -0.1593  0.0389  0.1815
25652SOL    HW178630   5.562   4.041   0.202  2.8392 -0.0004  1.5039
25652SOL    HW278631   5.586   4.159   0.293 -1.6119  1.0237  1.5894
25653SOL     OW78632   8.117   4.641   5.731 -0.2809  0.2209 -0.0227
25653SOL    HW178633   8.205   4.611   5.751 -0.0144  0.8067 -0.3014
25653SOL    HW278634   8.064   4.562   5.730  0.3082 -0.1745 -0.1926
25654SOL     OW78635   0.193   2.365   7.032  0.6771 -0.0508 -0.7063
25654SOL    HW178636   0.197   2.294   7.096 -0.1031  0.3889 -0.1567
25654SOL    HW278637   0.275   2.413   7.044  0.0424  0.7072  0.7833
25655SOL     OW78638   8.194   1.313   9.336 -0.1335 -0.5299  0.5541
25655SOL    HW178639   8.274   1.365   9.345 -0.6747  0.1507  1.7582
25655SOL    HW278640   8.156   1.312   9.424 -1.7276 -0.3526 -0.0883
25656SOL     OW78641   8.108   5.403   2.651  0.5748 -0.2428  0.1882
25656SOL    HW178642   8.103   5.344   2.727  4.0667 -0.3613  0.5049
25656SOL    HW278643   8.109   5.345   2.575 -0.3762 -0.2732  0.1858
25657SOL     OW78644   8.253   4.480   2.802  0.2368 -0.5178 -0.6659
25657SOL    HW178645   8.212   4.536   2.735 -0.4779 -1.7386 -1.2702
25657SOL    HW278646   8.186   4.472   2.870  0.4340 -0.4505 -0.4637
25658SOL     OW78647   4.747   7.419   9.492  0.1537  0.1883 -0.0487
25658SOL    HW178648   4.704   7.351   9.440  0.8869 -0.9137  0.7356
25658SOL    HW278649   4.752   7.382   9.580  1.0040  1.0745  0.2909
25659SOL     OW78650   1.442   0.793   4.417  0.5587 -0.8526  0.6930
25659SOL    HW178651   1.410   0.860   4.478 -0.1701 -1.9906  1.6005
25659SOL    HW278652   1.528   0.826   4.389 -0.0961  0.8224  0.5064
25660SOL     OW78653   1.619   2.892   5.368  0.0032 -0.4178  0.0318
25660SOL    HW178654   1.655   2.817   5.319 -1.3739 -0.5370 -0.8434
25660SOL    HW278655   1.696   2.940   5.398  0.8978 -1.2774 -0.8141
25661SOL     OW78656   4.002   9.384   4.615  0.4379 -0.0333 -0.1145
25661SOL    HW178657   4.076   9.442   4.632  2.0877 -2.2079  0.6071
25661SOL    HW278658   4.022   9.305   4.664 -0.2229 -2.3529 -3.2721
25662SOL     OW78659   6.856   4.737   3.224  0.0988  0.3880 -0.1892
25662SOL    HW178660   6.898   4.714   3.141 -0.3156 -0.4427 -0.1797
25662SOL    HW278661   6.924   4.724   3.290 -0.1858 -1.0924 -0.1569
25663SOL     OW78662   7.556   1.949   4.802  0.1364  0.5901  0.3770
25663SOL    HW178663   7.606   1.869   4.781  0.1681  1.2014 -2.2830
25663SOL    HW278664   7.616   2.000   4.857  2.4372  1.1236 -2.3804
25664SOL     OW78665   0.085   1.276   3.465 -0.4636 -0.4945 -0.5865
25664SOL    HW178666   0.032   1.223   3.525 -1.5030  1.1712  0.0643
25664SOL    HW278667   0.162   1.223   3.446  0.0964 -0.9953  2.5392
25665SOL     OW78668   2.658   8.192   3.464  0.2946  0.3084  0.1284
25665SOL    HW178669   2.644   8.260   3.398  0.9604 -0.4359 -0.7998
25665SOL    HW278670   2.674   8.112   3.414 -0.7381 -0.6135  1.1995
25666SOL     OW78671   0.318   7.234   3.978  0.0407  0.1970  0.5274
25666SOL    HW178672   0.369   7.153   3.965 -0.1263  0.1578  0.0768
25666SOL    HW278673   0.274   7.248   3.894  0.0427  0.7411  0.6129
25667SOL     OW78674   8.728   9.033   9.431  0.6173 -0.0401  0.1869
25667SOL    HW178675   8.798   8.968   9.422  0.2433 -0.5148  0.6157
25667SOL    HW278676   8.765   9.101   9.487  0.5079 -0.6550  1.0392
25668SOL     OW78677   2.307   0.781   1.531  0.2775 -0.4978  0.0295
25668SOL    HW178678   2.347   0.729   1.601  0.1077 -0.9638 -0.2118
25668SOL    HW278679   2.270   0.716   1.471 -1.5425 -0.0682  0.6454
25669SOL     OW78680   0.167   6.787   0.648  0.5475 -0.1065  0.1698
25669SOL    HW178681   0.187   6.750   0.562  2.2668  1.9981 -0.4265
25669SOL    HW278682   0.193   6.718   0.710 -0.3608 -1.5085 -0.9226
25670SOL     OW78683   6.568   3.192   4.557  0.0036 -0.3473 -0.1367
25670SOL    HW178684   6.589   3.277   4.596 -0.5370 -0.4955  0.4892
25670SOL    HW278685   6.547   3.211   4.466  1.0780  0.0310 -0.3223
25671SOL     OW78686   9.418   1.655   3.564  0.3275 -0.2079 -0.5643
25671SOL    HW178687   9.442   1.563   3.577  2.8655  0.4021 -0.4221
25671SOL    HW278688   9.498   1.696   3.531 -0.4049  2.1852  0.4501
25672SOL     OW78689   5.203   1.024   1.300  0.0743 -0.7697 -0.1876
25672SOL    HW178690   5.241   0.982   1.222  1.7161 -1.1605  0.7602
25672SOL    HW278691   5.136   0.963   1.330  2.3166 -2.7749  1.0742
25673SOL     OW78692   3.012   1.791   9.177 -0.3986 -0.2996 -0.1639
25673SOL    HW178693   2.972   1.704   9.175 -2.0853  0.3212  2.3011
25673SOL    HW278694   3.091   1.780   9.230 -0.8650 -0.2544  0.5500
25674SOL     OW78695   4.911   2.352   1.004  0.1197  0.1649  0.2313
25674SOL    HW178696   4.970   2.355   1.078 -0.5762  0.0870  0.7979
25674SOL    HW278697   4.965   2.376   0.929  0.5490  1.5106  0.9462
25675SOL     OW78698   7.972   3.592   8.038 -0.0395  0.2857  0.1391
25675SOL    HW178699   7.899   3.649   8.014 -0.8733 -0.6897  0.3151
25675SOL    HW278700   7.964   3.582   8.133  0.1597 -0.0655  0.1170
25676SOL     OW78701   7.711   2.029   0.294 -0.1304  0.4206 -0.0004
25676SOL    HW178702   7.672   2.045   0.208 -1.3582  1.8896  0.7938
25676SOL    HW278703   7.652   2.071   0.356  2.1031  1.7347  1.3735
25677SOL     OW78704   3.705   0.629   6.746 -0.0181 -0.0589 -0.4256
25677SOL    HW178705   3.609   0.623   6.751 -0.0494  0.5272 -0.1946
25677SOL    HW278706   3.729   0.681   6.823  0.5337 -0.6151 -0.2121
25678SOL     OW78707   4.616   3.884   9.145  0.2404 -0.1312  1.0546
25678SOL    HW178708   4.563   3.805   9.159 -0.6878  0.5227  1.3527
25678SOL    HW278709   4.703   3.859   9.175  0.0729 -1.1812  0.7231
25679SOL     OW78710   3.360   7.985   1.794 -0.1386  0.1340 -0.2889
25679SOL    HW178711   3.387   7.939   1.715 -1.1603  0.0598 -0.6095
25679SOL    HW278712   3.443   8.009   1.837  0.4319  0.0843 -1.3158
25680SOL     OW78713   5.208   5.953   7.429  0.4831 -0.2549  0.2121
25680SOL    HW178714   5.124   5.908   7.424  0.3421  0.0229  0.0296
25680SOL    HW278715   5.185   6.046   7.426  0.6998 -0.1324  1.5324
25681SOL     OW78716   5.295   7.494   1.372  0.6657 -0.7333  0.0881
25681SOL    HW178717   5.207   7.460   1.388  0.6663 -0.6179  0.3496
25681SOL    HW278718   5.294   7.581   1.412  0.0280  0.4499 -2.2937
25682SOL     OW78719   1.076   5.214   3.879  0.9458  0.0370 -0.2814
25682SOL    HW178720   1.076   5.168   3.795  0.2367 -0.2452 -0.1309
25682SOL    HW278721   1.158   5.188   3.921  2.3601  1.8002 -1.7478
25683SOL     OW78722   5.442   1.794   3.466 -0.0059 -0.5971 -0.0600
25683SOL    HW178723   5.521   1.841   3.442 -1.4682  1.1543 -1.8497
25683SOL    HW278724   5.459   1.759   3.553  2.9090 -0.8070 -0.6414
25684SOL     OW78725   6.351   6.633   3.023  0.3119  0.1215  0.1734
25684SOL    HW178726   6.358   6.608   2.931 -1.6645  2.4605 -0.7401
25684SOL    HW278727   6.439   6.660   3.048  1.2703 -2.2285 -0.4249
25685SOL     OW78728   1.028   3.999   5.405 -0.7498 -0.0081  0.3179
25685SOL    HW178729   0.941   3.962   5.422 -0.5795 -0.7313 -0.3455
25685SOL    HW278730   1.086   3.923   5.400 -0.6681  0.1656 -2.7026
25686SOL     OW78731   5.081   2.102   3.681 -0.1003 -0.7882  0.0924
25686SOL    HW178732   5.093   2.077   3.772  1.4734  0.1707  0.1851
25686SOL    HW278733   5.027   2.181   3.685  0.6363 -0.2816  0.2700
25687SOL     OW78734   6.552   7.674   7.820 -0.1833 -0.1951  0.0679
25687SOL    HW178735   6.619   7.619   7.780  0.3182  0.3830  0.0936
25687SOL    HW278736   6.592   7.762   7.823 -0.5669 -0.0441  0.9785
25688SOL     OW78737   9.670   0.386   0.857 -0.1998  0.4041 -0.3905
25688SOL    HW178738   9.640   0.323   0.923  0.5642  0.6424  0.2153
25688SOL    HW278739   9.591   0.423   0.820 -0.8296 -2.8772 -2.7782
25689SOL     OW78740   1.160   6.880   0.220 -0.1400  0.5651 -0.3933
25689SOL    HW178741   1.105   6.808   0.190 -0.1520  0.2913  0.2759
25689SOL    HW278742   1.207   6.909   0.141 -1.0917  0.6814 -0.9298
25690SOL     OW78743   1.620   4.004   7.072 -0.3001 -0.3097 -0.1787
25690SOL    HW178744   1.647   3.924   7.027  1.1285 -0.3936  0.7715
25690SOL    HW278745   1.597   3.976   7.160  1.9940  0.5096  0.7524
25691SOL     OW78746   4.043   4.427   0.319  0.3284  0.4736 -0.5383
25691SOL    HW178747   4.114   4.444   0.257  0.5781 -0.4679 -0.5297
25691SOL    HW278748   4.080   4.452   0.404  0.9956 -0.8119 -0.4111
25692SOL     OW78749   1.305   4.329   3.533 -0.1348 -0.3581 -0.3803
25692SOL    HW178750   1.253   4.380   3.470  2.0964  1.0979 -1.1742
25692SOL    HW278751   1.354   4.395   3.582  1.5130 -1.6643 -0.1818
25693SOL     OW78752   1.916   5.276   5.639 -0.5936 -0.3490 -0.1633
25693SOL    HW178753   1.830   5.306   5.668 -0.2779  1.3955 -0.8698
25693SOL    HW278754   1.942   5.210   5.703 -2.3233 -0.7129  0.2067
25694SOL     OW78755   5.174   7.006   0.816 -0.0904  0.0784 -0.1906
25694SOL    HW178756   5.257   7.054   0.814  0.4119 -0.8044 -0.9870
25694SOL    HW278757   5.187   6.938   0.882 -0.7663  0.9239  0.8560
25695SOL     OW78758   8.472   6.748   6.933 -0.4905  0.1242 -0.2582
25695SOL    HW178759   8.387   6.747   6.977  0.0266  0.2325  0.7770
25695SOL    HW278760   8.514   6.829   6.963 -0.2527  0.3825 -1.2319
25696SOL     OW78761   1.996   8.350   2.537 -1.0318 -1.0183 -0.2375
25696SOL    HW178762   1.934   8.350   2.464 -0.7057  0.8099 -0.5661
25696SOL    HW278763   1.954   8.404   2.604  1.4404  3.1714 -1.7074
25697SOL     OW78764   2.748   3.701   1.707 -0.2725 -0.1279 -0.6516
25697SOL    HW178765   2.670   3.684   1.654  0.3635 -0.0338 -1.6452
25697SOL    HW278766   2.747   3.632   1.774 -1.5300  0.2501 -0.2680
25698SOL     OW78767   7.064   6.441   0.116 -0.0980 -0.2104 -0.2260
25698SOL    HW178768   6.989   6.451   0.175 -0.1307 -1.1281 -0.0938
25698SOL    HW278769   7.072   6.525   0.072 -0.1966  0.4362  0.9538
25699SOL     OW78770   4.946   3.425   7.598 -0.1826 -0.2373  0.4305
25699SOL    HW178771   5.017   3.378   7.555  0.5077  2.1485 -1.2174
25699SOL    HW278772   4.985   3.462   7.677 -0.0506 -0.2521  0.3719
25700SOL     OW78773   5.697   6.833   9.262 -0.6672 -0.0477  0.1988
25700SOL    HW178774   5.709   6.928   9.255  0.1861 -0.3012 -2.7851
25700SOL    HW278775   5.757   6.807   9.332 -0.1587  1.4540  0.3674
25701SOL     OW78776   0.533   9.355   1.410 -0.1499  0.0345  0.2528
25701SOL    HW178777   0.610   9.350   1.466 -1.4688 -2.7130  2.0332
25701SOL    HW278778   0.565   9.330   1.323  1.2536  0.7281  0.5396
25702SOL     OW78779   4.707   5.064   8.879 -0.1377  0.0428  0.5072
25702SOL    HW178780   4.686   5.132   8.942 -0.3320  1.6115 -1.1585
25702SOL    HW278781   4.678   4.982   8.920 -0.8625  1.0682  2.1218
25703SOL     OW78782   4.686   3.855   4.388 -0.6637 -0.2174 -0.2243
25703SOL    HW178783   4.688   3.945   4.356 -0.2917 -0.4028 -0.7333
25703SOL    HW278784   4.744   3.856   4.464 -1.3622  0.1682  0.3250
25704SOL     OW78785   1.040   7.359   9.196  0.2533  0.0044  0.1757
25704SOL    HW178786   0.975   7.416   9.237  0.3154 -0.0532  0.3551
25704SOL    HW278787   1.003   7.271   9.204 -1.0592  0.2277 -2.3404
25705SOL     OW78788   6.684   3.825   2.441 -0.3927  0.2432 -0.0467
25705SOL    HW178789   6.667   3.818   2.347 -0.2820  2.2154 -0.2624
25705SOL    HW278790   6.656   3.914   2.463  1.2253  0.4367  1.4116
25706SOL     OW78791   3.131   7.900   8.811 -0.1993 -0.8208 -0.2901
25706SOL    HW178792   3.053   7.854   8.842 -0.2855 -1.8428 -1.9113
25706SOL    HW278793   3.109   7.993   8.820 -0.5375 -1.0566  1.7828
25707SOL     OW78794   3.599   6.857   9.224  0.2150  0.5268  0.3116
25707SOL    HW178795   3.509   6.825   9.218  0.8260 -1.1715 -0.3866
25707SOL    HW278796   3.602   6.930   9.162 -0.3414 -0.2735 -0.6845
25708SOL     OW78797   8.770   5.507   5.941  0.0094  0.2686  0.0219
25708SOL    HW178798   8.846   5.512   5.999  1.9301 -1.6680 -2.1063
25708SOL    HW278799   8.729   5.423   5.961 -0.6173  0.5738  0.0427
25709SOL     OW78800   7.826   8.860   5.588  0.0612 -0.1055  0.4432
25709SOL    HW178801   7.889   8.922   5.624  1.1646 -0.9722  0.0841
25709SOL    HW278802   7.871   8.775   5.592 -1.1180 -0.7719  0.2412
25710SOL     OW78803   6.428   7.769   3.684  0.0971 -0.6775 -0.0063
25710SOL    HW178804   6.465   7.715   3.755 -0.7440  1.5174  2.2448
25710SOL    HW278805   6.336   7.744   3.682  0.1945 -1.0208 -0.6725
25711SOL     OW78806   2.256   3.648   4.456 -0.5203  0.0946 -0.6045
25711SOL    HW178807   2.202   3.620   4.530  2.3478  1.5930  2.3107
25711SOL    HW278808   2.293   3.567   4.422 -0.6135 -0.5648  0.7677
25712SOL     OW78809   4.607   0.508   8.976  0.2819 -0.1485  0.1882
25712SOL    HW178810   4.561   0.541   9.053  0.0391  1.2005 -0.5060
25712SOL    HW278811   4.661   0.582   8.947 -0.9567 -0.0210 -1.9483
25713SOL     OW78812   2.313   5.959   2.129 -0.1645 -0.0020 -0.0831
25713SOL    HW178813   2.327   6.053   2.131  0.3588 -0.0891  0.6494
25713SOL    HW278814   2.256   5.941   2.204  0.7854 -0.4207  0.5617
25714SOL     OW78815   1.108   6.715   4.104  0.2182  0.2824  0.2724
25714SOL    HW178816   1.023   6.705   4.148  0.6958 -2.3583  0.7691
25714SOL    HW278817   1.146   6.793   4.144 -0.8252 -0.0588  2.0780
25715SOL     OW78818   1.169   8.674   2.572  0.2642  0.1516  0.0908
25715SOL    HW178819   1.124   8.759   2.565 -1.9669 -0.6362  2.9405
25715SOL    HW278820   1.239   8.689   2.636  1.0626  0.2331 -0.7826
25716SOL     OW78821   5.044   1.562   4.471  0.3922  0.0614  0.4729
25716SOL    HW178822   5.025   1.656   4.478  1.1798  0.3996 -1.3411
25716SOL    HW278823   5.001   1.534   4.390  0.1068 -1.1794  1.0263
25717SOL     OW78824   4.835   3.079   6.301 -0.2559 -0.1253  0.2435
25717SOL    HW178825   4.875   3.164   6.284 -2.3961  0.8202 -0.3801
25717SOL    HW278826   4.773   3.066   6.229 -1.0113 -1.5372  1.0915
25718SOL     OW78827   6.417   5.726   6.548  0.6447  0.7165  0.0146
25718SOL    HW178828   6.336   5.703   6.594  0.9196 -2.2131 -0.7770
25718SOL    HW278829   6.400   5.702   6.457  2.6549 -0.7960 -0.0144
25719SOL     OW78830   2.591   8.216   2.979 -0.4653  0.5013 -0.0422
25719SOL    HW178831   2.506   8.175   2.962 -1.4866  2.1280  0.8642
25719SOL    HW278832   2.654   8.144   2.976 -1.9652 -0.8620  0.0268
25720SOL     OW78833   4.749   9.246   6.581  0.5556  0.3877 -0.3296
25720SOL    HW178834   4.796   9.315   6.534 -1.0667  0.2573 -2.2977
25720SOL    HW278835   4.674   9.292   6.620  1.7583  0.4555  2.1090
25721SOL     OW78836   8.848   9.273   6.705 -0.6882  0.3394  0.1738
25721SOL    HW178837   8.885   9.249   6.620  0.1884  1.2509  0.2937
25721SOL    HW278838   8.764   9.225   6.708 -1.2727  1.1545 -1.6752
25722SOL     OW78839   8.424   7.548   1.034 -0.3621  0.0937  0.1284
25722SOL    HW178840   8.503   7.588   1.069  0.3192 -0.9840 -0.1291
25722SOL    HW278841   8.426   7.458   1.067 -1.5056  0.0601  0.1529
25723SOL     OW78842   2.267   0.519   5.916  0.2459  0.2334  0.0320
25723SOL    HW178843   2.344   0.464   5.904  0.2043  0.5698 -2.2701
25723SOL    HW278844   2.302   0.608   5.924  0.1745  0.8517 -4.1815
25724SOL     OW78845   3.710   4.395   3.523 -0.4516  0.6899 -0.1057
25724SOL    HW178846   3.672   4.308   3.535 -0.2984  0.3217 -2.0303
25724SOL    HW278847   3.742   4.419   3.610  0.3332 -1.5641  0.2924
25725SOL     OW78848   9.389   9.571   2.891  1.0470  0.4558  0.0468
25725SOL    HW178849   9.368   9.628   2.817  0.6367  0.2749  0.0183
25725SOL    HW278850   9.448   9.505   2.854  4.2809  2.7146  0.7930
25726SOL     OW78851   0.904   5.415   4.646 -0.2031  0.0976 -0.0280
25726SOL    HW178852   0.818   5.448   4.669 -0.7913  0.1891 -2.1333
25726SOL    HW278853   0.943   5.485   4.593  1.7314  0.6143  1.9506
25727SOL     OW78854   5.257   3.674   7.693  0.0497 -0.1134  0.4795
25727SOL    HW178855   5.270   3.621   7.615 -1.0760  0.1656  0.0899
25727SOL    HW278856   5.335   3.658   7.746  0.5020 -0.8416 -0.3852
25728SOL     OW78857   1.161   9.603   3.406 -0.5523  0.0669  0.0917
25728SOL    HW178858   1.156   9.655   3.486  0.2301  0.3824 -0.0511
25728SOL    HW278859   1.132   9.515   3.432 -1.8524  0.5509  0.3373
25729SOL     OW78860   1.244   9.573   9.190  0.5894 -0.0983  0.2394
25729SOL    HW178861   1.196   9.554   9.271 -0.5422  0.8882 -0.1565
25729SOL    HW278862   1.309   9.639   9.216 -1.1557  1.8170  0.0094
25730SOL     OW78863   7.569   7.413   8.855  0.0265  0.1129  0.2874
25730SOL    HW178864   7.645   7.357   8.870  0.9917  2.1185  4.0788
25730SOL    HW278865   7.497   7.367   8.898  0.6128  1.1480  2.5284
25731SOL     OW78866   7.233   5.755   2.024  0.2116  0.5693  0.0396
25731SOL    HW178867   7.170   5.694   2.063  1.2402 -0.3758  0.2557
25731SOL    HW278868   7.295   5.774   2.095  0.6789  0.7954 -0.4257
25732SOL     OW78869   3.700   5.868   6.355  0.0362  0.0522  0.3379
25732SOL    HW178870   3.676   5.904   6.440  0.0374 -0.9927  0.8076
25732SOL    HW278871   3.691   5.941   6.294  0.6612  0.9983  1.3336
25733SOL     OW78872   8.779   4.065   2.910  0.2571  0.2686  0.0196
25733SOL    HW178873   8.711   4.111   2.861  0.9945  1.2565 -0.1128
25733SOL    HW278874   8.770   4.099   2.999 -0.0815 -0.3767  0.2395
25734SOL     OW78875   2.085   8.123   9.474 -0.0030 -0.1133 -0.4138
25734SOL    HW178876   2.161   8.079   9.512  0.9028  0.5182 -1.4170
25734SOL    HW278877   2.091   8.105   9.380  0.8544  2.7202 -0.9900
25735SOL     OW78878   7.828   7.140   1.187 -0.3089 -0.1404  0.6596
25735SOL    HW178879   7.880   7.213   1.154 -0.6042 -0.5703 -0.8435
25735SOL    HW278880   7.738   7.160   1.161 -0.2851 -1.4006 -0.5083
25736SOL     OW78881   5.268   6.295   6.727 -0.3489 -0.1398  0.1542
25736SOL    HW178882   5.247   6.245   6.649 -1.2229  0.3251  0.0824
25736SOL    HW278883   5.259   6.386   6.701 -0.1722  0.0311  0.6670
25737SOL     OW78884   4.107   4.125   0.242  0.5075  0.6810  0.7686
25737SOL    HW178885   4.143   4.091   0.324  0.3735 -1.0908  0.1319
25737SOL    HW278886   4.163   4.199   0.220  1.7462 -0.0038  1.4857
25738SOL     OW78887   4.408   1.217   5.166  0.1100  0.2620 -0.1005
25738SOL    HW178888   4.322   1.181   5.184 -1.8864  4.0626 -1.0109
25738SOL    HW278889   4.412   1.297   5.219  2.4509  0.9668 -1.2099
25739SOL     OW78890   2.169   7.051   7.375  0.4494 -0.3264 -0.1788
25739SOL    HW178891   2.262   7.049   7.354  0.6574 -0.7093  0.7257
25739SOL    HW278892   2.141   6.960   7.369  0.3138 -0.3182  0.2966
25740SOL     OW78893   7.055   9.416   0.102  0.1976  0.1219  0.1642
25740SOL    HW178894   7.052   9.509   0.081 -0.6215  0.6568  2.3567
25740SOL    HW278895   6.988   9.377   0.047  0.2665  0.9017 -0.4801
25741SOL     OW78896   5.431   5.393   2.485  0.1461 -0.0324  0.2487
25741SOL    HW178897   5.454   5.305   2.454  1.1894 -0.0325  0.9711
25741SOL    HW278898   5.420   5.445   2.406 -1.7923 -1.1039 -0.2564
25742SOL     OW78899   0.613   2.238   5.372 -0.1353 -0.2599 -0.0322
25742SOL    HW178900   0.590   2.325   5.338  0.7510  0.7318  1.7941
25742SOL    HW278901   0.573   2.234   5.459  0.9099 -1.1700  0.4269
25743SOL     OW78902   6.202   8.926   9.584 -0.7963 -0.0730  0.2512
25743SOL    HW178903   6.232   8.836   9.593  1.5537  0.5580 -0.6686
25743SOL    HW278904   6.240   8.972   9.658  2.2290  1.0895 -1.8228
25744SOL     OW78905   7.927   1.881   9.108  0.1052  0.1732 -0.1129
25744SOL    HW178906   7.942   1.806   9.051 -1.2364  0.2030 -0.5289
25744SOL    HW278907   7.934   1.957   9.051  0.7137  0.3299  0.1603
25745SOL     OW78908   4.917   5.462   9.302 -0.2088 -0.3755  0.2092
25745SOL    HW178909   4.966   5.460   9.219  1.1191  2.9957  0.7295
25745SOL    HW278910   4.852   5.531   9.289  0.1630  0.3551  1.9993
25746SOL     OW78911   2.199   2.581   4.000  0.0892 -0.0221  0.1538
25746SOL    HW178912   2.126   2.636   3.971  0.2845 -0.2919 -0.9024
25746SOL    HW278913   2.158   2.511   4.050 -0.2851  0.3255  0.3450
25747SOL     OW78914   4.626   8.489   4.786  0.3114  0.5691 -0.3299
25747SOL    HW178915   4.631   8.474   4.881  0.8266 -1.3754 -0.6094
25747SOL    HW278916   4.533   8.480   4.766  0.0450  2.1016  0.1213
25748SOL     OW78917   6.770   7.229   6.963 -0.4743 -0.2615 -0.3339
25748SOL    HW178918   6.735   7.205   6.877  0.5262 -0.5097 -0.6804
25748SOL    HW278919   6.749   7.153   7.018 -1.3490  0.0066 -0.2778
25749SOL     OW78920   3.319   6.528   1.630 -0.2473  0.5939 -0.1096
25749SOL    HW178921   3.357   6.463   1.690  0.1344  1.2325  0.3465
25749SOL    HW278922   3.248   6.481   1.587  1.1356 -0.6864 -1.0898
25750SOL     OW78923   8.921   0.696   0.682  0.3547 -0.4350 -0.2563
25750SOL    HW178924   8.915   0.755   0.756 -0.9477 -1.3559  0.4230
25750SOL    HW278925   8.958   0.615   0.718  1.3711 -0.3210 -0.9983
25751SOL     OW78926   1.107   6.785   5.185  0.4664 -0.0873 -0.0454
25751SOL    HW178927   1.153   6.817   5.108 -0.8974  0.4231 -0.6822
25751SOL    HW278928   1.088   6.863   5.237  2.7154 -0.5560  1.6456
25752SOL     OW78929   7.660   7.776   6.716  0.4909 -0.5108  0.2350
25752SOL    HW178930   7.574   7.749   6.747  0.0174 -0.8399 -1.2696
25752SOL    HW278931   7.642   7.825   6.636  1.6359  0.5102  0.5752
25753SOL     OW78932   4.243   0.881   1.668 -0.0439  0.3254 -0.5800
25753SOL    HW178933   4.209   0.914   1.585 -2.0274  1.3601  0.5767
25753SOL    HW278934   4.217   0.789   1.671  0.4371  0.1585 -1.2690
25754SOL     OW78935   9.576   3.789   3.764  0.5106 -0.5522 -0.2360
25754SOL    HW178936   9.576   3.885   3.763  0.8543 -0.5537 -0.3229
25754SOL    HW278937   9.541   3.764   3.679 -0.6474 -0.5046  0.1978
25755SOL     OW78938   9.562   3.678   5.654 -0.4474  0.0995  0.5469
25755SOL    HW178939   9.569   3.745   5.586 -2.3952  0.3320  0.5174
25755SOL    HW278940   9.624   3.610   5.626 -0.4571  0.6418 -0.9185
25756SOL     OW78941   2.496   5.887   6.563  0.0472 -0.1485 -0.2532
25756SOL    HW178942   2.473   5.858   6.474 -1.0011  1.1783 -0.4508
25756SOL    HW278943   2.552   5.964   6.549  0.6519 -0.4898  0.2488
25757SOL     OW78944   4.150   0.590   6.682  0.1104 -0.2071 -0.0920
25757SOL    HW178945   4.159   0.627   6.594  0.3174 -0.1325 -0.0399
25757SOL    HW278946   4.077   0.528   6.674  0.3745 -0.4838 -0.4115
25758SOL     OW78947   3.851   8.007   3.531  0.0378  0.1164  0.2650
25758SOL    HW178948   3.890   7.928   3.567  0.0455  0.4930  1.1185
25758SOL    HW278949   3.886   8.078   3.586  2.0359  1.0308 -2.0140
25759SOL     OW78950   2.373   7.910   3.273 -0.1748  0.3761  0.4663
25759SOL    HW178951   2.379   7.984   3.334  0.1957 -0.8497  1.9773
25759SOL    HW278952   2.410   7.836   3.322  0.2812 -0.6298 -1.3160
25760SOL     OW78953   0.883   1.809   6.674  0.1793  0.0441 -0.3013
25760SOL    HW178954   0.946   1.823   6.602 -1.4838  0.1908 -1.7951
25760SOL    HW278955   0.885   1.715   6.689  1.3902  0.1420  0.3077
25761SOL     OW78956   5.801   8.915   5.420  0.1458 -0.0510 -0.4829
25761SOL    HW178957   5.730   8.882   5.475  0.9911 -0.3302  0.4758
25761SOL    HW278958   5.764   8.918   5.332 -1.3476  0.7029  0.1307
25762SOL     OW78959   8.880   0.202   5.550 -0.0534 -0.3037 -0.4096
25762SOL    HW178960   8.834   0.154   5.620  1.4071 -1.9917 -0.5531
25762SOL    HW278961   8.948   0.251   5.596 -1.6671  1.9436 -0.2366
25763SOL     OW78962   9.613   4.248   2.515  0.4879  0.0683 -0.0980
25763SOL    HW178963   9.573   4.334   2.506 -0.1480  0.1585  2.5663
25763SOL    HW278964   9.698   4.265   2.554 -0.2368 -0.5119  1.8622
25764SOL     OW78965   2.160   1.634   8.283  0.1243 -0.3246 -0.0486
25764SOL    HW178966   2.182   1.696   8.352 -2.9637 -0.3744  1.1532
25764SOL    HW278967   2.219   1.560   8.297  0.6397  0.3529  1.5459
25765SOL     OW78968   6.421   2.963   7.011 -0.3165  0.3934  0.1688
25765SOL    HW178969   6.408   3.046   7.057 -2.0022 -0.0328  0.5089
25765SOL    HW278970   6.498   2.979   6.955 -0.1549  1.9254  0.7723
25766SOL     OW78971   3.479   7.049   5.642  0.3409  0.1985  0.5656
25766SOL    HW178972   3.529   7.087   5.571  2.8397 -1.0149  1.5464
25766SOL    HW278973   3.407   7.003   5.599  1.3911  0.0506 -1.1126
25767SOL     OW78974   2.481   2.103   8.791  0.1870 -0.1546  0.0256
25767SOL    HW178975   2.453   2.155   8.715  1.4145  1.7641  0.8114
25767SOL    HW278976   2.570   2.134   8.809 -0.1493 -0.3910  2.3705
25768SOL     OW78977   2.228   3.506   0.995  0.1232  0.1770  0.3085
25768SOL    HW178978   2.215   3.428   1.049 -0.2935  0.3648  0.4804
25768SOL    HW278979   2.310   3.543   1.026  3.3830 -3.1019 -3.2679
25769SOL     OW78980   0.579   6.719   1.341  0.3656 -0.3856  0.2889
25769SOL    HW178981   0.563   6.794   1.285  2.2649  0.2687  0.5559
25769SOL    HW278982   0.622   6.755   1.418  1.1520 -1.7215  0.5120
25770SOL     OW78983   3.877   4.333   5.752 -0.2660 -0.0795  0.4715
25770SOL    HW178984   3.907   4.356   5.664 -0.8482  0.2872  0.3559
25770SOL    HW278985   3.790   4.295   5.738 -0.5385  0.3637  0.9155
25771SOL     OW78986   7.532   2.382   5.302 -0.0910  0.2279  0.0624
25771SOL    HW178987   7.554   2.346   5.216 -0.7492  0.0190 -0.0186
25771SOL    HW278988   7.615   2.418   5.334  0.5602 -1.2095  0.0852
25772SOL     OW78989   4.773   9.480   2.221 -0.2416 -0.0898 -0.1725
25772SOL    HW178990   4.836   9.551   2.234  0.9708 -0.9108 -1.2693
25772SOL    HW278991   4.795   9.416   2.289 -2.1305  1.0504  1.6105
25773SOL     OW78992   6.003   3.956   1.975  0.0989 -0.2384 -0.3914
25773SOL    HW178993   5.928   3.922   1.927 -0.6996  0.4312  0.3435
25773SOL    HW278994   6.068   3.976   1.907 -1.2168  1.2515 -1.3010
25774SOL     OW78995   3.214   8.140   3.096  0.1485  0.4355  0.3237
25774SOL    HW178996   3.227   8.150   3.190 -2.0317 -0.6776  0.8106
25774SOL    HW278997   3.295   8.100   3.064  0.7710  0.4676  1.7929
25775SOL     OW78998   6.018   1.688   4.758  0.1028  0.9060 -0.7238
25775SOL    HW178999   6.087   1.624   4.773 -1.9673 -1.1358  0.9549
25775SOL    HW279000   6.049   1.741   4.685  3.2459 -0.0701 -0.2263
25776SOL     OW79001   5.433   8.019   7.591 -0.3330  0.2008 -0.4840
25776SOL    HW179002   5.449   7.925   7.602 -0.6181 -0.1001 -2.3261
25776SOL    HW279003   5.410   8.050   7.679  2.1642 -0.9499  0.6830
25777SOL     OW79004   4.791   7.925   9.490 -0.1732 -0.6014  0.1806
25777SOL    HW179005   4.717   7.965   9.443  0.3283 -0.7125 -0.7290
25777SOL    HW279006   4.828   7.863   9.427 -0.2687 -1.7156  1.1854
25778SOL     OW79007   5.501   7.527   7.214 -0.1466  0.3584  0.4016
25778SOL    HW179008   5.547   7.506   7.133 -1.1217 -1.7196  0.3297
25778SOL    HW279009   5.409   7.509   7.195 -0.4481  0.2762  1.8108
25779SOL     OW79010   4.362   8.212   0.809 -0.1094  0.2591 -0.0329
25779SOL    HW179011   4.337   8.170   0.891 -1.6321 -1.1367 -1.1403
25779SOL    HW279012   4.360   8.306   0.828  0.7504 -0.0530  1.8047
25780SOL     OW79013   6.289   9.118   4.811 -0.3987 -0.1675 -0.2502
25780SOL    HW179014   6.365   9.161   4.772 -0.0230 -1.0489 -0.5087
25780SOL    HW279015   6.281   9.035   4.764  0.3725 -1.5032  1.8320
25781SOL     OW79016   7.551   4.344   9.364  0.1197 -0.3432 -0.7865
25781SOL    HW179017   7.634   4.300   9.347 -0.5906 -1.2140 -2.1842
25781SOL    HW279018   7.491   4.274   9.390 -0.0099  0.3828  1.0975
25782SOL     OW79019   8.680   8.030   4.050 -0.0841 -0.1687  0.4194
25782SOL    HW179020   8.601   8.036   3.996 -0.5787  0.1187  1.1425
25782SOL    HW279021   8.752   8.056   3.993 -0.3734 -1.4176 -0.5559
25783SOL     OW79022   5.864   3.418   4.856  0.6396 -0.2852 -0.2961
25783SOL    HW179023   5.817   3.495   4.825  0.0717 -1.3986 -2.3835
25783SOL    HW279024   5.836   3.407   4.947 -1.5228  0.3128 -0.8409
25784SOL     OW79025   5.566   5.101   4.569  0.4416 -0.4950 -0.1158
25784SOL    HW179026   5.653   5.100   4.530 -0.0039  0.3141 -1.1855
25784SOL    HW279027   5.581   5.088   4.662  1.9757  2.4174  0.1587
25785SOL     OW79028   6.692   7.905   5.441  0.2778 -0.2062  0.2498
25785SOL    HW179029   6.707   7.815   5.468  0.7895 -0.2148 -0.0482
25785SOL    HW279030   6.601   7.907   5.410  0.5328 -0.8234 -0.5547
25786SOL     OW79031   0.461   9.092   4.380 -0.8559  0.3081 -0.3614
25786SOL    HW179032   0.534   9.140   4.341  0.5940 -0.7613  0.9405
25786SOL    HW279033   0.479   9.092   4.474 -0.8036 -2.7076 -0.2800
25787SOL     OW79034   6.785   4.529   6.466  0.1606  0.3927  0.3923
25787SOL    HW179035   6.803   4.614   6.505  1.4307  0.2489  0.1502
25787SOL    HW279036   6.728   4.549   6.391  0.5020  1.0321  0.2973
25788SOL     OW79037   6.214   0.949   6.070 -0.3325 -0.2711  0.1362
25788SOL    HW179038   6.240   1.041   6.061  2.1153 -1.0347 -1.6962
25788SOL    HW279039   6.134   0.942   6.018  0.0459  0.5947 -0.5894
25789SOL     OW79040   1.138   5.522   3.324 -0.1721 -0.2563 -0.2409
25789SOL    HW179041   1.152   5.616   3.332 -1.7742  0.0265 -0.4678
25789SOL    HW279042   1.070   5.502   3.388 -0.7882 -1.0149 -1.1141
25790SOL     OW79043   3.206   1.672   9.325 -0.5321  0.2109  0.0890
25790SOL    HW179044   3.291   1.697   9.290 -0.4844 -0.9118 -0.6438
25790SOL    HW279045   3.219   1.582   9.358 -1.3040  0.2129  0.4231
25791SOL     OW79046   5.515   1.936   1.303  0.2482  1.0274 -0.3857
25791SOL    HW179047   5.501   1.850   1.342 -1.4059  1.5792  0.3748
25791SOL    HW279048   5.606   1.936   1.274  0.3905 -0.8165 -0.0326
25792SOL     OW79049   8.243   8.163   0.313  0.6552  0.3788  0.1258
25792SOL    HW179050   8.174   8.226   0.336  0.6531  0.1831  0.6679
25792SOL    HW279051   8.290   8.205   0.241  0.7305  1.0664  0.5549
25793SOL     OW79052   5.933   4.707   1.490  0.0970  0.4302  0.3843
25793SOL    HW179053   5.964   4.785   1.536  0.0117  0.9463 -0.4118
25793SOL    HW279054   5.850   4.735   1.450 -0.2850 -0.2801  0.6747
25794SOL     OW79055   9.271   5.519   2.047 -0.7237  0.7720  0.1343
25794SOL    HW179056   9.297   5.602   2.086  0.0941  0.7568 -0.3721
25794SOL    HW279057   9.184   5.501   2.084 -0.7736  1.6979  0.4716
25795SOL     OW79058   1.295   2.863   7.195 -0.1596 -0.1000 -0.2699
25795SOL    HW179059   1.280   2.816   7.277  1.8355 -0.0915  0.1443
25795SOL    HW279060   1.307   2.954   7.222  1.0253 -0.1776 -0.4734
25796SOL     OW79061   2.599   7.121   6.488 -0.3696 -0.1140 -0.7901
25796SOL    HW179062   2.652   7.073   6.425 -1.4128 -1.5769 -0.5944
25796SOL    HW279063   2.537   7.171   6.435 -2.1965 -2.4375 -1.0094
25797SOL     OW79064   9.326   6.105   7.323 -0.2065 -0.6227 -0.1912
25797SOL    HW179065   9.410   6.139   7.292 -0.5759 -0.9852 -1.6822
25797SOL    HW279066   9.343   6.078   7.413  0.8970  0.6283  0.0108
25798SOL     OW79067   8.821   2.760   2.817 -0.5160  0.6148  0.1993
25798SOL    HW179068   8.830   2.666   2.805  0.5263  0.8879 -1.6099
25798SOL    HW279069   8.890   2.784   2.878  0.6953  0.4608 -1.0441
25799SOL     OW79070   7.024   6.926   6.844 -0.1642 -0.0288  0.2525
25799SOL    HW179071   7.030   7.021   6.850 -1.9905  0.2162 -1.0861
25799SOL    HW279072   7.107   6.899   6.805  0.4374  0.9747  0.8125
25800SOL     OW79073   4.741   5.544   0.142  0.0643  0.6355 -0.0109
25800SOL    HW179074   4.788   5.533   0.060  0.5442 -1.5389  0.4898
25800SOL    HW279075   4.807   5.531   0.210 -0.9228 -1.0575  0.6934
25801SOL     OW79076   8.072   4.502   4.695  0.2131 -0.7183 -0.1728
25801SOL    HW179077   8.164   4.497   4.721  0.1050 -1.7916  0.0766
25801SOL    HW279078   8.051   4.595   4.699  0.9343 -0.5728  1.0585
25802SOL     OW79079   0.901   6.655   4.266  0.1307  0.1336  0.4795
25802SOL    HW179080   0.925   6.639   4.358  2.0173  0.8158  0.1431
25802SOL    HW279081   0.810   6.626   4.260  0.0370 -0.1418  2.5090
25803SOL     OW79082   0.637   8.513   2.878 -0.3772 -0.1147 -0.2977
25803SOL    HW179083   0.569   8.580   2.884  0.8200  1.2833 -1.3391
25803SOL    HW279084   0.659   8.510   2.785  2.7226  1.3834  0.2598
25804SOL     OW79085   0.894   7.704   3.304  0.6101  0.1100 -0.1784
25804SOL    HW179086   0.989   7.712   3.296  0.6364 -0.5678 -0.6560
25804SOL    HW279087   0.881   7.647   3.379  0.5704  0.4932  0.1055
25805SOL     OW79088   1.103   5.880   1.989 -0.0243  0.5477 -0.5346
25805SOL    HW179089   1.169   5.948   1.973 -0.0862  0.8281  0.3495
25805SOL    HW279090   1.099   5.831   1.907  0.6372  1.0840 -0.9004
25806SOL     OW79091   6.254   5.266   3.407 -0.0312 -0.3419 -0.1758
25806SOL    HW179092   6.306   5.215   3.469 -1.0601 -2.5637 -1.0182
25806SOL    HW279093   6.281   5.356   3.422  0.8905 -0.9456  2.3816
25807SOL     OW79094   1.263   7.471   0.221 -0.3626  0.1709 -0.1531
25807SOL    HW179095   1.249   7.448   0.129 -1.5735 -3.8934  0.8332
25807SOL    HW279096   1.339   7.420   0.248 -0.5302  0.6333  1.2978
25808SOL     OW79097   4.443   5.770   7.321 -0.0669  0.1399 -0.1277
25808SOL    HW179098   4.447   5.800   7.230  1.6278  0.8574  0.1563
25808SOL    HW279099   4.368   5.818   7.358 -0.2170  0.5273 -0.9052
25809SOL     OW79100   5.022   2.984   5.952 -0.7048  0.0620 -0.7758
25809SOL    HW179101   5.018   2.942   5.866 -3.0708  0.9929 -1.1929
25809SOL    HW279102   4.993   3.074   5.937 -0.6203  0.4166  0.9169
25810SOL     OW79103   2.124   4.239   7.661 -0.0940  0.4019 -0.1545
25810SOL    HW179104   2.178   4.310   7.695 -2.1635  1.6701  0.6894
25810SOL    HW279105   2.100   4.189   7.739 -0.3147 -0.0363 -0.4984
25811SOL     OW79106   7.013   1.483   9.078 -0.1569 -0.2641  0.0349
25811SOL    HW179107   6.958   1.465   9.002  1.7597  0.4750 -1.6292
25811SOL    HW279108   6.972   1.435   9.150 -2.4277 -0.4313 -1.2939
25812SOL     OW79109   3.499   2.416   7.962 -0.0722 -0.4502 -0.2059
25812SOL    HW179110   3.583   2.452   7.934 -0.0148 -0.2572  0.1964
25812SOL    HW279111   3.435   2.453   7.902  0.1997 -1.0556 -0.8749
25813SOL     OW79112   0.191   5.985   3.038  0.0947 -0.2564 -0.1992
25813SOL    HW179113   0.194   5.898   2.998  2.2416  0.2488 -1.2688
25813SOL    HW279114   0.098   6.004   3.047 -0.4949 -1.2182 -3.2318
25814SOL     OW79115   8.347   4.392   6.256  0.2320 -0.5041 -0.4002
25814SOL    HW179116   8.270   4.345   6.287  1.0351 -1.2791  0.4829
25814SOL    HW279117   8.369   4.352   6.172 -0.6793  0.1476 -0.9693
25815SOL     OW79118   4.811   1.472   3.576  0.4711  0.6499  0.2005
25815SOL    HW179119   4.827   1.554   3.530 -0.6291  0.3837 -0.7195
25815SOL    HW279120   4.888   1.419   3.557 -0.0357  0.4718 -1.5891
25816SOL     OW79121   5.405   5.292   1.275 -0.1717 -0.2078  0.2588
25816SOL    HW179122   5.430   5.334   1.357  1.2679  0.7317 -0.6183
25816SOL    HW279123   5.326   5.339   1.248 -0.2062 -0.0008  0.7069
25817SOL     OW79124   9.101   2.021   4.619  0.4913  0.3281  0.2286
25817SOL    HW179125   9.013   1.983   4.630  0.0993  1.0306 -0.4331
25817SOL    HW279126   9.158   1.963   4.670 -0.2422 -0.5868  0.0432
25818SOL     OW79127   3.186   0.739   9.059 -0.0711  0.4153 -0.2363
25818SOL    HW179128   3.125   0.800   9.100 -2.5216 -1.2582 -1.2035
25818SOL    HW279129   3.225   0.789   8.987 -0.0548  1.6123  0.5771
25819SOL     OW79130   4.015   3.116   1.558 -0.7611  0.0442 -0.6110
25819SOL    HW179131   4.102   3.144   1.528 -1.2421  2.3959  0.0145
25819SOL    HW279132   3.968   3.094   1.478  0.3810 -1.2579 -0.9607
25820SOL     OW79133   5.988   1.284   0.069 -0.3236 -0.4872 -0.4449
25820SOL    HW179134   5.964   1.299   0.160 -0.7550 -0.3495 -0.5781
25820SOL    HW279135   5.911   1.243   0.030 -0.5083  0.3235 -0.9780
25821SOL     OW79136   7.994   1.017   8.885  0.0420 -0.4486  0.0571
25821SOL    HW179137   7.995   0.989   8.794  1.2524 -1.1446  0.2681
25821SOL    HW279138   8.057   1.089   8.889 -0.4808  0.0131  0.2309
25822SOL     OW79139   1.665   2.966   1.441  0.2847 -0.3491 -0.2290
25822SOL    HW179140   1.691   2.899   1.504 -1.7641 -0.0204  1.0365
25822SOL    HW279141   1.572   2.980   1.457  0.2059  1.3594 -1.8394
25823SOL     OW79142   6.841   3.397   7.411 -0.8937  0.2262 -0.9755
25823SOL    HW179143   6.896   3.323   7.436 -0.3713  0.4243 -1.5104
25823SOL    HW279144   6.831   3.447   7.492 -1.1323 -0.3455 -0.6427
25824SOL     OW79145   8.994   5.061   8.454  0.1793  0.7424 -0.2676
25824SOL    HW179146   8.947   5.054   8.371 -1.1263 -1.5750  0.5637
25824SOL    HW279147   8.935   5.112   8.510 -0.9473 -1.2092  0.4286
25825SOL     OW79148   0.902   3.907   2.029 -0.0368 -0.4094  0.0766
25825SOL    HW179149   0.902   3.870   2.118  1.0753 -0.5662  0.0195
25825SOL    HW279150   0.893   4.001   2.043  0.9973 -0.3480  0.4112
25826SOL     OW79151   9.064   3.108   7.009  0.1749 -0.1844 -0.2083
25826SOL    HW179152   9.044   3.164   7.084  0.6254 -1.3566  0.8291
25826SOL    HW279153   9.080   3.168   6.937  1.9304  1.0877  1.1615
25827SOL     OW79154   9.422   1.651   6.010 -0.1070  0.4599  0.5576
25827SOL    HW179155   9.432   1.564   5.971  2.5027 -0.3708  2.7519
25827SOL    HW279156   9.379   1.635   6.094  0.5401  1.2274  1.0571
25828SOL     OW79157   6.532   8.138   6.981  0.0611 -0.0175 -0.0616
25828SOL    HW179158   6.552   8.142   6.888  1.3122  0.1972  0.1913
25828SOL    HW279159   6.606   8.182   7.023  0.2275 -1.3472  1.1222
25829SOL     OW79160   8.982   4.677   0.719 -0.4922 -0.2927 -0.4016
25829SOL    HW179161   9.072   4.660   0.693 -0.1102  0.8587  0.1289
25829SOL    HW279162   8.983   4.676   0.815 -0.6650  1.4624 -0.3526
25830SOL     OW79163   3.722   6.109   8.511 -0.6016  1.1495  0.0832
25830SOL    HW179164   3.651   6.085   8.571 -1.4946  0.4807 -1.1856
25830SOL    HW279165   3.748   6.026   8.471  1.6602  1.2116  1.2714
25831SOL     OW79166   6.477   2.490   3.039  0.1189 -0.5690  0.1419
25831SOL    HW179167   6.558   2.472   3.087  1.4577 -0.0198 -1.7855
25831SOL    HW279168   6.501   2.558   2.976 -1.8001 -0.5466 -0.6311
25832SOL     OW79169   1.217   7.210   9.415 -0.2747 -0.2290  0.3611
25832SOL    HW179170   1.147   7.225   9.351  0.3555 -0.3719 -0.3879
25832SOL    HW279171   1.290   7.178   9.362  1.3242  2.5701  0.6889
25833SOL     OW79172   0.959   1.759   4.492  0.4091 -0.0523  0.0593
25833SOL    HW179173   0.914   1.842   4.504  0.1206 -0.0537 -0.8882
25833SOL    HW279174   0.893   1.692   4.513  0.5672 -0.0521  0.5782
25834SOL     OW79175   8.077   4.734   5.135 -0.3820 -0.1286 -0.2629
25834SOL    HW179176   8.157   4.681   5.142 -0.2066  0.3092  1.8640
25834SOL    HW279177   8.104   4.821   5.163 -1.1125  0.6102 -1.7795
25835SOL     OW79178   7.630   1.763   9.083 -0.1269  0.1882 -0.1252
25835SOL    HW179179   7.714   1.796   9.052 -0.0676 -0.5611 -0.8086
25835SOL    HW279180   7.624   1.791   9.174  0.9749  0.0230  0.0025
25836SOL     OW79181   3.484   5.879   3.132 -0.4054  0.2763 -0.0129
25836SOL    HW179182   3.464   5.948   3.069  1.2883  1.0673  0.2772
25836SOL    HW279183   3.551   5.826   3.090 -0.8186 -0.4932  0.2688
25837SOL     OW79184   2.711   3.253   7.961 -0.0661 -0.0027  0.2854
25837SOL    HW179185   2.764   3.303   8.023 -0.4307 -0.6532  1.1369
25837SOL    HW279186   2.643   3.314   7.932 -1.9362 -0.6143  3.0855
25838SOL     OW79187   7.043   6.393   1.018 -0.7093  0.0493 -0.1912
25838SOL    HW179188   7.100   6.462   1.052 -1.7421  0.0730  1.5809
25838SOL    HW279189   7.084   6.312   1.048  0.0911 -0.1302 -1.6410
25839SOL     OW79190   9.122   3.038   1.670 -0.1685 -0.5855 -0.0772
25839SOL    HW179191   9.049   3.008   1.725 -0.1247  1.4356  1.1768
25839SOL    HW279192   9.109   3.133   1.663  0.4156 -0.6444 -2.7568
25840SOL     OW79193   1.063   4.984   8.752 -0.4309 -0.0452 -0.3355
25840SOL    HW179194   1.063   4.894   8.784 -1.2150 -0.1793 -0.6966
25840SOL    HW279195   1.114   5.033   8.817 -1.6031 -0.3964  0.8765
25841SOL     OW79196   0.108   7.173   0.289  0.3553 -0.4469 -0.5846
25841SOL    HW179197   0.170   7.113   0.247 -0.8496 -1.3820 -1.0967
25841SOL    HW279198   0.107   7.145   0.381 -0.3861 -1.4246 -0.8672
25842SOL     OW79199   5.879   7.181   7.426 -0.0925 -0.4302 -0.5796
25842SOL    HW179200   5.967   7.190   7.389  0.4135 -1.6193  0.2814
25842SOL    HW279201   5.849   7.271   7.439  1.3642 -0.0035 -0.0192
25843SOL     OW79202   1.375   3.967   8.473 -0.2107  0.6428  0.5725
25843SOL    HW179203   1.303   3.968   8.410  0.7968  1.6776 -0.6049
25843SOL    HW279204   1.391   3.875   8.490 -1.4968  0.3874  0.4936
25844SOL     OW79205   8.739   4.185   6.486  0.3173 -0.2687 -0.7161
25844SOL    HW179206   8.684   4.256   6.452  0.3809 -0.4539 -1.2269
25844SOL    HW279207   8.766   4.214   6.572 -0.7832 -0.2803 -0.3500
25845SOL     OW79208   9.239   8.324   2.555 -0.4070  0.1546  0.5886
25845SOL    HW179209   9.313   8.367   2.599 -1.0333  0.8856  0.9603
25845SOL    HW279210   9.191   8.282   2.626  1.3411 -3.0759  0.0381
25846SOL     OW79211   3.916   3.721   4.878 -0.3044 -0.3157 -0.6016
25846SOL    HW179212   3.899   3.628   4.863 -1.4732 -0.2927  0.4072
25846SOL    HW279213   3.947   3.726   4.968  0.0120  0.2379 -0.7386
25847SOL     OW79214   6.021   0.859   2.182  0.1268 -0.1799  0.0127
25847SOL    HW179215   6.025   0.809   2.263  0.7195 -0.3184 -0.0979
25847SOL    HW279216   5.927   0.868   2.164 -0.0086 -0.0264  0.7821
25848SOL     OW79217   3.872   2.829   6.125  0.0705 -0.0548  0.2022
25848SOL    HW179218   3.950   2.812   6.179 -0.9040 -0.9696  1.3785
25848SOL    HW279219   3.867   2.754   6.066  0.5843  0.4702 -0.5370
25849SOL     OW79220   4.886   2.127   4.189  0.3893  0.4802  0.5191
25849SOL    HW179221   4.940   2.073   4.247 -0.5164  0.9624  1.8534
25849SOL    HW279222   4.798   2.088   4.196 -0.2284  1.9348  1.3117
25850SOL     OW79223   3.314   7.772   6.084 -0.3545 -0.1824  0.3468
25850SOL    HW179224   3.297   7.698   6.025 -2.4869  0.0938  0.5119
25850SOL    HW279225   3.406   7.764   6.107  0.1713 -1.1732 -1.8197
25851SOL     OW79226   7.232   4.970   5.491  0.3076 -0.2111  0.1056
25851SOL    HW179227   7.201   4.881   5.504  0.9643 -0.7726 -1.7799
25851SOL    HW279228   7.209   4.990   5.400  0.8146  1.2718  0.2801
25852SOL     OW79229   0.594   3.763   7.362 -0.1231 -0.1914 -0.1578
25852SOL    HW179230   0.577   3.718   7.445  0.3307 -1.3123 -0.6448
25852SOL    HW279231   0.672   3.718   7.327 -0.2503  0.3319 -1.1365
25853SOL     OW79232   2.222   7.936   2.066 -0.4265 -0.3978 -0.1464
25853SOL    HW179233   2.246   7.866   2.126 -1.4498  0.5038  1.3588
25853SOL    HW279234   2.129   7.925   2.051 -0.5916  0.6015  0.0606
25854SOL     OW79235   5.170   6.062   0.131  0.5811 -0.0889  0.1192
25854SOL    HW179236   5.111   6.090   0.061  0.1157  1.2506  0.9994
25854SOL    HW279237   5.213   5.985   0.097  0.2835  0.4672 -1.6050
25855SOL     OW79238   0.883   9.613   8.360  0.1873 -0.2347  0.1534
25855SOL    HW179239   0.877   9.592   8.267  0.9210  1.0896 -0.2176
25855SOL    HW279240   0.812   9.675   8.375  0.0947 -0.4157  0.4682
25856SOL     OW79241   7.774   9.059   8.657  0.1336  0.0300  0.3094
25856SOL    HW179242   7.826   8.979   8.646  1.7735  1.0174  0.5725
25856SOL    HW279243   7.695   9.044   8.604  1.0758 -1.1719 -0.8204
25857SOL     OW79244   4.017   5.156   4.935 -0.3108 -0.3373  0.4725
25857SOL    HW179245   4.025   5.129   5.026 -1.6911  1.4798  1.1960
25857SOL    HW279246   4.058   5.243   4.932 -2.5342  0.7519  0.0019
25858SOL     OW79247   7.095   6.760   8.923 -0.4753  0.1896 -0.0984
25858SOL    HW179248   7.027   6.713   8.971 -0.2537 -0.3227 -0.2770
25858SOL    HW279249   7.049   6.802   8.851 -0.5399 -0.5310 -0.4853
25859SOL     OW79250   6.270   1.287   4.538 -0.1677  0.5149  0.6073
25859SOL    HW179251   6.344   1.303   4.478  0.6611  0.8560  1.6765
25859SOL    HW279252   6.205   1.352   4.512  0.5365  1.2551  0.6348
25860SOL     OW79253   6.919   6.877   2.033 -0.2621  0.2119  0.4774
25860SOL    HW179254   6.964   6.874   2.117  1.4687 -0.4559 -0.4414
25860SOL    HW279255   6.961   6.948   1.985 -0.9586  0.3219  0.0005
25861SOL     OW79256   1.442   4.954   7.385  0.5313 -0.0865  0.0054
25861SOL    HW179257   1.524   4.978   7.342 -0.2647  0.0320 -1.5139
25861SOL    HW279258   1.390   4.913   7.316 -0.3718 -0.9361  1.1472
25862SOL     OW79259   7.355   6.623   0.634 -0.3423 -0.1083  0.6684
25862SOL    HW179260   7.409   6.546   0.654  1.2482  0.2923 -1.6469
25862SOL    HW279261   7.292   6.591   0.569 -1.2092  0.0532  1.4080
25863SOL     OW79262   0.237   8.380   0.235 -0.6394  0.9182  0.0572
25863SOL    HW179263   0.158   8.331   0.211  0.3301 -0.0499 -1.3081
25863SOL    HW279264   0.214   8.471   0.218 -2.0970  0.8872  1.5656
25864SOL     OW79265   4.768   5.810   5.146  0.3564 -0.3991  0.1010
25864SOL    HW179266   4.843   5.855   5.108  1.3076 -2.2763 -0.3602
25864SOL    HW279267   4.721   5.878   5.194  0.7064  1.4583 -2.0088
25865SOL     OW79268   5.267   4.937   6.736 -0.0446 -0.1244  0.0829
25865SOL    HW179269   5.338   4.995   6.709  0.7614 -1.0794  0.1186
25865SOL    HW279270   5.196   4.997   6.759  1.0670  0.8949  0.9982
25866SOL     OW79271   0.184   6.605   8.044  0.1088  0.5230  0.0360
25866SOL    HW179272   0.191   6.509   8.048  0.7901  0.4925 -1.4309
25866SOL    HW279273   0.266   6.633   8.004 -0.5187  1.6508 -0.4918
25867SOL     OW79274   0.619   0.072   2.764  0.1146 -0.5071  0.1750
25867SOL    HW179275   0.643   0.062   2.856 -0.2017  1.1710  0.4785
25867SOL    HW279276   0.668   0.150   2.735 -1.1567  0.0511 -0.5598
25868SOL     OW79277   3.977   2.469   1.211 -0.1752 -0.1979 -0.5949
25868SOL    HW179278   4.030   2.541   1.176 -0.3183  0.9039  1.3275
25868SOL    HW279279   3.994   2.396   1.152  2.1196  0.6147 -1.0222
25869SOL     OW79280   2.024   9.591   7.787  0.4610 -0.3552 -0.4288
25869SOL    HW179281   2.092   9.551   7.841  0.3402 -1.2010 -0.8971
25869SOL    HW279282   2.064   9.600   7.701  0.7777  1.3168 -0.1574
25870SOL     OW79283   0.775   5.725   7.335 -0.2003 -0.1102 -0.1687
25870SOL    HW179284   0.838   5.791   7.307  0.0474  0.2040  1.0561
25870SOL    HW279285   0.829   5.650   7.362 -0.3168  0.2292  1.0610
25871SOL     OW79286   7.853   7.127   0.345  0.0243 -0.2080 -0.9310
25871SOL    HW179287   7.928   7.094   0.395 -0.2148  1.2517  0.4397
25871SOL    HW279288   7.828   7.052   0.290  0.6904 -1.6903  0.6600
25872SOL     OW79289   8.309   6.493   8.736  0.0920  0.2823  0.0108
25872SOL    HW179290   8.355   6.574   8.760  0.4067 -0.2003  1.1205
25872SOL    HW279291   8.350   6.465   8.654  0.2381  1.0377 -0.1826
25873SOL     OW79292   9.328   6.139   0.136 -0.5131 -0.1235 -0.2040
25873SOL    HW179293   9.289   6.163   0.220 -1.1105 -1.6852 -0.0028
25873SOL    HW279294   9.418   6.113   0.158 -0.8808 -1.1948  0.0716
25874SOL     OW79295   9.227   6.624   4.513 -0.0304  0.0982 -0.1938
25874SOL    HW179296   9.140   6.585   4.513  0.0264 -0.0270 -0.5245
25874SOL    HW279297   9.212   6.716   4.494 -0.1498  0.2111  0.4295
25875SOL     OW79298   5.631   0.071   8.246  0.4696 -0.0867 -0.0550
25875SOL    HW179299   5.661   0.060   8.337 -3.5304 -0.0598  1.4688
25875SOL    HW279300   5.597  -0.015   8.222 -1.4705  0.6862 -0.2341
25876SOL     OW79301   0.899   0.882   3.166  0.5458  0.2456 -0.7760
25876SOL    HW179302   0.875   0.970   3.196  0.3357 -0.4787  1.4187
25876SOL    HW279303   0.892   0.885   3.071 -2.2554  1.8353 -0.6273
25877SOL     OW79304   0.617   0.517   6.387  0.0177  0.2026 -0.4490
25877SOL    HW179305   0.685   0.571   6.348  1.8336 -0.5859  1.4509
25877SOL    HW279306   0.626   0.432   6.345 -1.3506  0.6955 -1.8178
25878SOL     OW79307   8.204   1.131   0.577 -0.7850 -0.0615  0.0640
25878SOL    HW179308   8.261   1.176   0.514  0.0368 -0.4838  0.4920
25878SOL    HW279309   8.239   1.154   0.663  0.2053 -2.1762  0.2826
25879SOL     OW79310   8.862   0.925   3.995 -0.8090  0.3384  0.3842
25879SOL    HW179311   8.898   1.013   3.986  0.7337 -0.4577 -2.5093
25879SOL    HW279312   8.871   0.905   4.088 -1.2527  3.2103  1.1306
25880SOL     OW79313   7.311   3.183   1.419 -0.7543 -0.1905 -0.4041
25880SOL    HW179314   7.246   3.252   1.418 -0.0631  0.5366  1.1364
25880SOL    HW279315   7.375   3.208   1.352 -0.5415  0.6456  0.1009
25881SOL     OW79316   5.615   3.794   3.640  0.1263  0.0757 -0.3157
25881SOL    HW179317   5.708   3.800   3.621 -0.0354 -0.8135 -1.4716
25881SOL    HW279318   5.572   3.837   3.566 -0.4902 -2.8242 -1.7657
25882SOL     OW79319   4.247   9.555   9.485 -0.1793  0.4686  0.1603
25882SOL    HW179320   4.171   9.538   9.541 -1.0977 -0.1803 -1.2234
25882SOL    HW279321   4.301   9.616   9.535  0.0130 -1.5353  2.5861
25883SOL     OW79322   4.279   7.706   5.235  1.0383 -0.2169 -0.1118
25883SOL    HW179323   4.293   7.798   5.209  2.1059 -0.7685 -1.7025
25883SOL    HW279324   4.352   7.687   5.293  1.4266 -0.3343 -0.6251
25884SOL     OW79325   0.561   2.011   4.379 -0.3462 -0.0061  0.3520
25884SOL    HW179326   0.486   2.014   4.438 -1.2304  0.2288 -0.7480
25884SOL    HW279327   0.529   1.963   4.302  0.3341  0.8956 -0.5158
25885SOL     OW79328   3.516   2.523   5.457 -0.2268  0.0849  0.3074
25885SOL    HW179329   3.445   2.521   5.393 -1.8895 -0.0532  2.0407
25885SOL    HW279330   3.498   2.601   5.510  2.9080  2.0220 -1.2384
25886SOL     OW79331   4.549   5.145   6.027  0.2657 -0.3871  0.3729
25886SOL    HW179332   4.520   5.091   6.100 -0.7010 -0.9382 -0.3957
25886SOL    HW279333   4.548   5.234   6.061 -0.8742 -0.5561  0.8250
25887SOL     OW79334   6.138   2.214   9.639  0.6233 -0.5529 -0.3043
25887SOL    HW179335   6.147   2.273   9.713  0.5422 -1.4002  0.4074
25887SOL    HW279336   6.163   2.128   9.674  4.1808 -0.4458 -2.1428
25888SOL     OW79337   9.630   7.947   6.627  0.1656 -0.0499  0.6482
25888SOL    HW179338   9.570   7.990   6.688  0.8419 -1.0310  2.0768
25888SOL    HW279339   9.633   8.004   6.550 -2.4891  0.0825  0.5664
25889SOL     OW79340   3.044   7.944   0.062  0.2621 -0.3171 -0.0374
25889SOL    HW179341   3.039   8.038   0.047 -0.8848  0.0884  2.4596
25889SOL    HW279342   2.962   7.922   0.106 -0.0793 -2.7644 -1.6672
25890SOL     OW79343   0.239   3.130   0.473 -0.7228  0.3761 -0.0962
25890SOL    HW179344   0.279   3.114   0.558 -1.1821 -2.0306 -0.2640
25890SOL    HW279345   0.246   3.225   0.460  0.4136  0.6372  2.0653
25891SOL     OW79346   0.862   3.659   7.262 -0.1856 -0.2441 -0.0397
25891SOL    HW179347   0.850   3.614   7.178 -0.5194 -0.0360 -0.1071
25891SOL    HW279348   0.857   3.590   7.328 -1.9169 -0.1758 -0.0509
25892SOL     OW79349   4.602   3.785   4.745 -0.2292 -0.4514 -0.1904
25892SOL    HW179350   4.554   3.744   4.816 -1.3838  0.7126 -0.2693
25892SOL    HW279351   4.547   3.858   4.717  0.9894  0.1403 -1.1526
25893SOL     OW79352   9.357   2.604   9.277 -0.5589  0.2466 -0.3733
25893SOL    HW179353   9.274   2.581   9.235  0.4748 -0.6322 -2.0505
25893SOL    HW279354   9.403   2.520   9.288  0.5700  0.8238 -0.5310
25894SOL     OW79355   8.587   7.071   7.234  0.0524  0.4575 -0.0795
25894SOL    HW179356   8.515   7.100   7.178 -0.5770  1.1200  1.0264
25894SOL    HW279357   8.666   7.100   7.188 -0.3528 -0.5571 -1.4614
25895SOL     OW79358   8.583   0.114   2.226 -0.5156  0.3731  0.0706
25895SOL    HW179359   8.615   0.153   2.308 -1.5407  2.6415 -0.5233
25895SOL    HW279360   8.661   0.107   2.171 -0.4051  2.5055 -0.1104
25896SOL     OW79361   5.512   6.951   5.521 -0.2343  0.1846 -0.2719
25896SOL    HW179362   5.499   6.915   5.609 -0.9654 -0.4133 -0.6122
25896SOL    HW279363   5.583   7.015   5.531 -0.2678  0.0755  0.7354
25897SOL     OW79364   4.648   8.813   7.012 -0.3169  0.2575 -0.3035
25897SOL    HW179365   4.601   8.878   6.961  1.3171  1.2858 -0.5802
25897SOL    HW279366   4.736   8.811   6.974  0.0881 -1.0880  0.6082
25898SOL     OW79367   7.730   6.540   4.929 -0.1764  0.2802  0.1266
25898SOL    HW179368   7.718   6.448   4.951 -0.3566  0.5332  1.1068
25898SOL    HW279369   7.656   6.584   4.971  0.2666  0.9584  0.1954
25899SOL     OW79370   9.248   7.442   9.440  0.2405 -0.0922  0.5334
25899SOL    HW179371   9.210   7.367   9.395 -0.5952  1.1922 -1.0150
25899SOL    HW279372   9.342   7.438   9.419 -0.2175  0.8525 -2.0396
25900SOL     OW79373   1.533   2.548   1.172 -0.1031  0.3959 -0.0418
25900SOL    HW179374   1.495   2.462   1.192  0.4193  0.1913  0.0889
25900SOL    HW279375   1.458   2.607   1.168 -0.5068 -0.1286 -0.4742
25901SOL     OW79376   3.563   3.875   3.888 -0.3763  0.2119  0.0981
25901SOL    HW179377   3.638   3.899   3.834 -0.8143 -0.2336 -0.7316
25901SOL    HW279378   3.596   3.876   3.978  0.5617  0.2166 -0.2390
25902SOL     OW79379   2.347   9.668   5.434 -0.2618  0.2153 -0.2382
25902SOL    HW179380   2.395   9.599   5.479  0.8778  1.1366  0.0082
25902SOL    HW279381   2.268   9.625   5.401 -0.4167 -0.8054  1.3720
25903SOL     OW79382   8.856   9.430   7.716  1.1055 -0.4367  0.7204
25903SOL    HW179383   8.788   9.481   7.761  2.7826  0.5714  2.2860
25903SOL    HW279384   8.912   9.496   7.675  0.3329 -1.3004 -1.9354
25904SOL     OW79385   8.128   2.672   2.627 -0.0642  0.3775  0.5573
25904SOL    HW179386   8.049   2.620   2.614  0.6280 -0.9865  1.5704
25904SOL    HW279387   8.161   2.646   2.713  2.2047 -0.0988 -0.3793
25905SOL     OW79388   6.726   3.925   2.116 -0.5272 -0.3122 -0.3526
25905SOL    HW179389   6.723   3.829   2.111  0.2542 -1.0072  5.2646
25905SOL    HW279390   6.643   3.949   2.158 -0.5346  1.4626 -1.3072
25906SOL     OW79391   4.672   6.474   9.672  0.5633 -0.0372 -0.3559
25906SOL    HW179392   4.765   6.462   9.655  0.3264  0.1924 -2.0463
25906SOL    HW279393   4.662   6.567   9.692  0.6926 -0.0311 -0.3265
25907SOL     OW79394   3.479   3.321   9.033 -0.0824  0.2744  0.3918
25907SOL    HW179395   3.459   3.399   9.085  0.9679  0.2217  0.9145
25907SOL    HW279396   3.543   3.273   9.086  0.2400 -0.3073 -0.4931
25908SOL     OW79397   8.684   7.356   3.930  0.7411 -0.4538  0.2645
25908SOL    HW179398   8.599   7.373   3.971  1.6860 -2.3036  3.3397
25908SOL    HW279399   8.690   7.261   3.927  1.8623 -0.3829 -1.9833
25909SOL     OW79400   1.916   2.805   2.995 -0.4957  0.2137 -0.0170
25909SOL    HW179401   1.892   2.870   3.060 -1.4287  1.2170 -1.3128
25909SOL    HW279402   1.984   2.848   2.942 -0.1037 -0.4007 -0.0264
25910SOL     OW79403   1.441   9.384   0.520 -0.0310 -0.4260 -0.5219
25910SOL    HW179404   1.459   9.456   0.580  2.1691 -2.3598  1.3854
25910SOL    HW279405   1.354   9.353   0.546  0.4611 -0.5936  1.0703
25911SOL     OW79406   3.889   5.707   6.507 -0.3598  0.2072  0.2040
25911SOL    HW179407   3.832   5.662   6.569 -2.5368  0.7607 -1.2932
25911SOL    HW279408   3.830   5.761   6.455  1.6172  1.2205 -1.1046
25912SOL     OW79409   5.181   4.665   8.186 -0.0115  0.3261 -0.2857
25912SOL    HW179410   5.206   4.622   8.104  2.0803  0.8425  0.0067
25912SOL    HW279411   5.162   4.755   8.160  1.9529  0.8524 -0.1188
25913SOL     OW79412   7.172   6.080   8.547 -0.3884 -0.3498  0.4353
25913SOL    HW179413   7.107   6.013   8.567 -0.3454 -0.1000  1.5051
25913SOL    HW279414   7.132   6.162   8.577 -1.7003  0.6457 -3.4747
25914SOL     OW79415   5.749   8.614   0.218 -0.5465  0.3712  0.4393
25914SOL    HW179416   5.739   8.621   0.313 -0.3418 -1.9707  0.6892
25914SOL    HW279417   5.660   8.605   0.185 -0.5361 -0.1648  0.5541
25915SOL     OW79418   6.785   2.533   7.619 -0.0094 -0.2739 -1.0622
25915SOL    HW179419   6.750   2.619   7.598  0.9264  0.0588 -1.2818
25915SOL    HW279420   6.710   2.485   7.655 -1.3511 -0.4092 -3.7701
25916SOL     OW79421   5.683   1.564   8.078 -0.3166  0.3872  0.1710
25916SOL    HW179422   5.612   1.531   8.133  0.8981 -1.2802  0.8304
25916SOL    HW279423   5.682   1.659   8.091 -2.5605  0.4411 -0.0474
25917SOL     OW79424   5.276   3.061   5.467 -0.5550  0.1974  0.0258
25917SOL    HW179425   5.311   3.149   5.474  2.2349 -0.7617 -0.5802
25917SOL    HW279426   5.284   3.025   5.556 -0.4666  0.1311 -0.0091
25918SOL     OW79427   7.518   7.481   9.439 -0.1826  0.4246 -0.1751
25918SOL    HW179428   7.582   7.444   9.500  0.3412  0.6661 -0.5696
25918SOL    HW279429   7.480   7.555   9.487  1.0943  1.3688 -0.5544
25919SOL     OW79430   3.203   4.256   1.061  0.2370 -0.4909  0.6805
25919SOL    HW179431   3.126   4.245   1.005  0.9227 -1.3016 -0.1367
25919SOL    HW279432   3.262   4.312   1.011  0.1234  0.2510  1.3677
25920SOL     OW79433   0.146   5.462   2.680 -0.6410  0.3870 -0.3349
25920SOL    HW179434   0.072   5.517   2.654  1.1378  2.2899 -1.6778
25920SOL    HW279435   0.188   5.509   2.751 -0.4767 -0.4836  0.1635
25921SOL     OW79436   0.181   7.492   4.881 -0.9387 -0.1950 -0.0397
25921SOL    HW179437   0.185   7.576   4.835  2.8245 -0.7293 -1.0437
25921SOL    HW279438   0.201   7.427   4.814  1.7954 -1.2969  1.6748
25922SOL     OW79439   4.381   0.557   3.067 -0.2008 -0.2869 -0.9013
25922SOL    HW179440   4.298   0.543   3.114  0.1710 -1.3295 -0.5366
25922SOL    HW279441   4.355   0.601   2.986 -0.9386  0.8458 -0.0910
25923SOL     OW79442   1.764   2.287   5.545  0.5814 -0.3519  0.4936
25923SOL    HW179443   1.727   2.205   5.512  2.0038 -0.7742 -0.1348
25923SOL    HW279444   1.813   2.262   5.623  0.3572  0.0341  0.7594
25924SOL     OW79445   8.276   7.246   7.816  0.5168  0.0955  0.5423
25924SOL    HW179446   8.370   7.255   7.832  0.4519  2.3922 -0.0033
25924SOL    HW279447   8.268   7.255   7.721 -0.4206  2.6123  0.7901
25925SOL     OW79448   6.165   3.523   6.675  0.2335 -0.9335  0.0532
25925SOL    HW179449   6.206   3.480   6.750  0.7468 -0.0379  0.2990
25925SOL    HW279450   6.084   3.561   6.710  1.4653  1.2643  0.6902
25926SOL     OW79451   4.315   4.438   8.649 -0.1220  0.4395 -0.0457
25926SOL    HW179452   4.306   4.383   8.571  2.0759  0.5994 -0.4629
25926SOL    HW279453   4.225   4.466   8.668 -1.6220 -4.1400  0.9306
25927SOL     OW79454   2.549   7.052   5.650  0.2990 -0.2777 -0.1403
25927SOL    HW179455   2.458   7.050   5.678  0.0756  0.8360 -0.7191
25927SOL    HW279456   2.596   7.095   5.721  0.3214 -0.5542  0.0134
25928SOL     OW79457   2.795   3.536   4.419 -0.1208 -0.1005 -0.6959
25928SOL    HW179458   2.836   3.453   4.395 -0.1121 -0.8861  1.7445
25928SOL    HW279459   2.702   3.523   4.401 -0.3534 -1.2927  1.1589
25929SOL     OW79460   1.433   7.843   1.519 -0.2571 -0.2708  0.1686
25929SOL    HW179461   1.367   7.797   1.466  1.6215 -1.3746 -1.3390
25929SOL    HW279462   1.477   7.775   1.569  0.1544  0.3599  0.6914
25930SOL     OW79463   2.472   5.692   7.415  0.0459  0.5570 -0.2201
25930SOL    HW179464   2.521   5.650   7.345 -1.3232 -0.8948 -0.3575
25930SOL    HW279465   2.512   5.660   7.496  0.1857  0.4386 -0.3372
25931SOL     OW79466   7.827   5.955   0.966 -0.2111 -0.1011 -0.0163
25931SOL    HW179467   7.740   5.951   0.927 -0.6610 -0.0058  0.9632
25931SOL    HW279468   7.821   5.904   1.046  0.5955  0.0319  0.1429
25932SOL     OW79469   0.236   5.090   2.494 -0.6045 -0.0192 -0.3774
25932SOL    HW179470   0.255   5.098   2.587  1.3214 -0.6743 -0.6737
25932SOL    HW279471   0.262   5.174   2.456 -1.0277  0.1077 -0.3986
25933SOL     OW79472   6.183   2.090   5.798 -0.6568 -0.0492 -0.0898
25933SOL    HW179473   6.187   2.170   5.746  0.2034  0.5297  0.8222
25933SOL    HW279474   6.127   2.113   5.872 -1.6944 -0.7933 -0.6199
25934SOL     OW79475   6.085   3.113   7.360 -0.7392  0.3071 -0.3750
25934SOL    HW179476   6.042   3.197   7.341 -1.4258  0.1344  0.3399
25934SOL    HW279477   6.154   3.106   7.295  0.3828  2.1838  0.5351
25935SOL     OW79478   3.502   5.310   8.301 -0.2601  0.5060  0.2807
25935SOL    HW179479   3.429   5.261   8.263 -0.8220  1.0375  0.6505
25935SOL    HW279480   3.496   5.293   8.395  1.6120 -1.4620  0.1268
25936SOL     OW79481   5.456   7.687   3.565 -0.1625  0.6812  0.3621
25936SOL    HW179482   5.436   7.737   3.486 -1.4342  0.0914  0.2846
25936SOL    HW279483   5.458   7.751   3.635 -0.5297  1.0033  0.0808
25937SOL     OW79484   3.469   2.946   8.803  0.4578 -0.4676 -0.1626
25937SOL    HW179485   3.557   2.919   8.777  0.0634 -2.1917  0.1704
25937SOL    HW279486   3.471   2.946   8.899  0.1464 -0.3132 -0.1539
25938SOL     OW79487   3.038   8.185   9.398 -0.2427  0.3987  0.2895
25938SOL    HW179488   3.129   8.205   9.374  0.5281 -1.2895  1.6303
25938SOL    HW279489   2.987   8.252   9.352  1.5558  0.6573 -1.5084
25939SOL     OW79490   0.284   8.998   2.090  0.0069 -0.5967  0.2414
25939SOL    HW179491   0.274   8.903   2.098  0.8414 -0.8519 -1.4292
25939SOL    HW279492   0.281   9.029   2.181  1.6696 -2.4171  1.0008
25940SOL     OW79493   6.149   4.562   4.141 -0.2514  0.2276  0.6251
25940SOL    HW179494   6.135   4.653   4.169  2.5619  0.6498  0.9216
25940SOL    HW279495   6.123   4.510   4.217 -0.9843  0.8110  0.7956
25941SOL     OW79496   2.126   3.756   3.067 -0.1897 -0.3398 -0.8259
25941SOL    HW179497   2.212   3.770   3.107 -0.0637  0.5475 -1.4019
25941SOL    HW279498   2.064   3.781   3.136  0.0202  0.2697 -0.8548
25942SOL     OW79499   7.803   4.214   1.912 -0.8030  0.6574  0.0838
25942SOL    HW179500   7.726   4.237   1.965  0.6986  1.7924  1.9049
25942SOL    HW279501   7.843   4.141   1.960 -0.7987 -0.0153 -0.9220
25943SOL     OW79502   4.991   4.881   2.459  0.1208 -0.1162  0.2745
25943SOL    HW179503   5.064   4.820   2.450 -1.1372 -1.6159 -0.1865
25943SOL    HW279504   4.917   4.837   2.418 -1.6170  0.3506  2.6328
25944SOL     OW79505   8.961   8.845   3.146  0.5128 -0.6958  0.4489
25944SOL    HW179506   8.869   8.871   3.146 -0.1115 -2.7385  0.1381
25944SOL    HW279507   8.989   8.855   3.055  0.2760 -1.1294  0.3281
25945SOL     OW79508   0.794   1.966   2.730 -0.0515  0.0281  0.2494
25945SOL    HW179509   0.772   2.016   2.652  2.7487  0.9154 -0.0779
25945SOL    HW279510   0.885   1.940   2.717 -0.5676 -2.8935  1.6471
25946SOL     OW79511   7.346   8.486   9.447  0.5583 -0.1223 -0.1798
25946SOL    HW179512   7.404   8.502   9.521 -0.1178  0.4915  0.2260
25946SOL    HW279513   7.337   8.391   9.444 -1.5652 -0.1004  2.2555
25947SOL     OW79514   2.180   6.846   9.245  0.4193  0.4004  0.9742
25947SOL    HW179515   2.151   6.835   9.154  0.5347  0.5892  0.9142
25947SOL    HW279516   2.183   6.757   9.280  1.0061  0.2651  0.5973
25948SOL     OW79517   1.896   6.147   5.967 -0.3426  0.3823  0.3138
25948SOL    HW179518   1.974   6.106   6.004 -0.9577  0.9403  2.3671
25948SOL    HW279519   1.845   6.074   5.931  1.5149  0.1094 -1.9713
25949SOL     OW79520   5.911   1.088   2.483  0.1237  0.3440 -0.2441
25949SOL    HW179521   5.966   1.016   2.514 -1.1595 -0.7066 -0.3180
25949SOL    HW279522   5.838   1.045   2.438  0.8060  1.7780 -2.8664
25950SOL     OW79523   3.203   5.791   5.014  0.0937  0.1615 -0.2305
25950SOL    HW179524   3.145   5.721   5.044 -2.4541  2.4992  0.7089
25950SOL    HW279525   3.267   5.801   5.085 -0.8620  0.1989  0.6540
25951SOL     OW79526   2.926   0.999   0.555 -0.1783  0.1129  0.1549
25951SOL    HW179527   2.967   0.941   0.620 -0.1733  1.2400  1.1998
25951SOL    HW279528   2.986   0.997   0.480 -0.6912 -2.0057 -0.2825
25952SOL     OW79529   8.252   2.640   5.250 -0.3157 -0.0178  0.2029
25952SOL    HW179530   8.336   2.653   5.207  0.3165 -0.9613  1.1038
25952SOL    HW279531   8.236   2.722   5.296  0.4359 -0.0536  0.5439
25953SOL     OW79532   8.984   3.903   4.967 -0.3543 -0.1594  0.0034
25953SOL    HW179533   9.069   3.941   4.991 -0.8751  1.1457 -0.1194
25953SOL    HW279534   8.923   3.938   5.032 -0.8607 -0.8412 -0.0922
25954SOL     OW79535   7.381   6.710   2.462 -0.0070  0.3810 -0.5035
25954SOL    HW179536   7.466   6.717   2.505  0.4520 -2.7745 -0.5949
25954SOL    HW279537   7.317   6.719   2.532  0.4402  1.5219 -0.2316
25955SOL     OW79538   5.866   8.373   3.867  0.3435  0.5743 -0.0836
25955SOL    HW179539   5.875   8.325   3.949  1.7765  0.7248 -0.1254
25955SOL    HW279540   5.813   8.316   3.811 -2.5159  1.3541  1.5716
25956SOL     OW79541   8.757   0.378   0.393  0.0728 -0.1565 -1.1192
25956SOL    HW179542   8.746   0.450   0.455  0.9291 -1.3714  0.5103
25956SOL    HW279543   8.845   0.390   0.358  0.4723 -0.7669 -0.3440
25957SOL     OW79544   1.952   0.414   1.110  0.4740  0.4616 -0.0489
25957SOL    HW179545   1.914   0.433   1.024 -0.9036 -1.8836 -0.0373
25957SOL    HW279546   1.880   0.427   1.172  0.9255  0.2842  0.5240
25958SOL     OW79547   8.460   6.146   0.760 -0.2637  0.2123 -0.2159
25958SOL    HW179548   8.498   6.065   0.726  1.4135  0.3795  1.1360
25958SOL    HW279549   8.495   6.214   0.702  0.4327  0.2253  0.2114
25959SOL     OW79550   1.675   1.059   1.972  0.1634 -0.4052 -0.1273
25959SOL    HW179551   1.622   1.138   1.983  0.9498  0.6746 -3.0707
25959SOL    HW279552   1.628   0.991   2.021 -1.9286  1.2998  0.3728
25960SOL     OW79553   8.512   8.837   2.018 -0.4097 -0.0437  0.1084
25960SOL    HW179554   8.449   8.766   2.005 -1.1616  0.6648 -0.2305
25960SOL    HW279555   8.482   8.882   2.097 -0.0793  0.0453  0.1834
25961SOL     OW79556   7.724   6.410   4.037  0.7069  0.1626  0.3506
25961SOL    HW179557   7.732   6.445   4.126 -0.1552  3.2364 -0.6502
25961SOL    HW279558   7.635   6.374   4.034  0.7851 -0.0722  0.7581
25962SOL     OW79559   3.140   3.861   5.376 -0.4470 -0.3720 -0.2972
25962SOL    HW179560   3.118   3.953   5.391  0.1190 -0.3759  0.6295
25962SOL    HW279561   3.210   3.864   5.310 -0.1326 -0.1145  0.0455
25963SOL     OW79562   7.140   1.780   4.791 -0.0423  0.0261 -0.0819
25963SOL    HW179563   7.066   1.829   4.756 -0.3942  0.4241  1.1512
25963SOL    HW279564   7.122   1.773   4.885  1.0078 -0.7104  0.0881
25964SOL     OW79565   5.877   3.029   1.548 -0.2669  0.3611  0.1927
25964SOL    HW179566   5.896   3.039   1.455 -1.5640 -2.0758 -0.4014
25964SOL    HW279567   5.849   3.116   1.576 -1.0112  0.8660 -1.9780
25965SOL     OW79568   5.758   9.239   9.071  0.1508 -0.0001 -0.2054
25965SOL    HW179569   5.697   9.280   9.133 -0.2728 -0.9685  0.0312
25965SOL    HW279570   5.837   9.222   9.123 -0.4631 -1.4866  0.3017
25966SOL     OW79571   4.230   5.441   5.114 -0.7010  0.2105  0.3888
25966SOL    HW179572   4.272   5.382   5.051 -0.6774  1.5170 -0.8896
25966SOL    HW279573   4.303   5.484   5.159 -0.6655  0.8262 -0.2310
25967SOL     OW79574   9.483   8.769   1.971 -0.3889  0.1984 -0.1331
25967SOL    HW179575   9.519   8.858   1.973 -1.6352  0.7944 -1.5350
25967SOL    HW279576   9.460   8.756   1.879 -1.9270 -0.8586  0.3710
25968SOL     OW79577   8.802   8.041   7.818  0.5131 -0.3586 -0.0922
25968SOL    HW179578   8.885   8.030   7.866 -0.2895 -0.4129  1.3452
25968SOL    HW279579   8.737   7.997   7.873 -0.7664  1.2394 -0.2606
25969SOL     OW79580   1.122   3.826   3.833 -0.0682 -0.3749  0.3008
25969SOL    HW179581   1.049   3.865   3.784 -0.0298 -1.4409 -0.6669
25969SOL    HW279582   1.180   3.899   3.853 -1.4500  0.5128  1.2032
25970SOL     OW79583   1.421   8.040   3.441  0.2527 -0.2911  0.5944
25970SOL    HW179584   1.505   8.082   3.460 -0.2223  0.3080  1.4749
25970SOL    HW279585   1.401   7.991   3.521 -0.4495 -0.0473  0.5783
25971SOL     OW79586   2.812   2.794   4.516  0.0297  0.2447 -0.2849
25971SOL    HW179587   2.725   2.785   4.554 -0.1673 -0.7848 -0.9406
25971SOL    HW279588   2.869   2.742   4.572 -0.0531 -0.3127 -0.7091
25972SOL     OW79589   2.186   6.104   5.323  0.2193  0.5215 -0.0974
25972SOL    HW179590   2.142   6.169   5.378 -0.9018  0.0883 -0.4374
25972SOL    HW279591   2.252   6.153   5.275 -0.6587  1.4322 -0.4061
25973SOL     OW79592   1.422   8.947   4.635 -0.2666 -0.7399 -0.2981
25973SOL    HW179593   1.440   9.040   4.647 -1.6240 -0.2915 -1.4751
25973SOL    HW279594   1.450   8.906   4.718  0.7510  0.6298  0.0638
25974SOL     OW79595   4.487   2.391   5.279 -0.0236 -0.1800  0.2429
25974SOL    HW179596   4.429   2.325   5.318 -1.6647  1.2541  0.3810
25974SOL    HW279597   4.542   2.421   5.351  1.6282 -2.2110 -0.0856
25975SOL     OW79598   7.609   6.585   6.420 -0.3443  0.0004 -0.4555
25975SOL    HW179599   7.684   6.527   6.413 -0.9987 -0.8480 -0.7274
25975SOL    HW279600   7.621   6.649   6.350  0.7667  0.6687  0.3201
25976SOL     OW79601   4.874   5.916   2.423 -0.1636  1.0413  1.1842
25976SOL    HW179602   4.963   5.929   2.390  0.2459  0.7511  2.1406
25976SOL    HW279603   4.818   5.953   2.355  0.6996  1.5330  0.7177
25977SOL     OW79604   6.747   2.892   8.864  0.7366  0.2666 -0.0882
25977SOL    HW179605   6.698   2.820   8.902  0.1335  0.0569 -1.2090
25977SOL    HW279606   6.829   2.895   8.913 -0.4704  0.7957  2.0084
25978SOL     OW79607   0.739   1.759   5.308  0.4131  0.1290 -0.3413
25978SOL    HW179608   0.790   1.727   5.234  4.3756 -0.8592  2.4849
25978SOL    HW279609   0.765   1.851   5.316 -1.4585  0.7849 -1.1425
25979SOL     OW79610   6.490   3.908   4.328 -0.7912 -0.3437 -0.0511
25979SOL    HW179611   6.440   3.984   4.358  0.1867  0.5218 -0.5705
25979SOL    HW279612   6.573   3.944   4.297 -0.4240 -1.5944 -0.5840
25980SOL     OW79613   6.230   2.593   3.286 -0.5803 -0.3952  0.2077
25980SOL    HW179614   6.284   2.669   3.265 -0.7488 -0.8548 -2.0907
25980SOL    HW279615   6.141   2.621   3.268 -0.7768 -0.7498  0.6006
25981SOL     OW79616   8.614   2.486   5.361 -0.3185  0.0614 -0.1607
25981SOL    HW179617   8.600   2.529   5.277 -1.5124 -0.1620 -0.0885
25981SOL    HW279618   8.558   2.533   5.423  2.1598  1.6436  1.0388
25982SOL     OW79619   7.056   9.195   6.146  0.2589  0.3686 -0.3196
25982SOL    HW179620   7.128   9.259   6.152  0.2149  0.3639  0.3418
25982SOL    HW279621   7.050   9.175   6.053  0.6518  0.9032 -0.4695
25983SOL     OW79622   6.952   2.395   7.309  0.0284  1.0501  0.3662
25983SOL    HW179623   6.883   2.437   7.258  0.4864  2.5372  0.9220
25983SOL    HW279624   7.027   2.454   7.303  1.1649 -0.3483  0.0777
25984SOL     OW79625   3.555   4.013   2.576 -0.5631  0.3278 -0.6756
25984SOL    HW179626   3.592   4.053   2.654  0.1402 -0.8529 -0.3700
25984SOL    HW279627   3.499   3.943   2.609 -1.4663  0.7886 -1.1975
25985SOL     OW79628   8.913   4.374   2.605  0.5970 -0.7451 -0.1605
25985SOL    HW179629   8.992   4.402   2.651  0.3627  0.1522 -0.2801
25985SOL    HW279630   8.865   4.321   2.668  0.6120 -0.0974  0.4135
25986SOL     OW79631   5.803   6.195   3.719 -0.1292 -0.1094 -0.1805
25986SOL    HW179632   5.795   6.263   3.786 -1.3613  1.3744 -1.7477
25986SOL    HW279633   5.741   6.221   3.651  0.9854 -1.6195 -1.8598
25987SOL     OW79634   3.177   4.844   5.493  0.6336  0.0122 -0.2643
25987SOL    HW179635   3.234   4.839   5.416 -2.1891 -1.3848 -2.4566
25987SOL    HW279636   3.222   4.792   5.560  1.6727 -1.5950 -2.1051
25988SOL     OW79637   4.483   4.352   2.150  0.0191 -0.2321 -0.3808
25988SOL    HW179638   4.453   4.327   2.237 -0.9265  0.8687 -0.3625
25988SOL    HW279639   4.554   4.291   2.130  1.3370  0.5091  1.8001
25989SOL     OW79640   9.166   3.431   8.849 -0.7283 -0.4071  0.1622
25989SOL    HW179641   9.258   3.456   8.840  0.3018 -3.8346 -0.3399
25989SOL    HW279642   9.168   3.352   8.902 -3.3934 -0.6947 -0.0283
25990SOL     OW79643   4.160   8.948   4.565 -0.0645 -0.1310 -0.4066
25990SOL    HW179644   4.186   8.875   4.621  0.1515  0.1372 -0.1521
25990SOL    HW279645   4.236   8.963   4.508 -0.1423 -0.1603 -0.5189
25991SOL     OW79646   7.830   1.885   1.030  0.3499  0.0392  0.0554
25991SOL    HW179647   7.753   1.933   1.001  1.6233  1.9490 -0.3510
25991SOL    HW279648   7.822   1.881   1.125 -0.1609  0.3626  0.0287
25992SOL     OW79649   7.608   4.872   4.636 -0.9593 -0.2533  0.0336
25992SOL    HW179650   7.604   4.924   4.556 -0.0646 -2.1156 -1.3199
25992SOL    HW279651   7.658   4.925   4.698 -0.5357  0.7015 -1.1020
25993SOL     OW79652   9.282   5.410   7.899 -0.1020  0.5730  0.1560
25993SOL    HW179653   9.336   5.428   7.976 -0.6602  0.0346  0.6799
25993SOL    HW279654   9.265   5.316   7.903  0.4612  0.3935 -1.0299
25994SOL     OW79655   0.184   2.071   4.274 -0.3396 -0.0128  0.0490
25994SOL    HW179656   0.101   2.107   4.243 -1.1754  0.3242  2.4603
25994SOL    HW279657   0.183   2.086   4.369  1.6315 -1.7387  0.4232
25995SOL     OW79658   4.615   8.513   7.586  0.2091 -0.4324  0.0664
25995SOL    HW179659   4.678   8.447   7.554  0.2168 -0.2435 -0.3173
25995SOL    HW279660   4.597   8.567   7.509 -0.0650 -0.1981  0.2960
25996SOL     OW79661   3.262   3.595   0.860 -0.0158 -0.4105  0.0402
25996SOL    HW179662   3.239   3.566   0.948  1.8482 -0.7533  0.4510
25996SOL    HW279663   3.288   3.687   0.872 -0.2842 -0.2899 -0.2707
25997SOL     OW79664   9.401   2.964   4.241 -0.1031  0.2213  0.6479
25997SOL    HW179665   9.357   2.890   4.283 -0.0673 -0.3549 -0.2985
25997SOL    HW279666   9.331   3.025   4.219 -0.1650  0.3480  1.1825
25998SOL     OW79667   8.083   4.085   0.375 -0.0648  0.3778 -0.6125
25998SOL    HW179668   8.161   4.138   0.364  1.2275 -1.2154  0.4139
25998SOL    HW279669   8.115   4.001   0.409 -2.3118  0.0283  0.8547
25999SOL     OW79670   6.156   4.347   2.318 -0.3714 -0.0447  0.6070
25999SOL    HW179671   6.084   4.332   2.256  0.3493  0.2912 -0.3396
25999SOL    HW279672   6.162   4.443   2.325 -1.0144 -0.0792  1.8986
26000SOL     OW79673   4.387   8.016   1.629  0.6244 -0.3767  0.0494
26000SOL    HW179674   4.358   8.027   1.538  1.2032  0.5936 -0.0259
26000SOL    HW279675   4.441   8.093   1.647 -0.1531 -0.1299  1.4881
26001SOL     OW79676   0.173   7.148   7.204  0.1851  0.0749  0.0812
26001SOL    HW179677   0.151   7.100   7.124 -0.6552  1.0019 -0.2557
26001SOL    HW279678   0.242   7.095   7.244  1.3486  0.0990 -1.7554
26002SOL     OW79679   6.819   6.320   7.858  0.3089 -0.0303  0.2576
26002SOL    HW179680   6.752   6.375   7.818  1.1216  0.8068  0.0263
26002SOL    HW279681   6.804   6.233   7.820 -1.3107 -0.1141  1.0310
26003SOL     OW79682   0.681   0.884   1.635  0.4521 -0.5167 -0.3074
26003SOL    HW179683   0.669   0.817   1.567  0.4931  0.1704 -1.0078
26003SOL    HW279684   0.633   0.851   1.710  0.7143 -1.4741 -0.5422
26004SOL     OW79685   1.551   1.615   1.097  0.3821 -0.5608  0.2893
26004SOL    HW179686   1.537   1.520   1.097 -0.6434 -0.4752 -2.2653
26004SOL    HW279687   1.489   1.649   1.032  2.0342  1.6630 -0.2478
26005SOL     OW79688   2.138   2.131   1.128  0.3874 -0.0416 -0.3187
26005SOL    HW179689   2.196   2.057   1.147  1.4876  0.5837 -1.1353
26005SOL    HW279690   2.192   2.209   1.143 -1.0516  0.6863  1.5877
26006SOL     OW79691   0.395   6.552   3.910  0.2753  0.4789 -0.0333
26006SOL    HW179692   0.476   6.604   3.912  0.5813 -0.0011  1.0946
26006SOL    HW279693   0.399   6.499   3.990 -0.4735 -0.5989 -0.6807
26007SOL     OW79694   4.390   9.569   6.582 -1.0122  0.6546 -0.1397
26007SOL    HW179695   4.454   9.583   6.512 -0.0688 -1.6116  0.1882
26007SOL    HW279696   4.307   9.598   6.544 -0.3701  0.4184 -1.8417
26008SOL     OW79697   6.015   8.335   0.418 -0.2518 -0.1345  0.1771
26008SOL    HW179698   5.983   8.280   0.489 -2.8794 -0.0197 -0.8276
26008SOL    HW279699   6.000   8.425   0.448  1.1343  0.0165  0.5190
26009SOL     OW79700   1.398   0.338   7.490  0.1136  0.3150 -0.4852
26009SOL    HW179701   1.362   0.293   7.566 -1.0363  1.5338 -0.2623
26009SOL    HW279702   1.420   0.269   7.428  0.7021 -0.6687  0.7972
26010SOL     OW79703   3.483   8.324   1.016 -0.4447 -0.1846  0.4245
26010SOL    HW179704   3.465   8.363   1.101 -1.3020 -0.2804  0.2929
26010SOL    HW279705   3.573   8.291   1.023  0.1195  1.3241  0.7137
26011SOL     OW79706   3.046   2.323   7.934  0.3085  0.1658 -0.1240
26011SOL    HW179707   2.958   2.358   7.948  0.0556 -0.8407  1.0056
26011SOL    HW279708   3.073   2.291   8.020  1.3036 -0.6089 -0.6968
26012SOL     OW79709   7.673   9.320   6.666  0.1428  0.4920 -0.2062
26012SOL    HW179710   7.740   9.255   6.648  2.6033  2.5179  0.9173
26012SOL    HW279711   7.666   9.370   6.585 -0.1182  0.1738 -0.3786
26013SOL     OW79712   7.869   3.014   9.647 -0.2420 -0.0900 -0.1260
26013SOL    HW179713   7.886   3.106   9.626  0.7300 -0.5761 -1.5598
26013SOL    HW279714   7.834   3.016   9.736 -1.8805  1.8212 -0.7495
26014SOL     OW79715   5.135   7.044   5.917  0.5712 -0.4417 -0.0764
26014SOL    HW179716   5.061   7.073   5.971  0.8374  0.4316 -0.1796
26014SOL    HW279717   5.208   7.036   5.978  0.7240 -0.0251 -0.2055
26015SOL     OW79718   6.880   0.576   7.406  0.0179 -0.1817  0.4317
26015SOL    HW179719   6.891   0.482   7.393 -0.6811 -0.0699 -1.2913
26015SOL    HW279720   6.785   0.588   7.417  0.1010  0.3202  0.6532
26016SOL     OW79721   0.993   4.355   7.253 -0.1353 -0.4358 -0.3321
26016SOL    HW179722   0.923   4.306   7.296 -0.0600 -0.0785  0.2136
26016SOL    HW279723   1.007   4.431   7.310  0.9795 -0.7132 -0.2098
26017SOL     OW79724   7.326   4.576   8.023  0.6113  0.6942 -0.5817
26017SOL    HW179725   7.403   4.551   7.972  1.8786  2.1163  0.5284
26017SOL    HW279726   7.257   4.520   7.991  2.2843 -1.1866 -1.1043
26018SOL     OW79727   4.664   4.804   1.834  0.0575 -0.3305 -0.1665
26018SOL    HW179728   4.699   4.863   1.768 -0.6639 -1.0356 -1.2056
26018SOL    HW279729   4.572   4.829   1.843 -0.0458 -0.7480 -0.0151
26019SOL     OW79730   9.570   2.992   9.043 -0.0422  0.4195  0.1060
26019SOL    HW179731   9.600   2.963   9.130 -0.2427  1.2639  0.4699
26019SOL    HW279732   9.569   2.912   8.991 -1.6875 -0.4472  1.3792
26020SOL     OW79733   3.693   0.571   7.549  0.0264 -0.0866  0.0564
26020SOL    HW179734   3.760   0.518   7.505 -0.0332  0.0848 -0.2478
26020SOL    HW279735   3.658   0.514   7.616 -1.4603 -1.1802 -1.5610
26021SOL     OW79736   8.721   5.576   8.557  0.1519 -0.6818 -0.1600
26021SOL    HW179737   8.626   5.570   8.545  0.1784  0.7776 -1.5177
26021SOL    HW279738   8.732   5.594   8.650 -1.0148  0.2942 -0.1709
26022SOL     OW79739   8.214   5.206   9.453  0.3119 -0.2902  0.2392
26022SOL    HW179740   8.157   5.133   9.427  0.4861 -0.5698  0.6264
26022SOL    HW279741   8.198   5.216   9.547 -0.9591  1.2690 -0.0858
26023SOL     OW79742   8.738   5.927   5.667 -0.4717  0.2457 -0.4638
26023SOL    HW179743   8.737   5.839   5.705  1.2622  0.3954 -0.0180
26023SOL    HW279744   8.727   5.912   5.573  1.3365 -0.5905 -0.5807
26024SOL     OW79745   0.507   0.096   7.812 -0.4256  0.1525  0.1333
26024SOL    HW179746   0.484   0.166   7.873 -0.9434  0.5908 -0.5392
26024SOL    HW279747   0.524   0.141   7.729 -1.3868 -0.5564 -0.4733
26025SOL     OW79748   1.115   3.729   6.770  0.3028 -0.3639  0.3200
26025SOL    HW179749   1.161   3.645   6.765  0.0349 -0.5768  1.3118
26025SOL    HW279750   1.179   3.793   6.738  1.1339 -0.7126  1.2526
26026SOL     OW79751   2.772   0.128   2.110 -0.4482  0.5013  0.3441
26026SOL    HW179752   2.725   0.045   2.124 -0.8683  0.3620 -1.5932
26026SOL    HW279753   2.724   0.170   2.039  1.0946  1.3800 -0.2084
26027SOL     OW79754   3.840   0.580   7.938 -0.2672 -0.1872  0.1707
26027SOL    HW179755   3.774   0.513   7.956 -0.3481 -0.6999 -1.8011
26027SOL    HW279756   3.911   0.533   7.895  0.3356  0.7578  0.1024
26028SOL     OW79757   2.991   7.908   7.388 -0.1159  0.0401  0.6886
26028SOL    HW179758   2.971   7.815   7.399  0.7762 -0.1802  0.5248
26028SOL    HW279759   2.960   7.929   7.301  0.9144 -0.4615  0.1788
26029SOL     OW79760   5.914   1.184   5.247 -0.0411 -0.0995 -0.5914
26029SOL    HW179761   6.001   1.165   5.210 -0.7711 -3.4846 -0.9145
26029SOL    HW279762   5.924   1.269   5.288  3.1593  0.0952 -1.4520
26030SOL     OW79763   3.391   5.383   1.421  0.4718 -0.6653 -0.5959
26030SOL    HW179764   3.331   5.438   1.471  2.1160  1.6142 -1.0030
26030SOL    HW279765   3.346   5.298   1.415 -1.9484  0.4527  0.4786
26031SOL     OW79766   7.857   2.915   2.679 -0.4315  0.0653  0.2622
26031SOL    HW179767   7.914   2.931   2.605  0.2049 -1.4595  0.3849
26031SOL    HW279768   7.770   2.903   2.641 -0.1059 -0.7265 -0.2343
26032SOL     OW79769   8.963   4.912   2.968 -0.3680 -0.1775  0.7699
26032SOL    HW179770   8.974   4.982   3.032 -1.7734  0.0749  0.7656
26032SOL    HW279771   8.948   4.834   3.021 -0.0415 -0.2533  0.7557
26033SOL     OW79772   0.427   3.780   1.274 -0.5981  0.3488  0.6099
26033SOL    HW179773   0.354   3.813   1.222  0.9481 -0.2253 -2.0985
26033SOL    HW279774   0.450   3.697   1.234  0.5643 -0.2525  2.3966
26034SOL     OW79775   7.018   7.033   9.286 -0.0025 -0.4102  0.6780
26034SOL    HW179776   7.025   7.043   9.191 -0.6851 -0.2361  0.6413
26034SOL    HW279777   6.940   6.979   9.299  0.3576 -0.8285  1.1261
26035SOL     OW79778   7.425   1.541   3.128 -0.1571  0.2476  0.2954
26035SOL    HW179779   7.378   1.529   3.210 -0.4663 -1.3017 -0.0874
26035SOL    HW279780   7.500   1.482   3.134  0.3434  0.8162 -0.1658
26036SOL     OW79781   1.401   5.626   1.268  0.1253 -0.6072 -0.0490
26036SOL    HW179782   1.495   5.634   1.285  0.0824 -0.8594  0.3025
26036SOL    HW279783   1.397   5.584   1.181  0.3372 -0.3276 -0.1956
26037SOL     OW79784   9.034   1.844   0.971 -0.1966 -0.3922 -0.4574
26037SOL    HW179785   9.002   1.928   1.005 -0.0505 -0.2540 -0.6638
26037SOL    HW279786   9.069   1.864   0.885  1.0958 -0.4123  0.0386
26038SOL     OW79787   7.417   5.764   5.046  1.0387  0.1197  0.5619
26038SOL    HW179788   7.344   5.781   4.986  1.4048  0.3225  0.1749
26038SOL    HW279789   7.389   5.802   5.129  1.2743  1.4025  0.0623
26039SOL     OW79790   3.263   6.219   2.751  0.5051  0.0010 -0.3713
26039SOL    HW179791   3.337   6.201   2.694 -0.2543 -1.2883 -1.0177
26039SOL    HW279792   3.187   6.219   2.693 -0.1203  0.2319  0.4208
26040SOL     OW79793   6.911   8.240   8.000 -0.0605  0.3413 -0.0685
26040SOL    HW179794   6.941   8.207   8.085 -0.2261  0.5326  0.0634
26040SOL    HW279795   6.986   8.226   7.942 -0.5484 -1.4971 -0.3396
26041SOL     OW79796   3.801   6.139   5.952 -0.5746 -0.7326  0.0283
26041SOL    HW179797   3.894   6.116   5.958 -0.2955  0.4930  0.7089
26041SOL    HW279798   3.765   6.118   6.038 -0.7499 -0.4591  0.0233
26042SOL     OW79799   6.978   3.910   4.974  0.4104  0.1653  0.5240
26042SOL    HW179800   6.895   3.919   5.022  1.0360  2.0804  1.3455
26042SOL    HW279801   7.008   4.000   4.961  2.7908 -0.5032  0.9902
26043SOL     OW79802   0.459   4.190   4.675 -0.1640 -0.6007 -0.2159
26043SOL    HW179803   0.533   4.251   4.680 -3.0863  3.3633 -0.2153
26043SOL    HW279804   0.444   4.178   4.582 -1.4415  1.4878 -0.3629
26044SOL     OW79805   3.058   6.252   9.087 -0.0403 -0.1805  0.5435
26044SOL    HW179806   3.124   6.184   9.100  2.6052  2.3085  1.1356
26044SOL    HW279807   2.995   6.238   9.158  1.1247 -1.2106  1.4185
26045SOL     OW79808   5.716   2.137   9.242  0.0698 -0.0714  0.6363
26045SOL    HW179809   5.639   2.185   9.211 -0.7016 -1.5877  0.0471
26045SOL    HW279810   5.736   2.176   9.327  0.3908  2.2015 -0.4141
26046SOL     OW79811   5.195   5.541   8.729 -0.2323  0.0681 -0.6668
26046SOL    HW179812   5.165   5.599   8.799 -0.2600 -0.8700  0.1228
26046SOL    HW279813   5.114   5.511   8.687 -0.3256 -0.8994  0.1755
26047SOL     OW79814   5.648   1.300   0.962 -0.3980  0.2313  0.3179
26047SOL    HW179815   5.590   1.244   0.909  0.0669 -1.1868  1.2647
26047SOL    HW279816   5.589   1.348   1.020 -0.7493  0.2726 -0.0655
26048SOL     OW79817   7.784   3.733   6.286 -0.2067  0.0470  0.4044
26048SOL    HW179818   7.768   3.701   6.198  2.9233  0.3020 -0.3515
26048SOL    HW279819   7.833   3.814   6.275 -0.6251  0.6436  2.3823
26049SOL     OW79820   5.899   4.640   4.015  0.0260 -0.1526  0.1247
26049SOL    HW179821   5.965   4.689   4.063 -1.1605 -0.5972  2.3530
26049SOL    HW279822   5.903   4.552   4.052 -1.6400 -0.2328  0.2098
26050SOL     OW79823   1.836   8.321   0.410 -0.1550  0.2249 -0.4505
26050SOL    HW179824   1.813   8.291   0.322  0.4467 -1.7481  0.0105
26050SOL    HW279825   1.753   8.326   0.457 -0.4171  0.7495 -0.9592
26051SOL     OW79826   2.114   1.120   5.165  0.1377 -0.0629 -0.4055
26051SOL    HW179827   2.173   1.057   5.123 -0.4817 -1.6668  1.0033
26051SOL    HW279828   2.117   1.096   5.258 -0.2333  1.9348  0.1508
26052SOL     OW79829   0.113   4.700   4.818  0.3600  0.4277  0.4181
26052SOL    HW179830   0.135   4.751   4.895 -0.6862  1.9815 -0.2694
26052SOL    HW279831   0.119   4.762   4.745  2.4358 -1.2445 -0.9611
26053SOL     OW79832   3.124   1.998   6.165  0.1635 -0.2083  0.2253
26053SOL    HW179833   3.045   2.052   6.165 -0.4604 -1.0786  0.5993
26053SOL    HW279834   3.096   1.916   6.124  0.6760 -0.7989  1.0330
26054SOL     OW79835   5.866   2.472   9.349  0.3398  0.2528  0.5821
26054SOL    HW179836   5.868   2.392   9.402  0.0487 -1.7447 -2.1772
26054SOL    HW279837   5.778   2.507   9.361  0.5543  0.3255  2.0245
26055SOL     OW79838   9.028   5.018   2.217 -0.4057 -0.1162 -0.4763
26055SOL    HW179839   8.967   4.952   2.184 -0.1864  0.6180 -2.4502
26055SOL    HW279840   9.098   4.967   2.257  0.0458 -1.1645 -2.4558
26056SOL     OW79841   7.052   0.171   3.092 -0.3416 -0.7671 -0.0043
26056SOL    HW179842   6.964   0.165   3.130  0.1017  0.5479  1.3488
26056SOL    HW279843   7.071   0.265   3.091  0.7959 -0.9819 -0.8899
26057SOL     OW79844   7.589   9.099   7.940  0.3127  0.2297 -0.0744
26057SOL    HW179845   7.531   9.167   7.974  2.0900  1.5846  0.3957
26057SOL    HW279846   7.672   9.145   7.923  0.4213 -0.9655 -3.5365
26058SOL     OW79847   0.212   0.557   4.747 -0.2798 -0.5336 -0.1109
26058SOL    HW179848   0.262   0.476   4.755 -0.8647 -0.9958 -0.9018
26058SOL    HW279849   0.267   0.614   4.692 -0.9997 -1.4116 -1.8410
26059SOL     OW79850   3.729   8.998   2.291  0.2198 -0.3023 -0.3040
26059SOL    HW179851   3.700   9.076   2.338  3.2128  2.5239 -2.7027
26059SOL    HW279852   3.813   8.976   2.330  0.2559 -1.2054 -0.8566
26060SOL     OW79853   8.167   7.622   5.256 -0.0648 -0.0762 -0.9938
26060SOL    HW179854   8.200   7.537   5.284 -1.4817  0.1085  1.4690
26060SOL    HW279855   8.115   7.604   5.178 -3.3002 -2.1761  1.3945
26061SOL     OW79856   6.548   1.988   0.464  0.6733 -0.2428  0.1301
26061SOL    HW179857   6.586   1.989   0.376 -0.8126 -3.5795 -0.7190
26061SOL    HW279858   6.555   2.079   0.495  0.9008  1.1618 -3.5701
26062SOL     OW79859   1.145   1.488   0.324  0.1392  0.0958 -0.0021
26062SOL    HW179860   1.186   1.438   0.395 -0.2222 -0.8147 -0.4133
26062SOL    HW279861   1.203   1.473   0.249  0.1160  0.4363 -0.0874
26063SOL     OW79862   7.232   5.131   7.841 -0.6743  0.1883 -0.0502
26063SOL    HW179863   7.304   5.177   7.883 -0.2221  2.3233 -2.9249
26063SOL    HW279864   7.265   5.042   7.828 -0.0855  0.0341  2.0647
26064SOL     OW79865   9.195   5.292   1.902  0.0737  0.1447 -0.1532
26064SOL    HW179866   9.236   5.373   1.932  1.1017  0.1596 -1.5051
26064SOL    HW279867   9.235   5.223   1.956 -0.2012  0.4430  0.4392
26065SOL     OW79868   3.211   1.314   2.792 -0.0033 -0.4328 -0.1148
26065SOL    HW179869   3.301   1.339   2.770 -0.3935  0.9330 -0.2458
26065SOL    HW279870   3.167   1.308   2.708 -0.1639 -0.6054 -0.0181
26066SOL     OW79871   1.650   8.915   5.074 -0.2168 -0.0469  0.4929
26066SOL    HW179872   1.654   9.011   5.080  1.2138 -0.0551  0.0205
26066SOL    HW279873   1.700   8.894   4.995 -1.6207 -1.1238 -0.1508
26067SOL     OW79874   3.586   7.323   2.205  0.0521 -0.3207 -0.3940
26067SOL    HW179875   3.616   7.365   2.124 -1.5118  0.1354 -0.7732
26067SOL    HW279876   3.495   7.300   2.187 -0.0616 -0.9866  0.9562
26068SOL     OW79877   0.468   5.553   1.051 -0.1347 -0.6708  0.0812
26068SOL    HW179878   0.459   5.648   1.053 -0.2166 -0.6248 -1.4307
26068SOL    HW279879   0.546   5.538   0.997 -0.2098 -1.4631  0.1893
26069SOL     OW79880   8.557   8.422   0.799  0.2831  0.2072 -0.2094
26069SOL    HW179881   8.590   8.507   0.771  0.9198  0.1487  0.3370
26069SOL    HW279882   8.475   8.442   0.845 -1.0745  0.2556 -2.5033
26070SOL     OW79883   0.771   2.023   5.366 -0.5998 -0.3122  0.4459
26070SOL    HW179884   0.775   2.009   5.460 -3.1992 -0.3466  0.6350
26070SOL    HW279885   0.720   2.104   5.356 -0.7191 -0.5339 -0.9274
26071SOL     OW79886   1.262   0.298   2.438  0.0625 -0.3752  0.2705
26071SOL    HW179887   1.313   0.217   2.433  1.0772  0.2960 -0.7079
26071SOL    HW279888   1.274   0.338   2.352 -2.2087 -0.2270 -0.0341
26072SOL     OW79889   5.688   3.809   1.615 -0.3284  0.2681  0.0545
26072SOL    HW179890   5.618   3.873   1.603 -0.7273 -0.2557 -0.4904
26072SOL    HW279891   5.768   3.854   1.586 -0.1307  1.4516  2.2461
26073SOL     OW79892   4.875   5.011   5.644  0.2809  0.3197  1.0499
26073SOL    HW179893   4.865   5.101   5.612 -0.6564  0.0698  0.5908
26073SOL    HW279894   4.813   5.005   5.717  0.4493  0.0911  1.1732
26074SOL     OW79895   2.273   3.681   6.115  0.4397  0.0614 -0.1141
26074SOL    HW179896   2.251   3.625   6.040 -1.9931  0.9982 -0.1784
26074SOL    HW279897   2.232   3.638   6.189 -0.6181  1.2002 -0.0082
26075SOL     OW79898   6.436   7.060   2.795 -0.0929  0.0009 -0.4023
26075SOL    HW179899   6.394   7.129   2.742 -0.7781 -0.2521 -0.1936
26075SOL    HW279900   6.367   6.997   2.811  0.4279 -0.5285 -0.2204
26076SOL     OW79901   2.871   9.635   4.219 -0.2551  0.2717 -0.4535
26076SOL    HW179902   2.781   9.647   4.252 -0.1763 -0.0615 -0.1035
26076SOL    HW279903   2.908   9.568   4.277 -0.1627 -0.4416 -1.3107
26077SOL     OW79904   0.075   4.327   9.177 -0.2071 -0.4039  0.1155
26077SOL    HW179905  -0.017   4.310   9.198 -0.5500  0.5632 -0.5330
26077SOL    HW279906   0.078   4.330   9.082  0.4149  0.0179  0.1414
26078SOL     OW79907   2.237   2.023   3.183  0.2344 -0.6649  0.0288
26078SOL    HW179908   2.195   1.977   3.111 -0.2257  1.5253 -1.2072
26078SOL    HW279909   2.166   2.043   3.244  0.1169 -0.1877 -0.2545
26079SOL     OW79910   8.529   7.654   6.247  0.1515 -0.3485 -0.0019
26079SOL    HW179911   8.468   7.674   6.317  1.1086  1.1380  0.4382
26079SOL    HW279912   8.592   7.594   6.286  0.2451 -0.1324  0.1756
26080SOL     OW79913   1.116   5.572   6.210  0.3366 -0.2423  0.0825
26080SOL    HW179914   1.096   5.479   6.203 -0.4882 -0.0630 -0.0020
26080SOL    HW279915   1.108   5.605   6.121 -0.9534  0.2136  0.3426
26081SOL     OW79916   8.286   9.309   9.102 -0.1423  0.5815 -0.3219
26081SOL    HW179917   8.287   9.255   9.181  1.6670  0.4666 -0.3915
26081SOL    HW279918   8.194   9.313   9.077 -0.4662 -1.4050  0.3994
26082SOL     OW79919   0.171   6.115   2.145 -0.3662 -0.4250 -0.3149
26082SOL    HW179920   0.187   6.165   2.065 -1.1505 -1.6054 -1.2320
26082SOL    HW279921   0.258   6.089   2.174  0.0339  1.0939 -0.0286
26083SOL     OW79922   6.441   4.760   7.141 -0.1063 -0.2890  0.6015
26083SOL    HW179923   6.356   4.748   7.098 -0.4847  1.2265  0.8556
26083SOL    HW279924   6.419   4.800   7.225  0.9174  1.6202  0.0161
26084SOL     OW79925   1.986   6.441   9.039 -0.0068 -0.2943 -0.3674
26084SOL    HW179926   1.913   6.398   8.994  0.2757 -0.0750 -1.0515
26084SOL    HW279927   2.039   6.369   9.073 -0.5056 -0.4545  0.0735
26085SOL     OW79928   4.325   1.150   3.380  0.2851 -0.8150  0.1406
26085SOL    HW179929   4.389   1.139   3.450  0.3982 -2.5908 -0.1967
26085SOL    HW279930   4.255   1.202   3.420  1.0911 -0.4132  1.0661
26086SOL     OW79931   7.323   7.991   1.366  0.0619  0.0942  0.1378
26086SOL    HW179932   7.381   7.917   1.383 -0.5406 -0.5884 -0.6955
26086SOL    HW279933   7.375   8.050   1.312 -0.1092 -0.6913 -0.9223
26087SOL     OW79934   4.561   6.774   6.618  0.6542 -0.0232 -0.3732
26087SOL    HW179935   4.540   6.684   6.591 -0.0343  0.8746 -3.1901
26087SOL    HW279936   4.476   6.815   6.633  0.9504  0.2823  0.5410
26088SOL     OW79937   5.718   4.343   8.489 -0.6166  0.8445 -0.3452
26088SOL    HW179938   5.656   4.337   8.562  0.1965  0.1284  0.3165
26088SOL    HW279939   5.672   4.393   8.422 -2.1111 -0.1071 -0.0783
26089SOL     OW79940   7.474   9.141   4.243  0.0527 -0.3745  0.2447
26089SOL    HW179941   7.505   9.228   4.221  1.3802 -0.2966  2.1828
26089SOL    HW279942   7.518   9.083   4.181 -0.0634  0.2150 -0.4034
26090SOL     OW79943   3.562   4.287   8.908 -0.0128  0.3660 -0.2891
26090SOL    HW179944   3.525   4.203   8.882 -2.2861  0.4276  2.2402
26090SOL    HW279945   3.515   4.352   8.856 -1.6589  0.2673  0.9852
26091SOL     OW79946   2.364   1.190   0.650 -0.3871 -0.2934 -0.0221
26091SOL    HW179947   2.281   1.143   0.656 -0.2612 -0.6214 -0.6958
26091SOL    HW279948   2.431   1.121   0.650 -0.1236 -0.0438  0.2991
26092SOL     OW79949   1.011   8.008   1.892 -0.0513 -0.4916  0.3212
26092SOL    HW179950   1.000   7.936   1.955 -0.1652 -1.2022 -0.4962
26092SOL    HW279951   0.941   8.070   1.915 -0.4520 -1.0103  0.5339
26093SOL     OW79952   3.851   7.778   8.954 -0.0722 -0.0636 -0.0571
26093SOL    HW179953   3.772   7.799   8.903 -1.2185 -0.4114  1.4962
26093SOL    HW279954   3.879   7.692   8.921 -1.0125 -0.4516  0.1139
26094SOL     OW79955   0.661   0.704   1.424 -0.3544  0.2432 -0.0662
26094SOL    HW179956   0.646   0.628   1.481  0.9071  0.4201  0.5475
26094SOL    HW279957   0.665   0.667   1.336 -0.8168 -0.2550  0.1144
26095SOL     OW79958   0.956   2.887   6.421 -0.1176  0.0286 -0.6368
26095SOL    HW179959   0.998   2.973   6.429  0.3979 -0.3258  0.7637
26095SOL    HW279960   1.028   2.825   6.430 -0.6869 -0.5691 -0.1236
26096SOL     OW79961   8.456   9.157   2.907  0.7109 -0.7488  0.2775
26096SOL    HW179962   8.385   9.109   2.952  0.4583  0.8105  1.6131
26096SOL    HW279963   8.496   9.210   2.976  1.9316 -0.1464 -0.8714
26097SOL     OW79964   9.131   2.308   2.075  0.1054  0.2205  0.1955
26097SOL    HW179965   9.136   2.396   2.113  1.5369  0.4336 -0.4250
26097SOL    HW279966   9.216   2.296   2.031 -0.5092 -1.0244 -0.7043
26098SOL     OW79967   5.936   7.464   7.436  0.4317 -0.1274 -0.2879
26098SOL    HW179968   5.976   7.501   7.515  1.1924  0.1896 -0.8086
26098SOL    HW279969   5.847   7.499   7.436 -0.3380 -1.8764  1.5782
26099SOL     OW79970   0.107   9.213   0.963 -0.7597  0.0363  0.1067
26099SOL    HW179971   0.113   9.242   1.054 -1.9747  0.4062  0.0917
26099SOL    HW279972   0.102   9.294   0.912  1.3156 -0.1270 -0.4488
26100SOL     OW79973   6.563   7.362   8.125 -0.2997 -0.1494  0.3592
26100SOL    HW179974   6.511   7.361   8.045 -1.0410 -0.5022  0.8240
26100SOL    HW279975   6.505   7.403   8.190 -0.1303 -0.8643  0.9702
26101SOL     OW79976   0.768   0.636   3.220  0.0500  0.1101 -0.2129
26101SOL    HW179977   0.810   0.719   3.244  1.1332 -0.5435  0.2502
26101SOL    HW279978   0.759   0.589   3.303  0.8793 -0.8617 -0.6523
26102SOL     OW79979   0.767   1.572   1.104 -0.3537 -0.4771 -0.0508
26102SOL    HW179980   0.832   1.504   1.118 -1.7632 -1.7307  0.7824
26102SOL    HW279981   0.770   1.590   1.010  0.0882 -1.6591 -0.2777
26103SOL     OW79982   0.802   2.703   1.007 -1.0307 -0.2395 -0.2796
26103SOL    HW179983   0.833   2.780   1.056  0.1638 -0.9802  0.1810
26103SOL    HW279984   0.782   2.737   0.920 -2.2934  0.9334  0.4192
26104SOL     OW79985   4.124   0.319   8.748 -0.0275  0.3162 -0.2496
26104SOL    HW179986   4.212   0.295   8.720 -0.2683  0.0092 -0.7440
26104SOL    HW279987   4.114   0.410   8.719  0.1036  0.3334 -0.2429
26105SOL     OW79988   4.855   0.290   5.035  0.1872  0.1867  0.3111
26105SOL    HW179989   4.857   0.195   5.024 -1.6067  0.0288  0.9443
26105SOL    HW279990   4.866   0.325   4.947 -0.0403 -0.6448 -0.0625
26106SOL     OW79991   2.137   5.415   4.208  0.2693  0.0884  0.2383
26106SOL    HW179992   2.191   5.475   4.156  0.4617  1.2470  1.7093
26106SOL    HW279993   2.144   5.448   4.298 -1.3416 -0.8995  0.7696
26107SOL     OW79994   5.397   5.940   6.027 -0.4491  0.5171 -0.0254
26107SOL    HW179995   5.477   5.985   5.997 -0.3663  0.0889 -0.4684
26107SOL    HW279996   5.332   5.959   5.960 -0.6489  0.6594  0.2082
26108SOL     OW79997   1.469   7.784   1.802 -0.1643 -0.2848  0.0526
26108SOL    HW179998   1.531   7.723   1.763 -1.1649 -0.3971 -1.4557
26108SOL    HW279999   1.521   7.861   1.823  0.8636 -1.1461  0.7904
26109SOL     OW80000   7.122   8.954   2.435  0.2977 -0.1822 -0.0494
26109SOL    HW180001   7.104   9.035   2.388 -2.0003  0.1164  1.2338
26109SOL    HW280002   7.141   8.982   2.525  0.1230 -1.0394  0.2628
26110SOL     OW80003   9.277   2.558   5.286  0.6128  0.0635 -0.1957
26110SOL    HW180004   9.269   2.540   5.380  0.2413  0.5789 -0.1223
26110SOL    HW280005   9.365   2.527   5.263  0.6282 -0.2575  0.2763
26111SOL     OW80006   7.999   7.291   7.956  0.1073  0.2398 -0.7371
26111SOL    HW180007   8.060   7.363   7.939  1.7099 -0.9854 -0.4628
26111SOL    HW280008   7.950   7.281   7.875  0.9882  0.6094 -1.3347
26112SOL     OW80009   1.355   7.311   7.126 -0.5684  0.1260 -0.1772
26112SOL    HW180010   1.441   7.272   7.110 -1.0689 -0.8814 -0.4540
26112SOL    HW280011   1.330   7.349   7.042  0.7178  2.7394  0.5215
26113SOL     OW80012   5.027   4.404   4.601  0.1718 -0.1215  0.2149
26113SOL    HW180013   5.006   4.491   4.568  1.0292  0.1103  0.2570
26113SOL    HW280014   5.077   4.420   4.681  0.3460 -0.6504  0.2203
26114SOL     OW80015   8.986   6.398   2.091  0.1669 -0.4485 -0.0439
26114SOL    HW180016   8.976   6.468   2.027  0.0275 -1.0632 -0.7121
26114SOL    HW280017   8.897   6.381   2.122 -0.0544 -1.4753 -1.1537
26115SOL     OW80018   4.582   0.155   1.857 -0.0428 -0.1068  0.3315
26115SOL    HW180019   4.622   0.092   1.797 -1.7283 -1.9410  1.0052
26115SOL    HW280020   4.604   0.241   1.821  0.8873 -1.1146 -1.6244
26116SOL     OW80021   5.851   4.845   8.721 -0.2302  0.0207  0.1582
26116SOL    HW180022   5.821   4.762   8.684 -0.4529  0.2553 -0.1892
26116SOL    HW280023   5.771   4.895   8.737 -0.0763  0.3062  0.0456
26117SOL     OW80024   8.966   0.886   2.171 -0.2100  0.5664  0.3748
26117SOL    HW180025   8.950   0.825   2.099  1.8787 -1.0416  1.1838
26117SOL    HW280026   8.919   0.966   2.146  0.8249  0.2536 -2.9860
26118SOL     OW80027   3.610   8.867   8.112  0.1128  0.4048 -0.0140
26118SOL    HW180028   3.574   8.784   8.143 -0.7147  0.2479 -1.3053
26118SOL    HW280029   3.549   8.933   8.146 -0.5155  0.2755 -0.8558
26119SOL     OW80030   6.524   6.413   4.681 -0.4454 -0.6243 -0.2420
26119SOL    HW180031   6.480   6.369   4.754 -0.1096 -1.6838 -0.6590
26119SOL    HW280032   6.603   6.451   4.719 -0.5713 -0.6706  0.0663
26120SOL     OW80033   1.355   6.841   4.915  0.4840  0.0461 -0.2184
26120SOL    HW180034   1.422   6.892   4.869  0.8731  0.2302  0.5307
26120SOL    HW280035   1.286   6.904   4.934  1.2246  0.4885  1.2374
26121SOL     OW80036   2.494   3.777   9.457 -0.4199 -0.2953  0.0351
26121SOL    HW180037   2.537   3.749   9.377  1.9704  0.0612  1.1031
26121SOL    HW280038   2.461   3.865   9.437 -2.3145 -1.2512 -1.3425
26122SOL     OW80039   3.949   7.258   5.535 -0.5569  0.2020 -0.0227
26122SOL    HW180040   4.034   7.216   5.545  0.0196  1.2870 -0.1656
26122SOL    HW280041   3.912   7.220   5.455  1.0749  1.7297 -1.6069
26123SOL     OW80042   3.306   4.497   0.540  0.0324  0.3020 -0.0613
26123SOL    HW180043   3.249   4.463   0.471  0.8511 -0.8687 -0.2009
26123SOL    HW280044   3.278   4.588   0.552  0.9680  1.1331 -3.1707
26124SOL     OW80045   1.449   5.222   9.213  0.1538 -0.4495  0.5301
26124SOL    HW180046   1.451   5.133   9.178  0.9416 -1.1585  2.2628
26124SOL    HW280047   1.539   5.238   9.242  0.4906  1.6370 -1.3980
26125SOL     OW80048   9.142   3.590   4.847  0.3090  0.4209  0.1871
26125SOL    HW180049   9.107   3.626   4.765 -0.7312  1.5275  1.0699
26125SOL    HW280050   9.106   3.501   4.852  1.4920 -0.1645 -1.1883
26126SOL     OW80051   8.652   9.213   7.971 -0.0153 -0.3024  0.2860
26126SOL    HW180052   8.611   9.268   7.903 -0.6093  0.0922  0.9516
26126SOL    HW280053   8.585   9.148   7.992 -0.2370  0.2073  1.2206
26127SOL     OW80054   9.290   5.025   4.555  0.2750 -0.0181 -0.0065
26127SOL    HW180055   9.237   5.019   4.476 -0.7979 -0.3934  0.7255
26127SOL    HW280056   9.379   5.039   4.523  0.0929 -1.6617 -1.3369
26128SOL     OW80057   4.585   0.998   8.714 -0.3774  0.0890 -0.1692
26128SOL    HW180058   4.644   0.988   8.639  0.2920  1.1373  0.1980
26128SOL    HW280059   4.642   1.026   8.786 -1.1248 -0.1978  0.5449
26129SOL     OW80060   1.376   5.590   8.857  0.2484 -0.1958 -0.1790
26129SOL    HW180061   1.302   5.565   8.912 -0.1335 -2.3052 -1.5515
26129SOL    HW280062   1.336   5.637   8.783  0.5227  0.6086  0.1778
26130SOL     OW80063   9.276   2.067   2.840  0.4783  0.6280  0.0975
26130SOL    HW180064   9.343   2.009   2.806  1.8717  1.2696  1.6287
26130SOL    HW280065   9.251   2.029   2.924  0.4878  1.5318  0.5225
26131SOL     OW80066   8.520   9.062   0.409 -0.0639  0.1644 -0.2388
26131SOL    HW180067   8.576   9.127   0.453 -1.0568  0.7406  0.1896
26131SOL    HW280068   8.431   9.091   0.425 -0.5626 -1.5010  0.2705
26132SOL     OW80069   6.854   2.789   3.748 -0.2102 -0.3209  0.5390
26132SOL    HW180070   6.947   2.802   3.768  0.7101 -1.6462 -2.2642
26132SOL    HW280071   6.814   2.875   3.760  1.8310  0.7957 -0.1265
26133SOL     OW80072   6.856   7.873   8.977 -0.0189 -0.4766 -0.6081
26133SOL    HW180073   6.897   7.788   8.994  0.4353 -0.1448  0.0070
26133SOL    HW280074   6.884   7.897   8.889 -0.2844 -1.0395 -0.8465
26134SOL     OW80075   1.249   1.016   0.179 -0.0773  0.6834  0.2337
26134SOL    HW180076   1.282   1.014   0.089 -1.4002  0.6471 -0.2766
26134SOL    HW280077   1.322   1.049   0.231  0.6211  0.9634 -0.8962
26135SOL     OW80078   4.913   1.649   7.538  0.7441 -0.1214 -0.1651
26135SOL    HW180079   4.937   1.557   7.524  0.7384  0.0713 -1.5877
26135SOL    HW280080   4.982   1.699   7.493 -0.1468  0.5252 -0.8567
26136SOL     OW80081   3.598   7.536   4.406  0.6871 -0.0085  0.1081
26136SOL    HW180082   3.645   7.577   4.478 -0.4948  0.3220  0.7161
26136SOL    HW280083   3.666   7.512   4.343  1.7545 -0.3764  1.3629
26137SOL     OW80084   0.390   6.274   5.596 -0.5593  0.0145  0.7277
26137SOL    HW180085   0.327   6.313   5.535 -0.1712 -1.0837 -0.4074
26137SOL    HW280086   0.337   6.224   5.657 -0.8758  0.2674  0.6628
26138SOL     OW80087   5.569   2.686   5.538 -0.2666 -0.0391  0.5820
26138SOL    HW180088   5.499   2.629   5.507  0.2825 -0.0387 -0.7287
26138SOL    HW280089   5.591   2.653   5.626  0.1048 -1.9085 -0.1743
26139SOL     OW80090   4.542   1.298   0.127 -0.1606 -0.8770 -0.4200
26139SOL    HW180091   4.627   1.320   0.089  0.3330 -1.2060  0.4612
26139SOL    HW280092   4.511   1.223   0.077  0.4510 -1.2689 -0.2103
26140SOL     OW80093   6.758   2.735   2.888  0.0380  1.0176 -0.4725
26140SOL    HW180094   6.834   2.733   2.830  0.1456  1.5304 -0.3454
26140SOL    HW280095   6.794   2.735   2.976 -0.1302 -0.1492 -0.3882
26141SOL     OW80096   5.748   7.733   2.994 -0.5812 -1.1890 -0.1840
26141SOL    HW180097   5.724   7.645   3.021 -2.2428 -0.5605  0.5163
26141SOL    HW280098   5.664   7.777   2.976  0.2112  0.1996 -0.6746
26142SOL     OW80099   9.380   0.957   3.686 -0.6352 -0.1502 -0.3664
26142SOL    HW180100   9.377   0.870   3.647 -0.3868 -0.7076  0.8259
26142SOL    HW280101   9.471   0.984   3.679 -0.3169 -0.7904  0.9190
26143SOL     OW80102   1.191   0.162   8.280 -0.4149 -0.0198  0.6549
26143SOL    HW180103   1.125   0.176   8.212  0.8946  0.8738 -0.4885
26143SOL    HW280104   1.207   0.068   8.279  0.6888  0.1304 -1.4206
26144SOL     OW80105   3.187   1.312   7.402 -0.8878  0.3210  0.2888
26144SOL    HW180106   3.138   1.278   7.477 -0.1724 -1.0368  0.1666
26144SOL    HW280107   3.120   1.327   7.335 -1.4611  1.0431  1.0057
26145SOL     OW80108   3.361   8.336   8.954 -0.0340 -0.1621 -0.4184
26145SOL    HW180109   3.437   8.351   8.898 -0.5059 -0.1644 -1.0784
26145SOL    HW280110   3.367   8.404   9.022 -0.2042  0.7473 -1.2853
26146SOL     OW80111   0.322   3.867   4.418  1.1675 -0.6894 -0.3054
26146SOL    HW180112   0.359   3.831   4.337  1.5731 -0.0065 -0.4311
26146SOL    HW280113   0.227   3.862   4.406  1.2159  0.4612 -1.3129
26147SOL     OW80114   6.341   5.784   4.688  0.2286  0.0092  0.1738
26147SOL    HW180115   6.429   5.764   4.717  0.4292  0.4430 -0.1165
26147SOL    HW280116   6.350   5.803   4.594  0.0839  1.4696  0.4214
26148SOL     OW80117   8.789   5.085   9.189  0.1271 -0.3936 -0.6130
26148SOL    HW180118   8.813   5.008   9.137 -0.4056 -1.3149  0.4453
26148SOL    HW280119   8.705   5.061   9.229  0.7292  0.0614  1.0423
26149SOL     OW80120   8.390   6.276   4.322  0.6421  0.6720  0.3209
26149SOL    HW180121   8.326   6.303   4.257  2.0049  1.6798 -0.6612
26149SOL    HW280122   8.440   6.207   4.279 -0.0947 -0.5048  1.2819
26150SOL     OW80123   6.409   4.473   9.072  0.8726 -1.0612 -0.1915
26150SOL    HW180124   6.489   4.521   9.094  0.5519 -0.0979 -1.0302
26150SOL    HW280125   6.341   4.540   9.070  0.0337 -1.8747  0.5274
26151SOL     OW80126   8.974   3.618   6.713  0.1442  0.5308 -0.4221
26151SOL    HW180127   8.992   3.636   6.621  0.5952  2.6356  0.0085
26151SOL    HW280128   8.882   3.641   6.725 -0.0444 -0.2104 -0.4489
26152SOL     OW80129   0.900   7.502   7.931 -0.2154 -0.7769  0.3771
26152SOL    HW180130   0.925   7.468   8.017 -2.0248 -2.2060  0.4030
26152SOL    HW280131   0.832   7.566   7.949 -1.2056 -1.6853  0.0158
26153SOL     OW80132   1.820   7.513   2.666  0.4548 -0.0804 -0.0989
26153SOL    HW180133   1.751   7.574   2.692 -0.8258 -1.3407 -0.4615
26153SOL    HW280134   1.853   7.477   2.748 -1.0820 -1.3401  0.0141
26154SOL     OW80135   8.539   8.950   4.110  0.6030 -0.4116 -0.0647
26154SOL    HW180136   8.583   8.944   4.026 -0.2524 -0.9327 -0.4870
26154SOL    HW280137   8.466   8.889   4.104 -0.4672  0.7674  0.4400
26155SOL     OW80138   0.610   1.171   1.610  0.1287 -0.4660 -0.1114
26155SOL    HW180139   0.582   1.216   1.530 -1.2385 -0.9275  0.0895
26155SOL    HW280140   0.608   1.078   1.587  0.0793 -0.5823  0.3542
26156SOL     OW80141   7.516   8.358   9.021 -0.7554  0.1101  0.1551
26156SOL    HW180142   7.428   8.366   9.059 -0.6714  1.8551  0.0759
26156SOL    HW280143   7.575   8.363   9.097 -0.6443  2.0371 -0.0185
26157SOL     OW80144   6.617   7.576   1.786 -0.1010  0.1341  0.4864
26157SOL    HW180145   6.656   7.536   1.864  0.9809  0.9761  0.4024
26157SOL    HW280146   6.678   7.646   1.763 -0.2629 -0.2740 -1.2864
26158SOL     OW80147   3.814   8.064   2.297  0.3580 -0.0342  0.2836
26158SOL    HW180148   3.834   8.152   2.328 -2.1791  1.0419 -0.8531
26158SOL    HW280149   3.824   8.009   2.375 -0.2488  1.6374  1.6033
26159SOL     OW80150   9.070   9.009   9.003 -0.4542  0.3475  0.3998
26159SOL    HW180151   8.978   9.030   8.988  0.3511  2.9371 -1.6457
26159SOL    HW280152   9.087   8.935   8.944 -0.6142  1.7141 -1.4570
26160SOL     OW80153   8.912   5.039   9.454 -0.5094  0.8135  0.0334
26160SOL    HW180154   8.886   5.077   9.370 -1.2007  0.1065 -0.0860
26160SOL    HW280155   8.832   4.999   9.488  0.2368 -0.8149 -0.0107
26161SOL     OW80156   5.902   2.951   0.724  0.4221 -0.7053 -0.3742
26161SOL    HW180157   5.988   2.985   0.699  1.1994 -2.9102 -0.9300
26161SOL    HW280158   5.842   2.984   0.657  0.4333  2.1910  0.8905
26162SOL     OW80159   5.395   0.085   0.272  0.1021 -0.0124 -0.0575
26162SOL    HW180160   5.314   0.128   0.299 -0.6599 -2.0043  1.0289
26162SOL    HW280161   5.366   0.006   0.227  1.4240 -1.0832  0.8967
26163SOL     OW80162   0.044   2.987   0.099 -0.1731 -0.4710 -0.0606
26163SOL    HW180163  -0.000   3.007   0.182 -0.3526 -1.9205  0.2276
26163SOL    HW280164   0.127   2.948   0.125  0.2016 -0.0337 -0.5856
26164SOL     OW80165   1.900   7.636   1.179 -0.7967 -0.2400  0.3789
26164SOL    HW180166   1.921   7.613   1.088  2.9677  3.1049  0.0713
26164SOL    HW280167   1.911   7.554   1.228 -0.4819 -1.6316 -1.8695
26165SOL     OW80168   3.121   4.673   3.459  0.0317 -0.0039  0.5189
26165SOL    HW180169   3.053   4.709   3.517 -0.8167  0.0228 -0.4618
26165SOL    HW280170   3.193   4.651   3.517  0.6151  3.2750  1.2296
26166SOL     OW80171   3.702   0.429   4.832  0.2048  0.0890  0.0516
26166SOL    HW180172   3.687   0.511   4.785 -0.9229 -0.6728 -0.9844
26166SOL    HW280173   3.794   0.433   4.859  0.5105  1.1464 -1.0499
26167SOL     OW80174   1.658   8.898   7.615 -0.6156 -0.4781  0.2933
26167SOL    HW180175   1.622   8.985   7.601 -1.6945 -0.7356  1.2807
26167SOL    HW280176   1.600   8.858   7.680  1.2555 -1.0550  1.6864
26168SOL     OW80177   1.871   8.801   9.094 -0.7225 -0.1376  0.1947
26168SOL    HW180178   1.799   8.739   9.105 -1.1316  0.5303  1.4778
26168SOL    HW280179   1.948   8.747   9.080 -1.3586 -0.8767 -0.5874
26169SOL     OW80180   3.456   0.664   7.451  0.0330  0.2691 -0.5338
26169SOL    HW180181   3.405   0.630   7.377 -1.9110 -0.3667  1.0029
26169SOL    HW280182   3.517   0.593   7.472  0.0605  0.1377 -1.0413
26170SOL     OW80183   2.928   9.556   7.042 -0.0437 -0.1442  0.0807
26170SOL    HW180184   2.861   9.520   7.100 -0.1948 -1.0203 -0.6086
26170SOL    HW280185   3.008   9.554   7.093 -0.3359 -0.1084  0.5447
26171SOL     OW80186   5.025   3.198   4.042  0.0090  0.1895  0.4192
26171SOL    HW180187   5.109   3.201   3.998  0.8772  1.9416  2.0811
26171SOL    HW280188   5.046   3.192   4.135 -1.6607  1.6190  0.9417
26172SOL     OW80189   7.178   2.934   8.349 -0.5505 -0.2183  0.5970
26172SOL    HW180190   7.236   2.913   8.276 -1.6443 -3.0487  0.4038
26172SOL    HW280191   7.237   2.952   8.422  0.5445  1.8741 -0.7194
26173SOL     OW80192   5.100   1.855   3.521  0.0266 -0.8669 -0.3924
26173SOL    HW180193   5.104   1.938   3.568  0.8854 -1.1721  0.0872
26173SOL    HW280194   5.094   1.788   3.589  1.9702 -1.3594 -0.6287
26174SOL     OW80195   7.223   9.268   1.258  0.2080  0.0870 -0.0054
26174SOL    HW180196   7.243   9.355   1.293 -1.4520  0.0935  0.9928
26174SOL    HW280197   7.244   9.208   1.330 -0.2677 -0.1813 -0.0881
26175SOL     OW80198   2.344   5.367   7.450 -0.7754 -0.0069 -0.5355
26175SOL    HW180199   2.356   5.458   7.424  0.3096 -0.8726 -3.6026
26175SOL    HW280200   2.262   5.340   7.408 -2.1814  0.0083  2.0306
26176SOL     OW80201   2.036   4.720   4.012  0.1247 -0.2408 -0.5503
26176SOL    HW180202   2.112   4.693   3.961 -1.6134 -1.7856 -2.5425
26176SOL    HW280203   2.001   4.639   4.049 -0.6004  0.4264  0.2762
26177SOL     OW80204   1.285   3.723   6.134 -0.4149 -0.1030  0.8405
26177SOL    HW180205   1.289   3.632   6.165  0.4422  0.4975  2.6285
26177SOL    HW280206   1.371   3.738   6.094 -0.6205 -0.1057  0.3825
26178SOL     OW80207   4.093   6.543   3.558 -0.3880 -0.2387  0.1190
26178SOL    HW180208   4.049   6.596   3.493 -3.1467  0.3334  2.2577
26178SOL    HW280209   4.053   6.456   3.550  0.1354 -0.5003  0.2637
26179SOL     OW80210   0.130   4.772   1.055 -0.2669 -0.2709  0.0875
26179SOL    HW180211   0.124   4.856   1.009 -1.0109 -0.7382 -0.6984
26179SOL    HW280212   0.178   4.715   0.994 -0.7416 -0.7261  0.1278
26180SOL     OW80213   2.296   9.374   9.015 -0.0183 -0.4595  0.6230
26180SOL    HW180214   2.350   9.318   9.071  0.6394 -2.7878 -2.1589
26180SOL    HW280215   2.212   9.327   9.008 -0.4933  0.3809  0.5188
26181SOL     OW80216   8.789   4.175   1.116 -0.1150 -0.3358 -0.0020
26181SOL    HW180217   8.787   4.197   1.209 -1.1404 -2.5977  0.5857
26181SOL    HW280218   8.703   4.204   1.083 -0.5000 -1.2045  0.2132
26182SOL     OW80219   9.157   1.361   0.247  0.0531 -0.5181 -0.6535
26182SOL    HW180220   9.136   1.359   0.153  1.9825 -1.1402 -1.1213
26182SOL    HW280221   9.228   1.297   0.256  1.9853  1.6738  0.6797
26183SOL     OW80222   8.576   8.974   2.370 -0.3517 -0.2687  0.2781
26183SOL    HW180223   8.499   8.953   2.422 -0.1440 -0.5761  0.4628
26183SOL    HW280224   8.595   9.066   2.391 -0.1635 -0.4454  0.8743
26184SOL     OW80225   2.663   2.704   0.433 -0.4235  0.3221  0.2823
26184SOL    HW180226   2.744   2.716   0.483  0.4921 -1.6987 -0.5760
26184SOL    HW280227   2.686   2.638   0.368 -2.8519 -0.4445  0.1322
26185SOL     OW80228   1.520   3.864   2.107 -0.3251 -0.0719  0.3104
26185SOL    HW180229   1.604   3.820   2.094 -0.9577 -1.5509  1.1203
26185SOL    HW280230   1.529   3.946   2.057  0.9625 -0.9696 -1.0184
26186SOL     OW80231   6.726   4.131   3.273  0.5463  0.3820 -0.5199
26186SOL    HW180232   6.782   4.142   3.349 -1.0639  0.8365  0.6523
26186SOL    HW280233   6.759   4.052   3.230  2.2189  0.7777 -0.0531
26187SOL     OW80234   0.759   1.338   4.095  0.3483  0.1830 -0.0165
26187SOL    HW180235   0.722   1.366   4.011 -1.0476 -1.1145  0.1294
26187SOL    HW280236   0.832   1.398   4.109 -0.8162  1.9432 -1.0263
26188SOL     OW80237   9.469   0.416   0.104 -0.5444 -0.1475 -0.3147
26188SOL    HW180238   9.440   0.328   0.081 -0.7521 -0.6719  1.7548
26188SOL    HW280239   9.389   0.467   0.110 -0.6006 -0.3155  0.4022
26189SOL     OW80240   0.992   8.371   2.379 -0.6326  0.2118  0.8503
26189SOL    HW180241   0.952   8.305   2.321  1.6030  0.2789 -0.9098
26189SOL    HW280242   0.977   8.337   2.467 -1.6806 -1.4015  0.1145
26190SOL     OW80243   3.646   8.231   3.486 -0.1468  0.0663  0.0370
26190SOL    HW180244   3.603   8.297   3.432 -0.8338 -0.2755  0.1649
26190SOL    HW280245   3.735   8.227   3.451 -0.9184 -1.0983 -1.9372
26191SOL     OW80246   4.776   6.101   1.603  0.5162  0.0267 -0.5259
26191SOL    HW180247   4.735   6.063   1.680  0.8867 -0.8980 -0.7777
26191SOL    HW280248   4.849   6.153   1.637  1.7701 -1.7613 -0.3137
26192SOL     OW80249   8.212   8.692   4.831  0.2729  0.3835 -0.2729
26192SOL    HW180250   8.135   8.690   4.888  0.3700  0.3740 -0.1411
26192SOL    HW280251   8.245   8.782   4.839 -0.3301  0.6922 -1.1449
26193SOL     OW80252   5.350   6.942   6.252 -0.1699 -0.4485 -0.7234
26193SOL    HW180253   5.390   7.019   6.292  0.4164 -1.6622  1.1399
26193SOL    HW280254   5.401   6.929   6.171 -0.5203  1.2899 -1.2597
26194SOL     OW80255   7.551   5.755   3.261 -0.3836  0.0955  0.5214
26194SOL    HW180256   7.632   5.713   3.291 -0.5466  0.0971  0.9734
26194SOL    HW280257   7.515   5.797   3.339 -1.2274 -0.5690  0.5125
26195SOL     OW80258   0.729   0.915   6.181 -0.0453 -0.0309  0.2097
26195SOL    HW180259   0.803   0.952   6.228  0.2213 -0.5193  0.1780
26195SOL    HW280260   0.663   0.984   6.182  0.7178  0.7356 -0.4963
26196SOL     OW80261   2.532   5.068   7.932 -0.3624  0.2155  0.3030
26196SOL    HW180262   2.495   4.989   7.971 -0.3978 -1.4199 -2.7600
26196SOL    HW280263   2.515   5.059   7.838  3.5808  1.6626 -0.7451
26197SOL     OW80264   1.313   3.816   4.108 -0.2939  0.1702  0.3978
26197SOL    HW180265   1.349   3.839   4.022  0.5656 -0.6238  0.5295
26197SOL    HW280266   1.365   3.867   4.170  1.4288 -1.7804  0.6694
26198SOL     OW80267   3.267   5.339   6.307  0.3199  0.0581 -0.1521
26198SOL    HW180268   3.249   5.390   6.385  2.0302 -0.9346  0.9477
26198SOL    HW280269   3.245   5.249   6.331 -1.9466  0.0744 -1.8210
26199SOL     OW80270   4.139   8.791   2.459 -0.3749  0.3082 -0.2328
26199SOL    HW180271   4.153   8.833   2.374 -0.1643  0.3368 -0.1849
26199SOL    HW280272   4.225   8.794   2.502 -0.6660  1.0591  0.3229
26200SOL     OW80273   4.280   1.015   0.204  0.0594  0.4456  0.4711
26200SOL    HW180274   4.267   1.067   0.284  3.0409  1.1508  0.5939
26200SOL    HW280275   4.233   1.063   0.136 -1.9287  0.2201  1.6170
26201SOL     OW80276   1.537   6.054   2.050  0.2215  0.2127 -0.5611
26201SOL    HW180277   1.484   5.979   2.021 -1.5424  1.1293  0.0955
26201SOL    HW280278   1.604   6.063   1.983 -0.5848 -0.9021 -1.5760
26202SOL     OW80279   4.161   0.023   2.672 -0.7809  0.1072 -0.3492
26202SOL    HW180280   4.239   0.056   2.627  0.3722 -1.2964  0.5618
26202SOL    HW280281   4.150   0.081   2.747  0.1528 -0.4540  0.2302
26203SOL     OW80282   3.762   3.175   5.489  0.1163  0.0261 -0.0605
26203SOL    HW180283   3.849   3.181   5.529  0.7983 -0.9773 -1.3093
26203SOL    HW280284   3.721   3.260   5.507  2.4320  1.6552 -1.8812
26204SOL     OW80285   7.139   0.273   6.301 -0.2248  0.2799  0.2562
26204SOL    HW180286   7.086   0.352   6.308  1.1288  1.2133  0.5714
26204SOL    HW280287   7.212   0.298   6.244 -0.9721 -1.4671 -1.5726
26205SOL     OW80288   8.719   6.591   4.009  0.1187 -0.3127 -0.1957
26205SOL    HW180289   8.788   6.631   4.062  0.4587 -0.1720 -0.7231
26205SOL    HW280290   8.711   6.502   4.043  2.1817 -1.1020 -1.5566
26206SOL     OW80291   0.534   9.422   5.453 -0.0468  0.3244 -0.4883
26206SOL    HW180292   0.442   9.447   5.465 -0.4211  0.2319 -2.6104
26206SOL    HW280293   0.582   9.504   5.463 -0.4355  0.5068 -0.0554
26207SOL     OW80294   5.701   9.149   6.399  0.3497  0.5595  0.2016
26207SOL    HW180295   5.705   9.198   6.317 -0.2066 -1.2081 -0.9333
26207SOL    HW280296   5.760   9.197   6.458  1.5914  1.2942 -1.5455
26208SOL     OW80297   5.714   4.942   9.223 -0.2043 -0.5108  0.4135
26208SOL    HW180298   5.685   5.029   9.195  1.0429 -0.4607 -0.8816
26208SOL    HW280299   5.645   4.883   9.193 -0.6255 -0.0646  0.4914
26209SOL     OW80300   8.737   3.148   1.099  0.0128  0.2663 -0.1594
26209SOL    HW180301   8.730   3.067   1.148  0.2856 -0.6936 -1.6372
26209SOL    HW280302   8.696   3.129   1.014  1.7474  1.0333 -1.2397
26210SOL     OW80303   7.222   7.180   6.126  0.6056 -0.3072 -0.0860
26210SOL    HW180304   7.243   7.101   6.176 -0.9440  0.4517  1.9253
26210SOL    HW280305   7.149   7.154   6.069  0.0984 -0.3600  0.5716
26211SOL     OW80306   1.951   3.448   0.938 -0.2654  0.5904 -0.0647
26211SOL    HW180307   1.976   3.386   0.869 -2.8732  0.3087 -0.8402
26211SOL    HW280308   2.032   3.461   0.988  0.9960 -1.4549 -1.4005
26212SOL     OW80309   3.504   8.917   7.731  0.5616 -0.2269  0.1067
26212SOL    HW180310   3.548   8.851   7.785  0.5837 -1.0076 -0.8400
26212SOL    HW280311   3.428   8.944   7.783 -0.6968 -2.5935 -0.3423
26213SOL     OW80312   1.850   3.908   4.295  0.0434 -0.4747 -0.4071
26213SOL    HW180313   1.941   3.877   4.300  0.0810 -0.3809 -0.5082
26213SOL    HW280314   1.803   3.836   4.253 -0.0345 -0.7494  0.1548
26214SOL     OW80315   5.425   4.157   7.010  0.2324 -0.2490 -0.3237
26214SOL    HW180316   5.390   4.226   6.952  0.2623 -1.3247 -1.6610
26214SOL    HW280317   5.518   4.177   7.018  0.5444 -0.9125 -1.9007
26215SOL     OW80318   2.251   1.450   0.613 -0.3867  0.3683 -0.2444
26215SOL    HW180319   2.271   1.369   0.660 -0.0785  0.2965 -0.4959
26215SOL    HW280320   2.190   1.423   0.545  0.6217  0.1217 -1.0799
26216SOL     OW80321   4.852   1.211   7.730 -0.1830 -0.1408 -0.1397
26216SOL    HW180322   4.799   1.225   7.652 -0.0121 -1.6684 -0.5697
26216SOL    HW280323   4.901   1.131   7.712 -1.6510 -1.7136  2.2970
26217SOL     OW80324   8.372   2.483   9.478  0.2635  0.6783 -0.0285
26217SOL    HW180325   8.332   2.414   9.532  0.2712  0.7561  0.0777
26217SOL    HW280326   8.321   2.561   9.500 -0.8634  0.3717 -1.4119
26218SOL     OW80327   0.756   5.167   0.649  0.0927  0.3133  0.0429
26218SOL    HW180328   0.715   5.080   0.655  0.1583  0.3061  0.4737
26218SOL    HW280329   0.776   5.178   0.557 -0.6896  0.2229 -0.1514
26219SOL     OW80330   8.712   4.589   2.714 -0.3757 -0.0708  0.4451
26219SOL    HW180331   8.751   4.662   2.762  1.6227 -0.8096  0.0114
26219SOL    HW280332   8.655   4.546   2.778 -0.4434  0.9887  1.1170
26220SOL     OW80333   6.359   5.144   4.822 -0.1635  0.1095  0.4027
26220SOL    HW180334   6.393   5.163   4.909  0.3127 -0.1500  0.2738
26220SOL    HW280335   6.293   5.212   4.807 -0.4332 -0.0033  1.0686
26221SOL     OW80336   2.877   7.348   1.486  0.5521 -0.0972  0.0487
26221SOL    HW180337   2.916   7.270   1.526  2.2325  0.4257 -0.4602
26221SOL    HW280338   2.926   7.359   1.405 -0.1641  1.0719 -0.2393
26222SOL     OW80339   0.124   0.844   7.612  0.5806 -0.0785 -0.1240
26222SOL    HW180340   0.087   0.882   7.692 -0.1680 -0.5208 -0.2537
26222SOL    HW280341   0.219   0.844   7.627  0.5641  1.2423  0.1399
26223SOL     OW80342   5.852   8.604   2.117 -0.2083 -0.5620 -0.1023
26223SOL    HW180343   5.842   8.564   2.204  0.1109  0.0573  0.2288
26223SOL    HW280344   5.832   8.534   2.056 -2.3813 -0.5105  0.4631
26224SOL     OW80345   8.347   7.350   2.375 -0.0227 -0.1284  0.0139
26224SOL    HW180346   8.282   7.420   2.365 -1.3603 -1.3755 -0.3192
26224SOL    HW280347   8.303   7.271   2.344  2.4338 -0.6670 -2.5558
26225SOL     OW80348   9.501   1.405   0.960 -0.1559  0.0872  0.0689
26225SOL    HW180349   9.583   1.376   1.001 -0.3017 -0.4140  0.0225
26225SOL    HW280350   9.500   1.499   0.972 -0.9710 -0.1817  2.6684
26226SOL     OW80351   7.427   2.159   0.351 -0.1698 -0.6249  0.6750
26226SOL    HW180352   7.430   2.097   0.279  0.9600  0.7733 -0.5604
26226SOL    HW280353   7.340   2.200   0.343 -0.5798 -1.4106  0.9709
26227SOL     OW80354   9.520   0.790   1.601  0.7614  0.3577 -0.0310
26227SOL    HW180355   9.439   0.749   1.633  0.3785  1.8522  1.0126
26227SOL    HW280356   9.499   0.820   1.513  0.8011 -0.9441 -0.5041
26228SOL     OW80357   4.412   5.539   5.699  0.6520 -0.2150  0.0211
26228SOL    HW180358   4.388   5.449   5.674 -2.1434  0.5775 -0.4749
26228SOL    HW280359   4.370   5.594   5.633  2.1219  1.5129  0.4456
26229SOL     OW80360   9.497   2.770   8.855 -0.3426 -0.2291  0.7068
26229SOL    HW180361   9.549   2.790   8.777  0.1042 -3.5753  0.0067
26229SOL    HW280362   9.406   2.782   8.826 -0.1491 -0.5949 -0.0784
26230SOL     OW80363   2.617   3.480   7.720 -0.2303 -0.1544  0.2289
26230SOL    HW180364   2.584   3.556   7.672 -0.9496 -0.9508 -0.5741
26230SOL    HW280365   2.631   3.512   7.809  0.1326  1.0895 -0.2593
26231SOL     OW80366   4.834   0.859   8.093 -0.2363 -0.1170  0.4746
26231SOL    HW180367   4.899   0.903   8.148  0.0470 -0.0915  0.1201
26231SOL    HW280368   4.755   0.912   8.101  0.6102  1.5374 -1.4175
26232SOL     OW80369   3.387   4.610   1.679  0.0617 -0.4730  0.4837
26232SOL    HW180370   3.457   4.545   1.686  3.0112  2.4319  0.5010
26232SOL    HW280371   3.400   4.651   1.594 -1.1543  0.6287  0.7931
26233SOL     OW80372   4.604   3.224   4.237 -0.2819 -0.0885  0.4978
26233SOL    HW180373   4.555   3.206   4.318  0.0235 -1.4761  0.3913
26233SOL    HW280374   4.684   3.267   4.267 -1.0482  1.2255  0.7540
26234SOL     OW80375   7.431   3.997   5.067 -0.7233 -0.1958  0.1472
26234SOL    HW180376   7.516   3.953   5.067 -0.5152  0.1779  1.1749
26234SOL    HW280377   7.394   3.977   5.154 -1.3590  0.2613 -0.0112
26235SOL     OW80378   2.777   1.228   7.793 -0.0624  0.3284 -0.2662
26235SOL    HW180379   2.797   1.145   7.837 -1.1768  0.3547  0.3087
26235SOL    HW280380   2.860   1.252   7.750  1.1256  0.3762  1.9184
26236SOL     OW80381   1.072   7.991   6.439 -0.0786  0.2244  0.1698
26236SOL    HW180382   0.991   7.985   6.388 -0.1618  0.9624  0.2041
26236SOL    HW280383   1.049   8.046   6.514  0.0421 -0.8585  1.0188
26237SOL     OW80384   4.131   7.817   8.421  0.0079 -0.3165 -0.0471
26237SOL    HW180385   4.211   7.843   8.467 -0.9885  1.8647  0.5360
26237SOL    HW280386   4.137   7.861   8.336 -1.1139  0.8346  0.4572
26238SOL     OW80387   8.999   5.437   1.383  0.1840  0.1818 -0.4692
26238SOL    HW180388   9.034   5.355   1.417 -1.3349 -0.7644 -1.0661
26238SOL    HW280389   8.906   5.419   1.370 -0.2839  2.1800 -0.1145
26239SOL     OW80390   6.471   8.859   4.130  0.3446  0.4403 -0.4807
26239SOL    HW180391   6.511   8.879   4.214  0.7955  0.1877 -0.6334
26239SOL    HW280392   6.436   8.771   4.140 -0.6828  0.8661 -0.1636
26240SOL     OW80393   1.663   2.257   0.049  0.2637 -0.0755 -0.2694
26240SOL    HW180394   1.614   2.339   0.059 -2.8685 -1.8456  0.4559
26240SOL    HW280395   1.699   2.240   0.136  1.4111  0.7336 -0.5572
26241SOL     OW80396   7.368   5.411   1.920 -0.1012  0.6498 -0.5917
26241SOL    HW180397   7.411   5.329   1.896 -0.2685  0.4252 -0.1388
26241SOL    HW280398   7.440   5.472   1.937  0.1276 -0.2374  1.9886
26242SOL     OW80399   7.746   6.096   1.523  0.1369  0.3199 -0.4797
26242SOL    HW180400   7.696   6.122   1.600  1.5471  1.6727  0.0255
26242SOL    HW280401   7.803   6.171   1.505  0.2282 -0.1845 -2.5198
26243SOL     OW80402   1.519   2.406   2.575 -0.0898  0.0152  0.3661
26243SOL    HW180403   1.516   2.500   2.592 -2.0269  0.3135 -1.2877
26243SOL    HW280404   1.431   2.375   2.598  0.3159 -1.2741  0.2482
26244SOL     OW80405   5.431   4.213   4.149  0.1815 -0.0594 -0.1004
26244SOL    HW180406   5.462   4.282   4.209  0.3006 -0.5569  0.4154
26244SOL    HW280407   5.510   4.167   4.122 -0.0896 -1.6919  1.6594
26245SOL     OW80408   5.145   6.145   6.515 -0.0388  0.6123 -0.3463
26245SOL    HW180409   5.085   6.217   6.498 -1.0814  0.0189  0.6708
26245SOL    HW280410   5.089   6.072   6.540  0.9762 -0.6254 -1.5139
26246SOL     OW80411   2.296   7.425   1.468  0.0348  0.7429 -0.4989
26246SOL    HW180412   2.370   7.369   1.492  0.2061  1.5462  0.9124
26246SOL    HW280413   2.299   7.498   1.530 -0.6138  1.9630 -1.8413
26247SOL     OW80414   1.850   2.105   1.931 -0.1316  0.3438 -0.1833
26247SOL    HW180415   1.863   2.180   1.989 -1.4368  0.4847 -0.0313
26247SOL    HW280416   1.822   2.144   1.848 -0.3890  0.0442 -0.2391
26248SOL     OW80417   7.283   0.517   5.468  0.0342  0.2890  1.0395
26248SOL    HW180418   7.249   0.443   5.417 -0.3205  0.4406  1.0520
26248SOL    HW280419   7.348   0.558   5.411 -0.6199  0.6769  0.5531
26249SOL     OW80420   7.467   1.856   9.580 -0.2749 -0.1525 -0.0397
26249SOL    HW180421   7.389   1.908   9.600  0.3971  0.2095  1.8662
26249SOL    HW280422   7.457   1.776   9.633 -1.4066 -2.2119 -3.0855
26250SOL     OW80423   9.613   6.431   5.328  1.0320  1.0554 -0.1190
26250SOL    HW180424   9.528   6.467   5.354 -0.1838  0.3324 -2.7095
26250SOL    HW280425   9.636   6.479   5.248  2.3041  0.1934 -0.3031
26251SOL     OW80426   8.726   4.818   9.507  0.3198  0.2952  0.3988
26251SOL    HW180427   8.774   4.763   9.569 -0.0815 -0.6324 -0.0879
26251SOL    HW280428   8.750   4.783   9.421  0.5650  1.3120  0.0463
26252SOL     OW80429   6.335   7.511   0.285  0.4122 -0.0017  0.4355
26252SOL    HW180430   6.280   7.550   0.353  0.4251  1.2261 -0.2353
26252SOL    HW280431   6.382   7.585   0.246  1.4784 -0.8532  0.0337
26253SOL     OW80432   2.166   5.056   9.142 -0.3898  0.2824  0.0486
26253SOL    HW180433   2.176   5.146   9.113  0.0500  0.2752  0.1632
26253SOL    HW280434   2.078   5.052   9.179 -0.8482  0.3689 -0.9972
26254SOL     OW80435   8.089   8.722   2.286 -0.6420 -0.0394 -0.3480
26254SOL    HW180436   8.040   8.643   2.263 -1.0289  0.4484 -1.2349
26254SOL    HW280437   8.046   8.755   2.365 -0.0597 -1.0647  0.4320
26255SOL     OW80438   8.477   2.006   0.777 -0.1357  0.9655  0.0770
26255SOL    HW180439   8.411   2.037   0.716 -0.2124 -0.6888 -0.7298
26255SOL    HW280440   8.525   1.939   0.729  1.5803  1.5092  0.9319
26256SOL     OW80441   0.281   9.228   2.291  0.0205 -0.3179  0.6960
26256SOL    HW180442   0.261   9.251   2.382 -0.2547  3.1835 -0.0882
26256SOL    HW280443   0.360   9.278   2.270  0.7299 -1.9358 -0.6965
26257SOL     OW80444   2.747   6.098   8.827  0.3294  0.0290  0.0480
26257SOL    HW180445   2.708   6.100   8.739 -0.8410  0.7246  0.5557
26257SOL    HW280446   2.748   6.190   8.854  0.1083 -0.2348  0.9938
26258SOL     OW80447   0.254   8.808   1.158 -1.1150  0.2298  0.2546
26258SOL    HW180448   0.184   8.868   1.186  0.6835  2.0540  1.1619
26258SOL    HW280449   0.333   8.862   1.161  0.2449 -1.5221 -1.5218
26259SOL     OW80450   0.361   7.510   4.022 -0.1695 -0.1821 -0.0988
26259SOL    HW180451   0.300   7.436   4.022 -2.5567  1.6651  0.6812
26259SOL    HW280452   0.358   7.544   4.112 -2.3893  3.2670 -1.2858
26260SOL     OW80453   7.230   8.788   8.588  0.0488  0.0993 -0.0720
26260SOL    HW180454   7.150   8.736   8.594 -0.8196  1.3765  0.0702
26260SOL    HW280455   7.202   8.869   8.545  1.3868  0.3697 -0.4882
26261SOL     OW80456   1.834   6.957   1.441  0.0477 -0.1062  0.3813
26261SOL    HW180457   1.779   7.013   1.495  1.1349  0.3091  1.1041
26261SOL    HW280458   1.920   6.959   1.485  0.3805 -1.5011 -0.1531
26262SOL     OW80459   4.716   6.751   3.328  0.6317  0.8605  0.1018
26262SOL    HW180460   4.698   6.820   3.392  1.7960  1.3186 -0.0310
26262SOL    HW280461   4.755   6.798   3.254  0.2378  0.2109 -0.5272
26263SOL     OW80462   5.081   2.159   1.134 -0.0975  0.5554  0.1412
26263SOL    HW180463   4.993   2.163   1.169  0.2348 -0.5069  1.1527
26263SOL    HW280464   5.119   2.079   1.171  1.8296  1.7871  1.0218
26264SOL     OW80465   1.750   4.164   1.959  0.3868  0.6369 -0.4272
26264SOL    HW180466   1.776   4.235   1.901 -1.7959  0.3411 -1.9097
26264SOL    HW280467   1.749   4.087   1.903  1.3932 -0.3498  0.8355
26265SOL     OW80468   7.197   5.094   0.430  0.2794 -0.5650  0.4005
26265SOL    HW180469   7.193   5.005   0.464  1.0043 -0.8571 -0.2522
26265SOL    HW280470   7.181   5.085   0.336  1.3640 -0.1396  0.1546
26266SOL     OW80471   5.558   4.640   2.870  0.2034  0.7290  0.1956
26266SOL    HW180472   5.608   4.713   2.833 -0.3940  1.5403  0.9437
26266SOL    HW280473   5.552   4.660   2.963  1.1530 -0.9703  0.6516
26267SOL     OW80474   3.844   3.421   1.458 -0.0091  0.1806 -0.1643
26267SOL    HW180475   3.784   3.349   1.477 -1.1476  0.8585 -1.0484
26267SOL    HW280476   3.886   3.440   1.541  1.4790 -2.4764 -0.1705
26268SOL     OW80477   6.380   1.080   4.708 -0.0321  0.0364  0.0626
26268SOL    HW180478   6.326   1.139   4.655 -0.8424 -0.1464  0.6583
26268SOL    HW280479   6.467   1.118   4.705 -0.5210  1.2483  0.3858
26269SOL     OW80480   4.895   8.885   2.380  0.4477 -0.1164 -0.0537
26269SOL    HW180481   4.952   8.912   2.452 -1.4489  0.4608  1.2962
26269SOL    HW280482   4.860   8.967   2.345 -1.8628 -0.4923  1.1467
26270SOL     OW80483   5.487   0.316   7.893  0.0151  0.4459 -0.2603
26270SOL    HW180484   5.574   0.283   7.869  0.7476  1.9099  0.2073
26270SOL    HW280485   5.488   0.319   7.989 -0.7760 -0.0556 -0.2271
26271SOL     OW80486   3.996   4.306   0.645  0.1717  0.0508  0.5415
26271SOL    HW180487   4.080   4.352   0.639  0.5319 -0.6851 -0.3583
26271SOL    HW280488   3.960   4.332   0.730  0.9295  1.0164  0.5805
26272SOL     OW80489   9.367   9.534   3.143  0.9665 -0.3556 -0.0133
26272SOL    HW180490   9.378   9.541   3.048  0.5558 -1.5503 -0.1610
26272SOL    HW280491   9.297   9.597   3.163  1.5651  0.4503 -0.3776
26273SOL     OW80492   0.094   0.334   3.516  0.6703  0.2152  0.5699
26273SOL    HW180493   0.142   0.311   3.596  1.0694  0.0612  0.2866
26273SOL    HW280494   0.014   0.376   3.548 -0.2224 -1.7735  1.1238
26274SOL     OW80495   5.586   4.372   6.301  0.1143 -0.5600  0.0993
26274SOL    HW180496   5.678   4.399   6.308  0.8021 -2.2176 -1.5114
26274SOL    HW280497   5.586   4.309   6.229 -1.8108 -2.6740  1.8195
26275SOL     OW80498   6.894   4.477   7.843 -0.0620  0.3752 -0.1122
26275SOL    HW180499   6.868   4.385   7.834 -1.0216  0.5363  0.7969
26275SOL    HW280500   6.862   4.503   7.929 -0.2212  1.6975 -0.5377
26276SOL     OW80501   7.542   1.660   0.100 -0.4781 -0.6542 -0.2810
26276SOL    HW180502   7.616   1.666   0.160 -0.6829  0.7977 -0.1490
26276SOL    HW280503   7.469   1.631   0.156 -0.1890 -1.3917 -0.2718
26277SOL     OW80504   2.973   3.499   3.114 -0.2151 -0.1672 -1.0563
26277SOL    HW180505   2.942   3.412   3.142 -0.2570 -0.8371 -3.0405
26277SOL    HW280506   3.052   3.482   3.064  0.6904  1.1250 -0.1407
26278SOL     OW80507   9.117   6.773   0.867 -0.2528  0.1175 -0.1539
26278SOL    HW180508   9.032   6.758   0.908 -0.7943 -0.9228 -1.5618
26278SOL    HW280509   9.170   6.814   0.935 -1.5673 -0.1334  1.0649
26279SOL     OW80510   3.979   7.771   4.921  0.7744 -0.6266 -0.0078
26279SOL    HW180511   4.008   7.766   4.830 -1.0293 -0.2044 -0.6595
26279SOL    HW280512   3.935   7.688   4.937 -0.7922  0.1050 -0.2649
26280SOL     OW80513   2.018   6.658   3.509 -0.7269  0.4018  0.1005
26280SOL    HW180514   2.093   6.683   3.563 -0.1633  0.6796 -0.7900
26280SOL    HW280515   1.942   6.668   3.567 -0.1753  1.0352  0.7263
26281SOL     OW80516   9.273   6.932   2.190 -0.1135 -0.0716  0.3743
26281SOL    HW180517   9.311   6.885   2.116 -1.4151 -0.5313 -0.0321
26281SOL    HW280518   9.317   6.896   2.267 -1.1471 -2.0864  0.0894
26282SOL     OW80519   2.899   2.247   5.482  0.0572  0.2274  0.1684
26282SOL    HW180520   2.821   2.275   5.531 -1.3880 -0.5247 -1.5590
26282SOL    HW280521   2.923   2.322   5.429 -1.5387 -0.4822 -1.6895
26283SOL     OW80522   5.841   5.415   6.614 -0.5622  0.0016  0.0830
26283SOL    HW180523   5.779   5.458   6.555 -0.4941 -0.3156 -0.2201
26283SOL    HW280524   5.927   5.447   6.588 -0.5327 -0.1303  0.0171
26284SOL     OW80525   6.067   7.307   4.881  0.1411 -0.1535 -0.3733
26284SOL    HW180526   6.057   7.271   4.793 -0.1538 -0.1665 -0.3363
26284SOL    HW280527   5.980   7.299   4.920 -0.4228  2.2061 -0.9691
26285SOL     OW80528   5.432   3.792   1.988  0.0450 -0.6291  0.0705
26285SOL    HW180529   5.416   3.876   2.032  0.6255  0.1778 -1.1676
26285SOL    HW280530   5.373   3.730   2.030 -1.9952  0.8917 -0.4266
26286SOL     OW80531   7.830   2.090   6.094 -0.0112 -0.2720  0.1346
26286SOL    HW180532   7.758   2.151   6.110 -0.2530 -0.2879 -0.8419
26286SOL    HW280533   7.905   2.145   6.073 -0.4746 -0.3070 -1.7331
26287SOL     OW80534   7.833   8.080   7.899  0.3529 -0.0068 -0.4173
26287SOL    HW180535   7.832   7.987   7.923 -0.9655  0.2730  0.7204
26287SOL    HW280536   7.743   8.098   7.873  0.2488  1.2951  0.7751
26288SOL     OW80537   3.662   6.284   4.773  0.2018 -0.2380  0.7605
26288SOL    HW180538   3.700   6.344   4.837  0.1483  0.4251  0.1806
26288SOL    HW280539   3.737   6.255   4.721  0.1780 -0.4199  0.8264
26289SOL     OW80540   4.887   3.620   4.328 -0.3508 -0.0385 -0.0456
26289SOL    HW180541   4.816   3.683   4.343  0.1652  0.4217  0.5169
26289SOL    HW280542   4.962   3.674   4.304 -0.1316 -0.5100 -0.4349
26290SOL     OW80543   0.470   2.081   6.453 -0.1061 -0.0667  0.3216
26290SOL    HW180544   0.385   2.105   6.416 -1.8693 -1.2673  3.2643
26290SOL    HW280545   0.507   2.164   6.484  0.9928  0.8217 -2.9060
26291SOL     OW80546   0.036   5.691   5.586 -0.0829 -0.0320 -0.7068
26291SOL    HW180547   0.008   5.602   5.566  0.1226 -0.4717  0.8095
26291SOL    HW280548  -0.045   5.740   5.598 -0.2002 -0.2702 -0.5226
26292SOL     OW80549   3.636   7.671   3.701  0.7514  0.0594 -0.4341
26292SOL    HW180550   3.586   7.707   3.774  1.5370  0.3282 -0.0137
26292SOL    HW280551   3.727   7.675   3.730  1.1838  1.1002 -1.8103
26293SOL     OW80552   3.378   8.275   7.014  0.1344  0.1117 -0.1058
26293SOL    HW180553   3.419   8.340   7.071  2.0950 -0.1839 -1.0937
26293SOL    HW280554   3.396   8.305   6.925  0.1040 -1.1840 -0.5830
26294SOL     OW80555   0.784   1.550   1.858 -0.1476 -0.1729  0.2331
26294SOL    HW180556   0.859   1.553   1.917  1.7669  0.2477 -2.0487
26294SOL    HW280557   0.774   1.640   1.828 -0.1287 -0.6042 -1.1368
26295SOL     OW80558   4.715   4.874   3.843 -0.4182 -0.0960 -0.9857
26295SOL    HW180559   4.748   4.815   3.774  0.0637 -2.9801  1.5165
26295SOL    HW280560   4.638   4.830   3.877 -0.0510  0.7012  0.9882
26296SOL     OW80561   8.364   8.186   1.792  0.0494 -0.4844  0.0018
26296SOL    HW180562   8.414   8.199   1.872  0.4758 -0.1245 -0.3236
26296SOL    HW280563   8.283   8.235   1.806 -0.7869 -2.0410  1.0251
26297SOL     OW80564   1.702   5.375   6.652  0.0408 -0.3206 -0.2793
26297SOL    HW180565   1.690   5.453   6.705  0.7724  1.3880 -2.4725
26297SOL    HW280566   1.643   5.386   6.578  1.0383 -1.2274 -1.2561
26298SOL     OW80567   3.534   1.506   9.370  0.1230  0.2126 -0.1358
26298SOL    HW180568   3.475   1.555   9.428 -0.6373 -0.2980 -0.4584
26298SOL    HW280569   3.597   1.570   9.339 -1.2911  1.1749 -1.1346
26299SOL     OW80570   9.249   6.659   1.157  0.3758  0.5835 -0.1299
26299SOL    HW180571   9.279   6.606   1.231  0.1640 -0.3212 -0.6734
26299SOL    HW280572   9.272   6.749   1.180  1.3569  0.1775  0.5224
26300SOL     OW80573   7.808   8.804   4.879  0.3396  0.3076 -0.7979
26300SOL    HW180574   7.878   8.772   4.936  0.8446 -0.5202 -1.8478
26300SOL    HW280575   7.735   8.744   4.895  0.5300 -0.0128 -1.1249
26301SOL     OW80576   1.203   7.726   0.925  0.0850  0.0669  0.0332
26301SOL    HW180577   1.209   7.757   0.835 -0.1134  0.5850  0.1985
26301SOL    HW280578   1.113   7.744   0.951  0.2272  0.1997  0.4367
26302SOL     OW80579   5.151   3.883   0.648 -0.4040  0.1747  0.0955
26302SOL    HW180580   5.185   3.820   0.584 -1.0201  1.1942 -1.2824
26302SOL    HW280581   5.125   3.829   0.723  0.8582 -0.9961 -0.2571
26303SOL     OW80582   3.850   2.057   9.538 -0.0052 -0.8966 -0.4731
26303SOL    HW180583   3.858   2.026   9.628 -0.9680  0.8885  0.2581
26303SOL    HW280584   3.934   2.099   9.519  0.4582 -1.8805 -0.6866
26304SOL     OW80585   4.055   5.801   3.507 -0.0753 -0.3967  0.2807
26304SOL    HW180586   4.123   5.755   3.556  0.9595 -0.1719 -0.9162
26304SOL    HW280587   4.082   5.796   3.416  0.6774  3.4332  0.1201
26305SOL     OW80588   2.518   7.785   0.249 -0.0941  0.2296  1.1148
26305SOL    HW180589   2.511   7.871   0.289 -0.0811  0.0827  1.4381
26305SOL    HW280590   2.485   7.797   0.159 -0.2442  0.5312  1.2098
26306SOL     OW80591   0.433   9.332   1.978 -0.0230  0.7797 -0.2736
26306SOL    HW180592   0.342   9.319   1.950  0.2122  1.6278 -1.5034
26306SOL    HW280593   0.473   9.245   1.971 -0.2562  0.7568 -1.5901
26307SOL     OW80594   2.615   8.363   5.346 -0.7910  0.2338 -1.0105
26307SOL    HW180595   2.627   8.447   5.392  1.4546 -0.5086 -0.0983
26307SOL    HW280596   2.589   8.302   5.414 -2.1827  0.1000 -1.6340
26308SOL     OW80597   8.154   6.732   3.361 -0.2373 -0.1801 -0.2708
26308SOL    HW180598   8.206   6.664   3.319 -0.5534 -1.7964  1.8029
26308SOL    HW280599   8.063   6.709   3.342 -0.4262 -1.3752  1.7676
26309SOL     OW80600   4.626   2.665   0.661  0.1582 -0.5187  0.1794
26309SOL    HW180601   4.591   2.587   0.703 -1.5253  1.3500  2.4869
26309SOL    HW280602   4.555   2.696   0.604  1.4884 -1.5828 -2.2222
26310SOL     OW80603   4.365   7.724   0.955 -0.0136 -0.1757 -0.2540
26310SOL    HW180604   4.348   7.667   0.879 -0.9154 -0.0063 -0.1955
26310SOL    HW280605   4.302   7.795   0.946  1.6440  1.3091 -0.7732
26311SOL     OW80606   0.879   8.515   9.102 -0.0739 -0.3091 -0.0330
26311SOL    HW180607   0.863   8.543   9.192 -2.3660 -1.4822  0.0078
26311SOL    HW280608   0.942   8.443   9.110 -0.8932 -0.9616  0.7534
26312SOL     OW80609   1.689   3.035   2.750 -0.6703 -0.6838 -0.0689
26312SOL    HW180610   1.644   3.117   2.729 -0.9304 -0.7912  0.0774
26312SOL    HW280611   1.773   3.063   2.786  0.2053 -0.4833 -2.1175
26313SOL     OW80612   3.917   1.779   0.627 -0.3347  0.0542 -0.1870
26313SOL    HW180613   4.007   1.755   0.647 -0.4205 -0.9135 -0.8929
26313SOL    HW280614   3.925   1.854   0.569  0.0108  0.1509 -0.0176
26314SOL     OW80615   7.438   8.840   6.913 -0.1066 -0.2973 -0.2514
26314SOL    HW180616   7.453   8.924   6.958  0.8216 -1.2967  1.4033
26314SOL    HW280617   7.526   8.808   6.894 -0.3302 -1.9227  1.1912
26315SOL     OW80618   2.450   8.766   6.770  0.8125 -0.3575 -0.3098
26315SOL    HW180619   2.447   8.695   6.835 -2.1184 -0.8807 -0.8829
26315SOL    HW280620   2.486   8.841   6.819  1.7878 -1.5840  0.9513
26316SOL     OW80621   9.160   5.959   0.756  0.5713  0.6436 -0.3062
26316SOL    HW180622   9.198   6.021   0.819 -0.0343  0.1550  0.5680
26316SOL    HW280623   9.087   6.007   0.717  0.3091  0.5985  0.1252
26317SOL     OW80624   8.845   5.592   6.673 -0.2459  0.8748 -0.4964
26317SOL    HW180625   8.915   5.652   6.648  0.7021  0.2563  0.5703
26317SOL    HW280626   8.802   5.635   6.747 -0.5177  0.9061 -0.6698
26318SOL     OW80627   6.738   8.934   5.255 -0.2141  0.0139 -0.2741
26318SOL    HW180628   6.832   8.937   5.276 -0.5270  1.1094  1.1498
26318SOL    HW280629   6.734   8.936   5.160  1.2096  0.3054 -0.3484
26319SOL     OW80630   2.087   9.383   8.010  0.2361  0.4843 -0.1571
26319SOL    HW180631   2.146   9.375   8.085 -0.2269 -0.7886  0.0913
26319SOL    HW280632   2.003   9.349   8.042 -0.1071  0.4284 -1.0914
26320SOL     OW80633   8.482   3.728   6.800  0.1214  0.0451  0.6694
26320SOL    HW180634   8.514   3.640   6.780  0.3841  0.1309  0.7168
26320SOL    HW280635   8.438   3.718   6.885 -1.5497 -0.4601 -0.1942
26321SOL     OW80636   2.004   7.713   1.806 -0.5094  0.0632  0.0546
26321SOL    HW180637   1.930   7.652   1.809 -0.9823  0.5887 -0.7731
26321SOL    HW280638   2.054   7.687   1.729 -0.2974  0.2486  0.1280
26322SOL     OW80639   6.165   3.054   7.628 -0.3382 -0.1246  0.4576
26322SOL    HW180640   6.256   3.074   7.650  0.4386 -2.7374 -0.0684
26322SOL    HW280641   6.159   3.070   7.534 -0.3938 -0.0411  0.4755
26323SOL     OW80642   2.318   1.670   7.264 -0.5251  0.1017 -0.3602
26323SOL    HW180643   2.275   1.616   7.197  0.1009  0.4436 -1.0555
26323SOL    HW280644   2.360   1.607   7.322  0.0841 -0.1861 -1.0912
26324SOL     OW80645   3.179   3.784   9.189  0.7687 -0.2424 -0.1840
26324SOL    HW180646   3.169   3.786   9.284  0.6853 -1.2200 -0.1622
26324SOL    HW280647   3.214   3.870   9.167  2.7951 -0.6852  0.9777
26325SOL     OW80648   7.914   3.415   1.163 -0.5217 -0.2538 -0.5570
26325SOL    HW180649   7.831   3.374   1.140 -0.4244 -0.8635  0.1467
26325SOL    HW280650   7.900   3.509   1.147 -1.1813 -0.4049 -0.8949
26326SOL     OW80651   2.191   8.789   4.730 -0.2066  0.5781  0.1482
26326SOL    HW180652   2.181   8.870   4.780  0.7059  0.3952  0.6379
26326SOL    HW280653   2.238   8.730   4.788 -0.2831 -0.0900 -0.4511
26327SOL     OW80654   3.654   4.144   1.155  0.2694 -0.1878 -0.4101
26327SOL    HW180655   3.740   4.112   1.126 -0.0677 -1.2532 -0.2899
26327SOL    HW280656   3.665   4.161   1.248  0.4716  0.1165 -0.4877
26328SOL     OW80657   6.729   0.162   9.429  0.6637 -0.5198  0.0018
26328SOL    HW180658   6.690   0.222   9.365  0.6056 -0.4815  0.0733
26328SOL    HW280659   6.795   0.216   9.474  1.5117 -0.8525 -0.7994
26329SOL     OW80660   8.127   3.318   8.468 -0.0718  0.3856  0.1837
26329SOL    HW180661   8.130   3.355   8.557 -1.1631  1.6764 -0.2677
26329SOL    HW280662   8.061   3.249   8.473 -0.3076  0.6197  0.3293
26330SOL     OW80663   1.113   9.402   1.118 -0.1549  0.2952  0.7611
26330SOL    HW180664   1.109   9.471   1.183 -1.0811 -1.4566  2.6988
26330SOL    HW280665   1.060   9.434   1.045 -1.8825  1.0207  2.2647
26331SOL     OW80666   6.952   9.471   3.339 -0.3413 -0.7246 -0.1583
26331SOL    HW180667   6.923   9.538   3.400  0.8398  0.1208 -0.4877
26331SOL    HW280668   7.011   9.415   3.390 -0.8713 -1.1714 -0.0322
26332SOL     OW80669   4.763   8.050   8.372  0.4510  0.2823  0.0633
26332SOL    HW180670   4.690   8.064   8.432  0.8995 -1.0486  0.9802
26332SOL    HW280671   4.838   8.092   8.415  0.5572  0.2565 -0.0936
26333SOL     OW80672   1.887   6.046   2.164  0.3382 -0.1799 -0.4732
26333SOL    HW180673   1.810   6.072   2.214 -0.0613  1.1752 -1.7084
26333SOL    HW280674   1.953   6.024   2.230 -0.5623  0.3108  0.6124
26334SOL     OW80675   5.942   6.671   8.670 -0.1570 -0.0746  0.2158
26334SOL    HW180676   5.863   6.725   8.672  0.0611  0.2759 -0.3804
26334SOL    HW280677   6.014   6.734   8.667  0.0806 -0.3804 -1.2074
26335SOL     OW80678   3.325   7.293   4.429 -0.4694  0.8222 -0.1312
26335SOL    HW180679   3.231   7.307   4.416 -0.6936  0.9630  1.4503
26335SOL    HW280680   3.333   7.269   4.521  0.7513 -1.9326 -0.8409
26336SOL     OW80681   6.463   6.445   5.277  0.0715  0.7918  0.0510
26336SOL    HW180682   6.367   6.449   5.272 -0.1044  0.3204  2.0906
26336SOL    HW280683   6.485   6.492   5.357  1.5998  1.1653 -0.5475
26337SOL     OW80684   7.143   7.031   2.445 -0.6445 -0.1349  0.1364
26337SOL    HW180685   7.161   6.982   2.525 -3.8612  0.2190  1.2400
26337SOL    HW280686   7.135   7.122   2.474  0.2933  0.3366 -1.0065
26338SOL     OW80687   2.369   6.108   9.269  0.5345 -0.0241  0.1405
26338SOL    HW180688   2.440   6.167   9.242  0.5041  0.2879  0.7266
26338SOL    HW280689   2.338   6.070   9.187 -0.1273  1.5350 -0.3743
26339SOL     OW80690   1.404   4.327   1.717 -0.0116  0.3855  0.1598
26339SOL    HW180691   1.479   4.368   1.674 -0.8815  1.4693 -0.3648
26339SOL    HW280692   1.403   4.363   1.805  1.1491 -1.0370  0.7934
26340SOL     OW80693   6.360   1.112   3.965  0.0402 -0.3156  0.2251
26340SOL    HW180694   6.424   1.043   3.944  2.5833  1.3100  2.0131
26340SOL    HW280695   6.331   1.091   4.054 -1.3689 -0.5745 -0.2693
26341SOL     OW80696   2.934   6.510   4.921  0.0114 -0.0020 -0.5143
26341SOL    HW180697   3.028   6.504   4.935 -0.0021  0.9730  0.1131
26341SOL    HW280698   2.912   6.434   4.868  1.0636 -0.5288 -0.2117
26342SOL     OW80699   5.938   3.150   4.836  0.1862 -0.1537  0.1382
26342SOL    HW180700   5.892   3.151   4.751 -0.9146 -0.7214  0.7118
26342SOL    HW280701   5.914   3.234   4.876  1.9954  0.8562 -0.7386
26343SOL     OW80702   7.385   1.784   7.435  0.2941 -0.1243 -0.2974
26343SOL    HW180703   7.351   1.698   7.411  0.1784 -0.1411 -0.0800
26343SOL    HW280704   7.393   1.831   7.351  1.2937 -0.6710 -0.5248
26344SOL     OW80705   9.306   6.083   4.490 -0.4644  0.2549 -0.5607
26344SOL    HW180706   9.381   6.044   4.445 -0.4512 -0.9991  0.4948
26344SOL    HW280707   9.259   6.131   4.421  0.6682  0.1013 -1.4708
26345SOL     OW80708   3.106   6.352   3.224 -0.3785 -0.0388 -0.0270
26345SOL    HW180709   3.159   6.281   3.261 -0.5741 -0.4588 -0.5351
26345SOL    HW280710   3.167   6.426   3.216 -0.4342  0.1989  1.5084
26346SOL     OW80711   7.826   2.068   4.569  0.1590 -0.3931 -0.2354
26346SOL    HW180712   7.913   2.038   4.543  0.4007  0.1613 -0.0582
26346SOL    HW280713   7.836   2.097   4.659 -0.0871  0.1983 -0.3974
26347SOL     OW80714   1.029   8.446   5.537 -0.0531 -0.2751 -0.3499
26347SOL    HW180715   0.980   8.382   5.588 -0.6714  0.3829 -0.0921
26347SOL    HW280716   0.973   8.463   5.461 -0.3828  0.7222  0.1080
26348SOL     OW80717   4.749   3.412   1.282 -0.0853 -0.6391  0.0874
26348SOL    HW180718   4.680   3.447   1.226  0.8888  1.9802  0.3819
26348SOL    HW280719   4.828   3.411   1.228 -0.1037 -2.8101  0.0036
26349SOL     OW80720   6.128   7.901   3.841  0.2760 -0.2492  0.2238
26349SOL    HW180721   6.142   7.864   3.929  2.4389  0.5573  0.2819
26349SOL    HW280722   6.159   7.833   3.782  0.5747 -0.0706  0.1727
26350SOL     OW80723   1.177   7.815   0.659 -0.6938 -0.4450  0.1392
26350SOL    HW180724   1.226   7.741   0.623  0.5709  1.0107 -1.2605
26350SOL    HW280725   1.143   7.861   0.582 -2.1103  0.0156  1.0078
26351SOL     OW80726   5.976   0.529   2.302  0.5322  0.0680 -0.1662
26351SOL    HW180727   6.008   0.453   2.255  0.4595  0.0489 -0.1848
26351SOL    HW280728   5.924   0.493   2.374  1.0503  0.0879  0.2243
26352SOL     OW80729   3.086   4.018   3.615  0.0205 -0.3015  0.1793
26352SOL    HW180730   3.146   4.092   3.609 -0.3572 -0.1150 -1.9073
26352SOL    HW280731   3.132   3.945   3.573 -1.0095 -0.2518 -1.1109
26353SOL     OW80732   5.160   2.904   0.977  0.0574 -0.6426 -0.1701
26353SOL    HW180733   5.230   2.847   1.009  0.5518 -1.2025 -2.1510
26353SOL    HW280734   5.080   2.863   1.011  0.4633 -2.0814 -0.8825
26354SOL     OW80735   2.103   4.249   6.712 -0.2684 -0.3436  0.1274
26354SOL    HW180736   2.193   4.219   6.725 -0.0558 -0.4373 -1.3042
26354SOL    HW280737   2.064   4.182   6.656 -1.2158 -0.2754  0.7038
26355SOL     OW80738   5.578   6.505   4.006  0.1501 -0.0614  0.2448
26355SOL    HW180739   5.651   6.563   3.980  0.3514  0.1669  1.2817
26355SOL    HW280740   5.517   6.563   4.052 -0.9829 -0.1355 -1.0786
26356SOL     OW80741   0.565   4.525   9.450  0.2670 -0.3765 -0.1611
26356SOL    HW180742   0.631   4.560   9.510 -0.6465 -0.2451  0.7888
26356SOL    HW280743   0.574   4.430   9.459 -0.1223 -0.3589  0.4880
26357SOL     OW80744   2.930   2.031   5.273  0.1833  0.5045 -0.7611
26357SOL    HW180745   2.904   1.941   5.258 -1.4089  0.8861 -0.5043
26357SOL    HW280746   2.960   2.033   5.363 -2.2138  0.6796  0.1158
26358SOL     OW80747   5.944   8.757   8.770 -0.3010 -0.1405 -0.2557
26358SOL    HW180748   5.949   8.801   8.685 -1.3985 -0.9650 -0.7805
26358SOL    HW280749   5.963   8.665   8.750  0.6003 -0.1549  0.5981
26359SOL     OW80750   7.328   5.558   6.939 -0.2701 -0.6036  0.1448
26359SOL    HW180751   7.290   5.484   6.985 -0.2997 -1.1493 -0.7345
26359SOL    HW280752   7.305   5.634   6.992 -2.1891 -0.9646 -0.0973
26360SOL     OW80753   3.200   8.666   1.077 -0.5956 -0.8191 -0.0600
26360SOL    HW180754   3.179   8.588   1.128  0.6282  0.2370  2.2369
26360SOL    HW280755   3.280   8.642   1.030  0.3056 -0.7114  1.3580
26361SOL     OW80756   0.184   4.317   2.616 -0.0823 -0.4975 -0.6426
26361SOL    HW180757   0.237   4.368   2.556  0.3001 -2.2327 -1.8787
26361SOL    HW280758   0.167   4.375   2.690  3.4952  0.1331 -0.1823
26362SOL     OW80759   9.375   7.540   4.631 -0.7480 -0.6135 -0.1673
26362SOL    HW180760   9.464   7.506   4.639 -0.5187  0.3201  1.6789
26362SOL    HW280761   9.359   7.542   4.536  1.6739  0.4050 -0.6288
26363SOL     OW80762   2.272   2.886   3.932 -0.2571  0.4646  0.2495
26363SOL    HW180763   2.237   2.799   3.948  0.2151 -0.2959 -2.4484
26363SOL    HW280764   2.284   2.923   4.019 -0.2868 -2.2144  1.4770
26364SOL     OW80765   6.649   8.977   7.518  0.2826  0.2281  0.0333
26364SOL    HW180766   6.639   9.072   7.526  0.9442  0.2981  0.0720
26364SOL    HW280767   6.695   8.964   7.436 -2.3125 -0.2412 -1.4744
26365SOL     OW80768   2.146   6.842   8.543  0.3174 -1.0556  0.3886
26365SOL    HW180769   2.094   6.795   8.477 -0.6851  1.2641 -0.5987
26365SOL    HW280770   2.214   6.887   8.492 -1.3183  1.9197  0.6051
26366SOL     OW80771   2.483   5.252   5.340 -0.1331 -0.1615 -0.7621
26366SOL    HW180772   2.430   5.268   5.262 -1.5616 -1.1793 -0.0579
26366SOL    HW280773   2.564   5.300   5.324 -0.3197 -0.4348 -2.9266
26367SOL     OW80774   7.887   7.376   3.471 -0.5111 -0.2683 -0.6159
26367SOL    HW180775   7.933   7.459   3.480  0.2526 -0.5968 -1.3669
26367SOL    HW280776   7.915   7.325   3.547  0.2014 -0.3806 -0.9442
26368SOL     OW80777   8.981   6.315   9.353 -0.0537  0.1228 -1.2747
26368SOL    HW180778   9.020   6.259   9.420  0.7642  1.5101 -0.5276
26368SOL    HW280779   9.034   6.301   9.275 -0.5151 -0.9130 -1.4152
26369SOL     OW80780   1.461   1.754   6.284  0.1808 -0.1800 -0.1343
26369SOL    HW180781   1.497   1.765   6.372  0.3940 -0.4341 -0.1903
26369SOL    HW280782   1.381   1.807   6.284  0.0764 -0.3401  0.2719
26370SOL     OW80783   5.509   9.242   0.249 -0.2995 -0.1270  0.3216
26370SOL    HW180784   5.553   9.313   0.203 -0.5403  0.8540  1.5507
26370SOL    HW280785   5.477   9.282   0.329  0.1847 -1.8010  1.3991
26371SOL     OW80786   8.021   4.116   4.324  0.0164  0.6653  0.4220
26371SOL    HW180787   7.996   4.154   4.409 -0.5387 -0.0967  0.6091
26371SOL    HW280788   8.070   4.037   4.347  0.7295  0.9854  0.0292
26372SOL     OW80789   0.777   4.862   2.203 -0.0453 -0.2519 -0.2196
26372SOL    HW180790   0.764   4.859   2.297 -1.5134  0.1943 -0.3780
26372SOL    HW280791   0.847   4.926   2.190  0.1029 -0.2504  0.5463
26373SOL     OW80792   1.929   2.034   2.784  0.4922  0.5736 -0.3354
26373SOL    HW180793   1.891   1.947   2.784 -0.5778  1.0279 -0.5161
26373SOL    HW280794   2.000   2.029   2.720 -0.8977  0.3913 -1.9108
26374SOL     OW80795   2.718   6.331   3.977  0.2553  0.5230  0.0882
26374SOL    HW180796   2.637   6.348   4.026  0.1536  0.6252 -0.1158
26374SOL    HW280797   2.690   6.280   3.901  0.5147 -0.2825  0.5227
26375SOL     OW80798   0.339   0.677   7.012 -0.8197 -0.4736  0.1340
26375SOL    HW180799   0.248   0.664   6.987 -0.7616 -0.7697  0.0740
26375SOL    HW280800   0.384   0.598   6.982 -0.5475 -0.3396  0.1821
26376SOL     OW80801   8.721   8.366   2.939 -0.2988  0.0390  0.5224
26376SOL    HW180802   8.799   8.314   2.953 -1.3115 -1.1803  1.9481
26376SOL    HW280803   8.739   8.416   2.859  1.8805 -0.2364  0.7775
26377SOL     OW80804   2.132   3.255   5.845 -0.3307  0.3119 -0.0484
26377SOL    HW180805   2.125   3.269   5.750  3.6117  0.0780 -0.5722
26377SOL    HW280806   2.097   3.167   5.859 -1.6821  0.6494 -1.1347
26378SOL     OW80807   2.651   3.675   9.114  0.0018  0.0749 -0.0578
26378SOL    HW180808   2.738   3.643   9.138  0.0163 -0.5617 -0.9171
26378SOL    HW280809   2.666   3.759   9.073  0.0968  0.5239  0.8685
26379SOL     OW80810   2.311   6.908   8.016  0.0784  0.5539  0.0048
26379SOL    HW180811   2.321   6.817   7.989  0.1136  1.0395 -1.7517
26379SOL    HW280812   2.400   6.943   8.016  0.1811  0.3821  1.6089
26380SOL     OW80813   7.732   0.859   3.480 -0.0829 -0.6791  0.1384
26380SOL    HW180814   7.770   0.844   3.393 -0.6759 -0.9118 -0.0829
26380SOL    HW280815   7.702   0.773   3.508 -0.2964 -0.5228  0.3839
26381SOL     OW80816   6.875   9.029   6.803 -0.0310 -0.4138  0.2151
26381SOL    HW180817   6.918   9.103   6.758 -1.7630 -0.2234 -1.2264
26381SOL    HW280818   6.907   8.952   6.757  0.9241 -0.5009  1.0006
26382SOL     OW80819   3.134   6.269   5.429  0.2570 -0.2478  0.0119
26382SOL    HW180820   3.136   6.319   5.510 -0.2377 -1.5119  0.8398
26382SOL    HW280821   3.131   6.335   5.360  1.1945  0.8668  0.9832
26383SOL     OW80822   2.170   6.106   0.160 -0.2223 -0.5586 -0.2127
26383SOL    HW180823   2.182   6.020   0.199 -2.2873 -0.2718  1.2103
26383SOL    HW280824   2.248   6.119   0.106 -0.1244 -3.5322 -0.9491
26384SOL     OW80825   6.573   3.402   3.844  0.6635 -0.0002  0.1303
26384SOL    HW180826   6.659   3.402   3.801  1.5481 -0.7163  1.7826
26384SOL    HW280827   6.589   3.444   3.928 -0.0814 -2.0797  1.3898
26385SOL     OW80828   8.034   3.918   6.479 -0.1387 -0.0335  0.5105
26385SOL    HW180829   7.988   3.995   6.445  2.2882  1.4137  0.2144
26385SOL    HW280830   8.117   3.953   6.513  0.4229 -2.3497  1.7543
26386SOL     OW80831   9.326   0.553   5.473  0.0599  0.2242 -0.3451
26386SOL    HW180832   9.256   0.508   5.427  0.5482  0.6617 -1.5748
26386SOL    HW280833   9.406   0.516   5.437  0.4630  0.9474 -0.2225
26387SOL     OW80834   2.643   1.626   9.122  0.1505 -0.4761 -0.0586
26387SOL    HW180835   2.612   1.667   9.042  0.9240  0.4816  0.1020
26387SOL    HW280836   2.564   1.600   9.169 -0.3399  0.1390 -0.5373
26388SOL     OW80837   0.785   6.134   8.924 -0.4118 -0.0357  0.1733
26388SOL    HW180838   0.703   6.157   8.881  0.0195  0.6280 -0.3100
26388SOL    HW280839   0.783   6.039   8.929 -0.3218 -0.1714 -1.6575
26389SOL     OW80840   6.771   4.798   9.417 -0.2128  0.4829 -0.2442
26389SOL    HW180841   6.778   4.809   9.322  1.1230  0.7711 -0.1377
26389SOL    HW280842   6.827   4.723   9.437  1.7797  2.0836  0.5910
26390SOL     OW80843   1.265   1.986   0.457 -0.5420 -0.1594 -0.6211
26390SOL    HW180844   1.278   2.013   0.548 -1.8320 -0.3856 -0.3521
26390SOL    HW280845   1.342   1.934   0.436 -0.0735  0.1680  0.2326
26391SOL     OW80846   2.894   1.375   0.620  0.3153  0.0981 -0.2804
26391SOL    HW180847   2.872   1.461   0.583  1.1743  1.1397  1.4905
26391SOL    HW280848   2.823   1.318   0.593 -0.8182  1.6356 -0.6588
26392SOL     OW80849   8.221   3.830   5.845  0.2322  0.4100 -0.2223
26392SOL    HW180850   8.309   3.822   5.807  0.5266  1.3664  0.2157
26392SOL    HW280851   8.164   3.784   5.783  1.1937 -1.4263  0.1767
26393SOL     OW80852   3.679   6.930   0.272 -0.6108 -0.1231 -0.3229
26393SOL    HW180853   3.651   7.004   0.218  1.4744  0.5395 -0.5828
26393SOL    HW280854   3.662   6.958   0.362 -3.2648 -0.8746 -0.5151
26394SOL     OW80855   8.732   2.770   0.307 -0.6238  0.6521 -0.7517
26394SOL    HW180856   8.761   2.679   0.317 -0.7353  0.6061 -0.8453
26394SOL    HW280857   8.674   2.784   0.382  1.0723  1.3253  0.5226
26395SOL     OW80858   0.878   9.357   1.666  0.5549  0.3024 -0.0198
26395SOL    HW180859   0.939   9.284   1.653 -0.9988 -0.7024 -2.5006
26395SOL    HW280860   0.807   9.320   1.719 -0.0709  0.0644 -0.9962
26396SOL     OW80861   6.751   0.558   8.854 -0.7531 -0.2119 -0.0514
26396SOL    HW180862   6.818   0.626   8.841  0.3372 -1.2040  0.1600
26396SOL    HW280863   6.726   0.532   8.766 -0.3881 -0.2752 -0.1397
26397SOL     OW80864   3.382   7.565   1.531 -0.2008  0.4818  0.0122
26397SOL    HW180865   3.387   7.517   1.614  0.1810  1.9519  0.8661
26397SOL    HW280866   3.464   7.543   1.486 -0.6792 -0.8094 -0.2866
26398SOL     OW80867   8.587   8.143   8.922  0.0605 -0.0181 -0.5838
26398SOL    HW180868   8.590   8.239   8.927  2.5255 -0.0703  2.5803
26398SOL    HW280869   8.666   8.119   8.874 -0.1158 -0.4820 -0.6448
26399SOL     OW80870   7.734   7.762   2.669 -0.0718 -0.1497  0.1255
26399SOL    HW180871   7.683   7.685   2.695  0.1047 -0.3474 -0.1072
26399SOL    HW280872   7.697   7.789   2.586 -1.4073  1.1894  1.1130
26400SOL     OW80873   6.286   2.490   2.716  0.1714 -0.6225  0.1192
26400SOL    HW180874   6.254   2.456   2.799 -0.1240 -0.2765  0.1518
26400SOL    HW280875   6.326   2.574   2.739  1.6340 -1.2979  0.1730
26401SOL     OW80876   0.422   1.926   7.351  0.0790  0.4481 -0.0186
26401SOL    HW180877   0.438   2.003   7.406 -0.4131 -0.6595  1.7416
26401SOL    HW280878   0.501   1.873   7.361 -0.2879 -0.0717  0.1492
26402SOL     OW80879   9.405   8.294   4.152 -0.1605  0.3084 -0.5976
26402SOL    HW180880   9.424   8.285   4.245  3.0039  1.7788 -0.9468
26402SOL    HW280881   9.413   8.389   4.135 -1.9837  0.2475 -2.1427
26403SOL     OW80882   1.314   7.335   2.464 -0.4806 -0.5367  0.3627
26403SOL    HW180883   1.263   7.392   2.405 -0.2761  0.8897  1.5124
26403SOL    HW280884   1.332   7.257   2.411 -1.9629 -0.1492 -0.8124
26404SOL     OW80885   3.448   2.145   1.623  0.3656 -0.4292 -0.1007
26404SOL    HW180886   3.541   2.168   1.624  0.1931  0.3267 -0.6927
26404SOL    HW280887   3.422   2.157   1.532 -0.3817 -0.3617  0.1170
26405SOL     OW80888   8.132   1.706   5.566 -0.0684 -0.7093  0.2582
26405SOL    HW180889   8.057   1.724   5.509 -0.7727 -2.4267  0.5843
26405SOL    HW280890   8.157   1.616   5.547  3.2038  0.3626 -1.2052
26406SOL     OW80891   7.232   0.530   2.875  0.0640  0.0105 -0.3770
26406SOL    HW180892   7.154   0.573   2.841  0.2080  0.4252 -0.1901
26406SOL    HW280893   7.202   0.489   2.957 -0.4312 -1.5006 -1.2676
26407SOL     OW80894   6.265   1.806   7.326  0.0992 -0.3297  0.3545
26407SOL    HW180895   6.248   1.715   7.301  1.1502  0.1735 -2.5804
26407SOL    HW280896   6.184   1.853   7.306  0.3557 -0.2299 -0.4749
26408SOL     OW80897   8.189   3.506   6.761 -0.2480  0.2620  0.2635
26408SOL    HW180898   8.201   3.513   6.667 -0.3096 -2.1269  0.0034
26408SOL    HW280899   8.247   3.435   6.787 -1.5804 -0.3639  1.7106
26409SOL     OW80900   0.801   2.038   1.182  0.3500 -0.0130 -0.2119
26409SOL    HW180901   0.720   2.084   1.159  2.6627  3.3865 -2.5274
26409SOL    HW280902   0.836   2.087   1.257  1.7267  0.5919 -1.2157
26410SOL     OW80903   1.002   6.093   2.680 -0.3447  0.8236  0.3729
26410SOL    HW180904   0.957   6.064   2.601 -1.1090 -4.5677  2.3929
26410SOL    HW280905   0.934   6.091   2.748  1.4037 -0.6932  2.2096
26411SOL     OW80906   1.721   8.686   3.072 -0.1201 -0.4203  0.3386
26411SOL    HW180907   1.704   8.769   3.026 -1.0335 -1.5231 -1.4369
26411SOL    HW280908   1.726   8.710   3.164  0.4311  1.7221 -0.2023
26412SOL     OW80909   6.883   3.806   0.381  0.2105  0.3630 -0.1645
26412SOL    HW180910   6.803   3.826   0.333  0.5919  1.7118 -0.2796
26412SOL    HW280911   6.876   3.855   0.462  0.4038 -0.4438  0.3567
26413SOL     OW80912   5.109   7.550   0.362 -0.0988  0.1189 -0.1662
26413SOL    HW180913   5.111   7.602   0.282  2.2728 -0.5553 -0.6235
26413SOL    HW280914   5.183   7.583   0.413  0.2843 -1.5083  0.3688
26414SOL     OW80915   2.144   5.415   2.151  0.0342 -0.6305  0.1050
26414SOL    HW180916   2.106   5.332   2.181 -0.6477 -0.5564 -0.5079
26414SOL    HW280917   2.238   5.398   2.144  0.1435 -0.7975  1.7407
26415SOL     OW80918   5.983   6.184   7.179  0.1180 -0.4036  0.1428
26415SOL    HW180919   5.912   6.235   7.140 -0.0884 -0.1743  0.8078
26415SOL    HW280920   6.051   6.248   7.199 -0.4471 -0.2516  1.6842
26416SOL     OW80921   2.801   7.721   7.675 -0.1326 -0.2398  0.1282
26416SOL    HW180922   2.852   7.690   7.750  0.1755  1.1555  0.5139
26416SOL    HW280923   2.738   7.651   7.659  2.5114 -2.5625 -1.0591
26417SOL     OW80924   8.415   7.681   8.332  0.2735 -0.0299  0.2850
26417SOL    HW180925   8.422   7.600   8.282 -1.0568 -0.2463  0.4317
26417SOL    HW280926   8.446   7.749   8.272  0.3405 -0.5004 -0.2179
26418SOL     OW80927   7.778   2.070   9.283  0.6001  0.1688  0.4803
26418SOL    HW180928   7.752   1.978   9.294  1.6885 -0.0670  1.1505
26418SOL    HW280929   7.817   2.073   9.195 -1.1077  0.4166 -0.3238
26419SOL     OW80930   0.170   7.329   7.918 -0.2393 -0.3429  0.0776
26419SOL    HW180931   0.244   7.287   7.961 -0.1331  0.0626  0.2954
26419SOL    HW280932   0.095   7.308   7.974 -0.3034 -0.8225 -0.1875
26420SOL     OW80933   3.326   2.982   4.276  0.2871 -0.3795  0.7771
26420SOL    HW180934   3.321   3.074   4.300 -0.9330 -0.6775  1.7644
26420SOL    HW280935   3.311   2.981   4.181  1.7425  0.5380  0.5188
26421SOL     OW80936   2.391   2.009   2.885 -0.2287 -0.6690  0.0986
26421SOL    HW180937   2.305   2.020   2.925 -0.5884 -1.0076 -0.5648
26421SOL    HW280938   2.453   2.022   2.957 -0.7188  1.8122  0.1396
26422SOL     OW80939   2.744   1.224   5.640 -0.2904  0.2377  0.3567
26422SOL    HW180940   2.733   1.211   5.734  0.9562  0.1213  0.5082
26422SOL    HW280941   2.805   1.155   5.614 -0.9205  0.0281 -0.6142
26423SOL     OW80942   0.016   0.190   4.895  0.2847 -0.6171  0.0027
26423SOL    HW180943   0.098   0.178   4.846  0.1109 -0.9339 -0.2121
26423SOL    HW280944   0.011   0.113   4.951 -0.7585 -1.5202 -1.2662
26424SOL     OW80945   1.455   6.852   2.334  0.2248  0.2412 -0.1322
26424SOL    HW180946   1.539   6.848   2.380  1.1594 -0.5386 -1.8033
26424SOL    HW280947   1.397   6.797   2.387  1.1615 -0.3546  0.3095
26425SOL     OW80948   9.114   0.836   2.639  0.1644  0.2418  0.1524
26425SOL    HW180949   9.115   0.850   2.734  0.8527  1.7899 -0.0595
26425SOL    HW280950   9.207   0.833   2.614  0.0025 -0.8975 -0.3965
26426SOL     OW80951   8.675   5.443   2.508 -0.1971  0.0565  0.1728
26426SOL    HW180952   8.636   5.374   2.562 -1.0176 -0.5387 -1.1124
26426SOL    HW280953   8.604   5.507   2.496 -1.0143 -1.1830 -2.4379
26427SOL     OW80954   2.398   8.587   1.023 -0.0903  0.1515 -0.1207
26427SOL    HW180955   2.492   8.588   1.040  0.1343  0.9642 -1.2487
26427SOL    HW280956   2.361   8.538   1.096  1.1782  0.0223  0.4730
26428SOL     OW80957   3.797   9.140   5.624 -0.4124  0.3484 -0.0250
26428SOL    HW180958   3.768   9.196   5.696 -3.0372  1.4684 -1.7889
26428SOL    HW280959   3.857   9.194   5.573  0.1429  0.1360  0.3940
26429SOL     OW80960   3.900   3.390   9.035 -0.1701 -0.0289  0.0802
26429SOL    HW180961   3.884   3.296   9.033  0.6141 -0.2014  1.1052
26429SOL    HW280962   3.996   3.398   9.034 -0.2102  0.7167  0.8389
26430SOL     OW80963   8.882   4.616   6.638  0.2610  0.1997 -0.3449
26430SOL    HW180964   8.960   4.562   6.643  0.3153  0.2964 -0.1297
26430SOL    HW280965   8.895   4.683   6.705 -0.4008 -0.3093  0.3152
26431SOL     OW80966   6.790   0.239   8.890  0.7535 -0.2140 -0.5475
26431SOL    HW180967   6.761   0.225   8.981  0.5573 -0.4511 -0.6448
26431SOL    HW280968   6.737   0.313   8.860  0.4745 -0.4444 -0.6232
26432SOL     OW80969   9.392   8.443   2.086 -0.2463 -0.1365  0.4365
26432SOL    HW180970   9.418   8.533   2.104 -1.2947 -0.0639  1.7020
26432SOL    HW280971   9.336   8.418   2.159 -0.3254 -1.6828 -0.0998
26433SOL     OW80972   5.935   3.745   0.733 -0.2810 -0.0190  0.1033
26433SOL    HW180973   5.967   3.834   0.742  0.5883 -0.4824  2.1441
26433SOL    HW280974   5.850   3.745   0.775 -0.5795 -0.0239 -0.4849
26434SOL     OW80975   6.525   4.289   5.015  0.0258  0.1871  0.0193
26434SOL    HW180976   6.482   4.368   5.048  1.8629  0.4878  1.9330
26434SOL    HW280977   6.618   4.310   5.017  0.4984 -1.7436 -0.2470
26435SOL     OW80978   3.351   4.025   5.590 -0.5468 -0.5543  0.0141
26435SOL    HW180979   3.296   3.976   5.651 -1.3342  0.0171 -0.2254
26435SOL    HW280980   3.387   3.959   5.532 -1.5659 -0.8739 -0.2779
26436SOL     OW80981   4.111   7.799   8.866 -0.0702 -0.1222  0.4040
26436SOL    HW180982   4.023   7.837   8.858  0.6293  1.1789 -2.0392
26436SOL    HW280983   4.133   7.810   8.959 -3.1735 -2.2477  1.5371
26437SOL     OW80984   5.538   3.213   6.604  0.0795 -0.4356  0.4474
26437SOL    HW180985   5.628   3.244   6.599 -0.1611  0.1231 -0.8141
26437SOL    HW280986   5.511   3.201   6.513 -0.6989 -1.8729  0.8284
26438SOL     OW80987   8.637   5.069   7.533  0.1043  0.6531  0.5716
26438SOL    HW180988   8.562   5.044   7.587 -1.0479  1.7832 -0.4352
26438SOL    HW280989   8.602   5.077   7.444  1.3146  1.6177  0.1405
26439SOL     OW80990   2.706   8.875   2.002 -0.2222 -0.7416  0.0077
26439SOL    HW180991   2.634   8.925   2.038  1.9319  1.6513  1.3348
26439SOL    HW280992   2.676   8.849   1.915 -2.2622  1.0805  0.0845
26440SOL     OW80993   9.314   9.247   8.050  0.3238  0.8412 -0.4090
26440SOL    HW180994   9.255   9.296   8.106  1.5206  1.1599  0.6167
26440SOL    HW280995   9.257   9.200   7.989 -1.0111  0.3862  1.1509
26441SOL     OW80996   7.043   7.102   1.384 -0.1613 -0.5273 -0.5349
26441SOL    HW180997   7.000   7.151   1.455  0.7581  1.0085 -0.9880
26441SOL    HW280998   6.982   7.032   1.363 -0.4282 -1.1085  1.8325
26442SOL     OW80999   3.608   4.122   4.750 -0.4334 -0.0164 -0.7111
26442SOL    HW181000   3.700   4.148   4.742 -0.5402  0.4414 -0.5312
26442SOL    HW281001   3.611   4.029   4.774 -0.0379 -0.1838 -1.4046
26443SOL     OW81002   8.351   5.063   1.947  0.4377  0.6049 -0.4412
26443SOL    HW181003   8.362   4.970   1.924  0.5724  0.9886 -2.0118
26443SOL    HW281004   8.318   5.061   2.037  0.1857 -0.9813 -0.5346
26444SOL     OW81005   0.369   9.616   2.765  0.3976 -0.4153 -0.4807
26444SOL    HW181006   0.451   9.666   2.770 -0.6491  1.4363 -0.9396
26444SOL    HW281007   0.300   9.681   2.772 -1.0729 -1.8756 -0.6284
26445SOL     OW81008   8.424   6.733   1.917  0.4088  0.8974 -0.1823
26445SOL    HW181009   8.353   6.787   1.952 -3.0321 -0.9903 -3.4923
26445SOL    HW281010   8.413   6.648   1.960 -0.9247 -0.0561 -2.2498
26446SOL     OW81011   1.046   3.412   9.206  0.0044  0.1619 -0.3674
26446SOL    HW181012   1.135   3.417   9.172  0.0706  1.1269 -0.0803
26446SOL    HW281013   1.052   3.352   9.281  0.3533  0.0087 -0.5153
26447SOL     OW81014   1.761   5.573   0.528 -0.0337 -0.0153  0.5327
26447SOL    HW181015   1.737   5.596   0.618 -1.2096 -2.9183  1.0614
26447SOL    HW281016   1.701   5.503   0.504  0.5590  0.3596 -2.3932
26448SOL     OW81017   6.435   8.447   7.204  0.4974  0.3569 -0.0706
26448SOL    HW181018   6.462   8.538   7.217  0.6561  0.0582  1.8606
26448SOL    HW281019   6.470   8.400   7.280 -3.9820 -0.3775  1.8269
26449SOL     OW81020   3.395   2.360   2.067  0.0035  0.6857  0.3705
26449SOL    HW181021   3.352   2.275   2.066  1.3258 -0.0195 -1.1710
26449SOL    HW281022   3.324   2.422   2.088 -1.5417 -0.5288 -0.9306
26450SOL     OW81023   3.760   6.498   0.018 -0.3432  0.3518  0.0635
26450SOL    HW181024   3.841   6.540   0.046 -1.5132  2.8533  0.0125
26450SOL    HW281025   3.697   6.570   0.012 -2.1331 -1.2379 -1.5524
26451SOL     OW81026   1.048   6.837   3.429  0.0376 -0.1354  0.1934
26451SOL    HW181027   1.068   6.786   3.350 -0.2382  1.7049 -1.1188
26451SOL    HW281028   1.132   6.874   3.456 -0.0284 -0.0006  0.2135
26452SOL     OW81029   7.208   8.746   5.265  0.6338 -0.0991  0.1598
26452SOL    HW181030   7.195   8.660   5.225 -0.3454 -0.1013  0.4628
26452SOL    HW281031   7.129   8.760   5.318  1.3473  0.4381  1.1096
26453SOL     OW81032   7.364   9.144   3.215 -0.1533  0.1738  0.1609
26453SOL    HW181033   7.364   9.212   3.149 -2.9011  1.1650  1.0666
26453SOL    HW281034   7.429   9.173   3.280 -0.4240  1.3080 -0.0702
26454SOL     OW81035   6.589   3.877   3.384 -0.1735  0.4081  0.4945
26454SOL    HW181036   6.652   3.900   3.453  0.1931  0.9427 -0.0096
26454SOL    HW281037   6.581   3.956   3.332  1.0776 -0.5375 -1.2522
26455SOL     OW81038   8.837   8.884   0.691 -0.0784 -0.0800  0.0517
26455SOL    HW181039   8.848   8.812   0.753  3.1773 -1.9339 -2.3401
26455SOL    HW281040   8.884   8.958   0.729 -0.2330 -0.3980  0.8663
26456SOL     OW81041   3.646   8.914   1.081  0.3149 -0.1146 -0.0266
26456SOL    HW181042   3.662   8.979   1.149  0.8556 -0.1645 -0.1003
26456SOL    HW281043   3.572   8.949   1.031  0.7134  0.5359 -0.1720
26457SOL     OW81044   5.751   0.822   8.886  0.4014  0.1728  0.3722
26457SOL    HW181045   5.828   0.804   8.832  0.8847  1.0833  0.7444
26457SOL    HW281046   5.677   0.804   8.828  0.8799 -0.5267 -0.0491
26458SOL     OW81047   8.744   8.636   8.740  0.2555  0.2437 -0.1640
26458SOL    HW181048   8.721   8.688   8.663 -0.3844  0.0785 -0.0920
26458SOL    HW281049   8.766   8.550   8.706  1.0621  0.4761 -0.2581
26459SOL     OW81050   4.760   0.166   5.559  0.3959  0.1544  0.9977
26459SOL    HW181051   4.787   0.184   5.469 -0.2282  0.8336  0.9301
26459SOL    HW281052   4.827   0.107   5.594  0.0975 -0.9468 -0.2276
26460SOL     OW81053   3.542   8.462   4.740 -0.3068 -0.0220  0.4943
26460SOL    HW181054   3.452   8.437   4.763 -0.5783 -0.4218 -0.9375
26460SOL    HW281055   3.568   8.521   4.811 -2.6397  2.2021 -0.3441
26461SOL     OW81056   9.074   7.537   2.882  0.2062  0.0727  0.2684
26461SOL    HW181057   9.123   7.572   2.957  2.5032 -1.0323 -0.6104
26461SOL    HW281058   8.997   7.496   2.920  2.3756 -2.3782  2.3674
26462SOL     OW81059   1.345   6.701   0.725  0.1066  0.3826 -0.5670
26462SOL    HW181060   1.363   6.618   0.680  0.9961  0.2231  0.0509
26462SOL    HW281061   1.363   6.768   0.660 -4.1358  0.1101 -2.3202
26463SOL     OW81062   3.042   5.804   0.526 -0.2803 -0.8024  0.5692
26463SOL    HW181063   2.975   5.820   0.460  1.6403 -0.2764 -1.3530
26463SOL    HW281064   3.046   5.708   0.533 -0.3012 -0.8709 -0.2984
26464SOL     OW81065   6.265   6.557   4.555 -0.0982  0.2821  0.6341
26464SOL    HW181066   6.176   6.536   4.527  0.3555 -0.8050 -0.0383
26464SOL    HW281067   6.295   6.479   4.603  1.2646 -0.2828 -1.0495
26465SOL     OW81068   1.570   2.040   4.592  0.4387 -0.1814 -0.3738
26465SOL    HW181069   1.555   2.023   4.499  0.2033 -0.6412 -0.2496
26465SOL    HW281070   1.515   2.116   4.611 -2.0700 -2.0104  0.1556
26466SOL     OW81071   1.888   6.653   7.360  0.4166 -0.0976  0.6382
26466SOL    HW181072   1.835   6.593   7.413 -1.9791 -0.0028 -1.4851
26466SOL    HW281073   1.829   6.725   7.339  1.3770  0.0830 -1.7715
26467SOL     OW81074   5.538   0.979   6.178 -0.0166 -0.3159 -0.4299
26467SOL    HW181075   5.450   0.946   6.191  0.6828 -1.2928  2.7688
26467SOL    HW281076   5.593   0.901   6.171  0.8581  0.2124  0.2348
26468SOL     OW81077   0.429   7.162   1.512  0.4820 -0.6310 -0.0648
26468SOL    HW181078   0.403   7.070   1.504  0.4278 -0.4850 -2.2255
26468SOL    HW281079   0.348   7.211   1.499  0.2264 -0.2193  2.5153
26469SOL     OW81080   4.995   3.034   5.433 -0.5511  0.4987 -0.1261
26469SOL    HW181081   5.082   3.072   5.446  0.3556 -1.8068  1.0008
26469SOL    HW281082   5.001   2.989   5.349 -0.6237  0.2794 -0.0147
26470SOL     OW81083   5.917   7.978   8.306  0.6589  0.1525 -0.0841
26470SOL    HW181084   5.954   7.908   8.359 -0.9890  0.0966  1.0456
26470SOL    HW281085   5.989   8.040   8.296  1.5954 -0.8065  0.4767
26471SOL     OW81086   4.670   0.112   7.369  0.5021  0.2997  0.2202
26471SOL    HW181087   4.658   0.197   7.411  0.2735  0.3992 -0.0417
26471SOL    HW281088   4.582   0.074   7.364  0.3554  0.7496 -1.1136
26472SOL     OW81089   0.427   4.370   1.935 -0.3447  0.2879  0.0455
26472SOL    HW181090   0.448   4.298   1.876  1.8152 -0.1836  1.3073
26472SOL    HW281091   0.455   4.449   1.887  0.1498  0.0306 -0.0912
26473SOL     OW81092   3.612   4.187   5.166 -0.3295  0.7592 -0.4085
26473SOL    HW181093   3.573   4.136   5.095  1.5155  1.8772 -2.3627
26473SOL    HW281094   3.700   4.208   5.134 -0.2329  3.2263  1.2432
26474SOL     OW81095   6.564   6.057   3.351  0.4255 -0.7069  0.1351
26474SOL    HW181096   6.628   6.076   3.283  0.1975 -0.2818  0.0298
26474SOL    HW281097   6.561   6.137   3.404  0.9139 -1.1904  0.9026
26475SOL     OW81098   3.735   9.123   6.701  0.4970  0.2023 -0.0066
26475SOL    HW181099   3.776   9.065   6.765  0.9909 -0.4142 -0.8613
26475SOL    HW281100   3.643   9.096   6.700  0.0857  1.3745  1.6825
26476SOL     OW81101   6.603   0.122   2.324  0.1275  0.1859  0.3151
26476SOL    HW181102   6.614   0.031   2.352 -0.2238  0.5953  1.8871
26476SOL    HW281103   6.635   0.124   2.234 -1.5655 -1.8763 -0.3991
26477SOL     OW81104   5.192   4.792   9.655  0.1713  0.2802 -0.1431
26477SOL    HW181105   5.224   4.826   9.572 -1.5219 -0.3637 -1.0871
26477SOL    HW281106   5.143   4.865   9.694  0.1591  0.2747 -0.1489
26478SOL     OW81107   2.586   3.850   7.926  0.0000 -0.2655  0.4909
26478SOL    HW181108   2.514   3.911   7.906 -0.8546 -1.2818  0.4012
26478SOL    HW281109   2.657   3.877   7.867 -0.8296 -0.1849 -0.5037
26479SOL     OW81110   1.404   3.847   5.224 -0.0236 -0.0579 -0.4820
26479SOL    HW181111   1.464   3.893   5.166  0.5955 -1.9651 -1.4222
26479SOL    HW281112   1.343   3.802   5.165  0.2511 -1.5583  0.3342
26480SOL     OW81113   3.415   3.313   6.005  0.5009  0.5101 -0.2698
26480SOL    HW181114   3.372   3.398   5.999  0.6231  0.7058  1.1857
26480SOL    HW281115   3.346   3.249   5.989  0.4375  0.8756 -1.5078
26481SOL     OW81116   8.759   4.898   4.192 -0.8420 -0.2313 -0.6487
26481SOL    HW181117   8.677   4.944   4.208 -0.0328  1.2662 -0.6630
26481SOL    HW281118   8.771   4.843   4.269 -0.2699  1.9677  0.9112
26482SOL     OW81119   5.829   7.740   8.625 -0.2847  0.4914 -0.4635
26482SOL    HW181120   5.813   7.834   8.615  0.3065  0.7472  0.7374
26482SOL    HW281121   5.837   7.728   8.720 -1.6787 -1.0046 -0.5141
26483SOL     OW81122   7.130   6.702   1.125 -0.0364 -0.0004  0.2032
26483SOL    HW181123   7.209   6.702   1.179 -0.1897  0.5861  0.4363
26483SOL    HW281124   7.159   6.738   1.041 -0.4700  2.2509  0.9534
26484SOL     OW81125   7.406   6.175   6.729  0.2720  0.2252 -0.0680
26484SOL    HW181126   7.435   6.264   6.709  1.8157 -0.6634 -2.2336
26484SOL    HW281127   7.372   6.142   6.645 -2.3159 -0.5610  1.1871
26485SOL     OW81128   9.553   4.661   0.996 -0.6603  0.7431 -0.4108
26485SOL    HW181129   9.518   4.670   1.085  0.8800 -1.3986  0.5015
26485SOL    HW281130   9.633   4.713   0.997 -0.6053  0.6603 -0.5030
26486SOL     OW81131   1.770   3.433   3.715  0.6261 -1.0135  0.2907
26486SOL    HW181132   1.820   3.506   3.751  0.8703 -0.3716 -1.2675
26486SOL    HW281133   1.680   3.449   3.742  0.8134 -0.6047  0.6806
26487SOL     OW81134   7.463   5.899   2.199 -0.0104  0.4321  0.1099
26487SOL    HW181135   7.546   5.867   2.234 -0.5184 -1.5769 -0.4090
26487SOL    HW281136   7.397   5.866   2.259 -0.5710  0.3172 -0.5527
26488SOL     OW81137   4.869   8.320   6.675  0.6425  0.0149 -0.6002
26488SOL    HW181138   4.908   8.310   6.588  1.2554  1.1643 -0.4834
26488SOL    HW281139   4.937   8.363   6.726  0.1954 -0.4232  0.3902
26489SOL     OW81140   4.706   3.731   8.434  0.2890 -0.0449 -0.1402
26489SOL    HW181141   4.713   3.664   8.367  1.0555  0.3810 -0.4949
26489SOL    HW281142   4.791   3.775   8.434 -0.6097  1.8224 -0.8747
26490SOL     OW81143   6.053   4.094   9.303  0.2111 -0.0508 -0.4527
26490SOL    HW181144   5.995   4.138   9.366  2.5974 -2.1611  3.6529
26490SOL    HW281145   6.116   4.161   9.277  1.2586  0.2001  2.3601
26491SOL     OW81146   4.240   0.451   1.949 -0.2643  0.3387  0.0901
26491SOL    HW181147   4.270   0.375   1.900  1.3496 -0.2479  1.8657
26491SOL    HW281148   4.151   0.428   1.976 -0.5941  0.0275 -1.2142
26492SOL     OW81149   8.991   6.465   9.624  0.2198  0.0448  0.3012
26492SOL    HW181150   8.941   6.414   9.560  1.7714  0.1693 -1.0560
26492SOL    HW281151   9.077   6.423   9.627  1.5223  2.4118 -0.7606
26493SOL     OW81152   7.869   1.550   7.411 -0.0449  0.5602 -0.2915
26493SOL    HW181153   7.940   1.523   7.468 -1.9137 -0.5460  1.6818
26493SOL    HW281154   7.818   1.612   7.464 -0.7834  1.0127 -1.4911
26494SOL     OW81155   9.009   6.896   7.259  0.0144 -0.1006  0.2675
26494SOL    HW181156   9.023   6.991   7.264  1.2394 -0.2705  0.4851
26494SOL    HW281157   9.042   6.872   7.172 -0.2550 -0.3260  0.2288
26495SOL     OW81158   1.379   1.223   4.471 -0.1026  0.1828  0.5568
26495SOL    HW181159   1.294   1.184   4.448 -0.0195  0.0644  0.4474
26495SOL    HW281160   1.438   1.191   4.403  0.4660 -1.2984  1.7115
26496SOL     OW81161   7.980   7.051   8.671  0.0883 -0.0943  0.6121
26496SOL    HW181162   7.967   6.991   8.744  0.5632  0.6165  1.2990
26496SOL    HW281163   8.073   7.044   8.650  0.0822  0.1669  0.4903
26497SOL     OW81164   4.530   2.547   7.734 -0.0332 -0.4247 -0.0638
26497SOL    HW181165   4.486   2.623   7.696  0.9298  1.0542  1.6173
26497SOL    HW281166   4.484   2.531   7.817 -0.8053 -2.3021 -0.7971
26498SOL     OW81167   8.737   3.716   1.428 -0.2230  0.3594  0.3005
26498SOL    HW181168   8.822   3.740   1.464 -0.1889  0.1657  0.3456
26498SOL    HW281169   8.756   3.680   1.342 -0.2341  0.0515  0.4249
26499SOL     OW81170   1.160   8.205   5.740 -0.2769 -0.2968 -0.2877
26499SOL    HW181171   1.175   8.278   5.680 -2.4974 -1.4117 -2.3773
26499SOL    HW281172   1.233   8.145   5.724 -0.4084 -0.1946 -1.3199
26500SOL     OW81173   4.436   8.971   5.962 -0.2401 -0.2076  0.1446
26500SOL    HW181174   4.394   8.975   5.876 -0.7150 -0.6466  0.3508
26500SOL    HW281175   4.481   8.886   5.963 -1.4017 -0.8365  0.8503
26501SOL     OW81176   8.688   6.361   7.697  0.0090  0.1005 -0.1457
26501SOL    HW181177   8.645   6.390   7.777  1.3305 -0.3424  0.7619
26501SOL    HW281178   8.705   6.441   7.648 -0.7250  0.3858  0.0530
26502SOL     OW81179   5.294   2.511   3.435  0.2672 -0.2828  0.0102
26502SOL    HW181180   5.270   2.421   3.459  1.0899 -0.1624  1.4316
26502SOL    HW281181   5.374   2.502   3.383  0.2433 -0.3963 -0.0062
26503SOL     OW81182   4.804   8.143   4.882  0.2823 -0.5210  0.0581
26503SOL    HW181183   4.767   8.094   4.808  0.7232 -0.7553 -0.0130
26503SOL    HW281184   4.737   8.140   4.950  0.3579 -1.3307  0.0970
26504SOL     OW81185   6.239   8.906   1.767 -0.0603 -0.4670  0.1919
26504SOL    HW181186   6.271   8.819   1.792 -0.6029 -1.4763 -2.3633
26504SOL    HW281187   6.146   8.892   1.747  0.4396  0.0144 -2.8998
26505SOL     OW81188   1.802   3.431   7.625 -0.4719 -0.1011  0.0698
26505SOL    HW181189   1.746   3.373   7.677 -1.6788  0.5614 -0.4413
26505SOL    HW281190   1.743   3.468   7.559  0.7137  0.1800 -0.8608
26506SOL     OW81191   0.989   3.772   7.775  0.0353 -0.3095  0.1236
26506SOL    HW181192   0.962   3.681   7.793 -1.7500 -0.2683 -1.9417
26506SOL    HW281193   0.907   3.822   7.778  0.5499  0.7118 -1.6289
26507SOL     OW81194   6.080   3.502   0.817  0.0643 -0.1517  0.0865
26507SOL    HW181195   6.022   3.542   0.882 -0.0109 -1.4958  0.8786
26507SOL    HW281196   6.167   3.532   0.841  0.0831 -0.9610  1.0765
26508SOL     OW81197   6.157   3.164   2.834  0.4304 -0.3063 -0.0313
26508SOL    HW181198   6.089   3.150   2.768 -0.7179 -0.5941  1.1615
26508SOL    HW281199   6.205   3.081   2.836  0.7223 -0.1609 -0.7688
26509SOL     OW81200   4.243   4.501   1.006  0.2906 -0.0343 -0.4054
26509SOL    HW181201   4.271   4.530   0.919 -0.8567 -1.0894 -1.1355
26509SOL    HW281202   4.315   4.445   1.036  0.9716  0.8157 -0.3903
26510SOL     OW81203   9.305   0.330   7.033 -0.3803  0.1710  0.1519
26510SOL    HW181204   9.289   0.421   7.059  0.5904 -0.2354  2.4201
26510SOL    HW281205   9.228   0.306   6.982 -1.3082  1.8469  0.6705
26511SOL     OW81206   7.313   8.263   1.114  0.7464  0.3572 -0.5117
26511SOL    HW181207   7.378   8.249   1.183  0.9561 -1.2559 -1.0066
26511SOL    HW281208   7.365   8.279   1.036  0.5166  0.9546 -0.5467
26512SOL     OW81209   2.806   4.620   6.503 -0.1683 -0.7115 -0.1125
26512SOL    HW181210   2.894   4.636   6.536 -0.9088  0.7615  1.2724
26512SOL    HW281211   2.755   4.595   6.581 -1.7841  2.0995 -0.1187
26513SOL     OW81212   7.249   8.771   9.328 -0.3592 -0.4083 -0.3991
26513SOL    HW181213   7.302   8.748   9.252  2.3073  0.1540  1.1378
26513SOL    HW281214   7.210   8.688   9.357 -0.7647 -0.7514 -1.8612
26514SOL     OW81215   7.494   6.451   2.754  0.0653 -0.2702 -0.5218
26514SOL    HW181216   7.443   6.426   2.678  0.9119 -0.6093 -0.9910
26514SOL    HW281217   7.438   6.513   2.801  0.2250  1.3563 -2.3534
26515SOL     OW81218   7.081   3.782   2.888  1.0867  0.3315  0.4740
26515SOL    HW181219   7.004   3.785   2.945 -0.9920  0.4755 -2.1443
26515SOL    HW281220   7.075   3.698   2.843  0.4768  1.6701 -2.1823
26516SOL     OW81221   4.473   1.025   1.606  0.5129  0.0385  0.3175
26516SOL    HW181222   4.393   0.976   1.626 -0.4376  0.7749 -1.4102
26516SOL    HW281223   4.504   1.055   1.692 -0.4313 -1.1987  1.1375
26517SOL     OW81224   3.901   5.592   4.393  0.3916 -0.7245  0.3496
26517SOL    HW181225   3.856   5.658   4.446  0.5628  0.8099 -1.3057
26517SOL    HW281226   3.937   5.531   4.457  0.4129  0.9124  1.9955
26518SOL     OW81227   3.162   0.352   3.597 -0.1082 -0.2359  1.0437
26518SOL    HW181228   3.094   0.301   3.640  0.2819 -1.9264 -0.2470
26518SOL    HW281229   3.226   0.287   3.567  0.3934  0.9814 -0.7169
26519SOL     OW81230   0.495   5.031   5.011  0.4564  0.0471  0.2429
26519SOL    HW181231   0.471   4.996   4.925 -1.0455 -1.9289  1.3776
26519SOL    HW281232   0.514   4.954   5.064  3.1681  1.2938  1.2638
26520SOL     OW81233   7.238   0.071   5.673  0.7663  0.4915  0.5493
26520SOL    HW181234   7.282   0.023   5.603 -1.6839  0.1312 -0.8577
26520SOL    HW281235   7.225   0.006   5.742  1.1924  0.2317  0.3833
26521SOL     OW81236   1.330   9.243   7.160 -0.0447  0.2828  0.1599
26521SOL    HW181237   1.285   9.325   7.180  1.7104  1.4024 -0.2638
26521SOL    HW281238   1.271   9.198   7.099 -1.1287  1.1194  0.5503
26522SOL     OW81239   9.424   5.878   9.647  0.0874 -0.1054 -0.1874
26522SOL    HW181240   9.406   5.950   9.586 -0.4485 -0.8869 -0.9858
26522SOL    HW281241   9.444   5.921   9.730 -1.3969  0.9332 -0.3265
26523SOL     OW81242   5.039   1.242   5.786  0.0767 -0.8420 -0.7245
26523SOL    HW181243   5.069   1.331   5.803  0.7610 -1.1926  0.0035
26523SOL    HW281244   4.945   1.245   5.800  0.3021 -0.5905  1.0841
26524SOL     OW81245   3.319   8.691   0.503  0.2956 -0.0141  0.1470
26524SOL    HW181246   3.387   8.651   0.557  0.2200 -0.6572 -0.2185
26524SOL    HW281247   3.365   8.720   0.424  0.5085  1.4332  0.7715
26525SOL     OW81248   6.878   1.168   1.547 -0.4821 -0.1027  0.1127
26525SOL    HW181249   6.844   1.130   1.627  1.3826 -0.4480  0.7902
26525SOL    HW281250   6.862   1.262   1.556  0.3623 -0.0453  1.2556
26526SOL     OW81251   7.680   2.388   0.140 -0.4283 -0.5325  0.1567
26526SOL    HW181252   7.680   2.397   0.045  0.2545 -0.0764  0.1952
26526SOL    HW281253   7.592   2.358   0.161 -0.6574 -0.4086 -0.5983
26527SOL     OW81254   1.764   1.778   9.514  0.7636 -0.2395 -0.3540
26527SOL    HW181255   1.809   1.829   9.581  2.3080  0.5424 -1.9008
26527SOL    HW281256   1.733   1.700   9.560  1.4199  0.4509  1.3327
26528SOL     OW81257   3.905   4.645   8.901 -0.1795 -0.2451  0.1744
26528SOL    HW181258   3.827   4.700   8.886 -0.7304 -0.9973  0.2478
26528SOL    HW281259   3.940   4.676   8.984  0.2663  0.8637 -0.3983
26529SOL     OW81260   3.126   3.033   2.680  0.5441 -0.3289  0.4383
26529SOL    HW181261   3.159   3.064   2.765 -0.2785  0.5363  0.4605
26529SOL    HW281262   3.144   2.939   2.680  1.5475 -0.1517  1.1052
26530SOL     OW81263   3.917   3.493   0.051 -0.3782 -0.0899  0.5303
26530SOL    HW181264   3.865   3.478  -0.028 -1.3007  0.8909  0.9198
26530SOL    HW281265   3.998   3.446   0.036  0.0020  1.0908 -1.5663
26531SOL     OW81266   6.107   1.065   7.109  0.2207 -0.3977 -0.2821
26531SOL    HW181267   6.015   1.037   7.113 -0.7455  1.7872 -3.3602
26531SOL    HW281268   6.149   1.000   7.052  0.3170 -0.7759  0.2172
26532SOL     OW81269   3.980   6.935   5.269  0.3663  0.7685 -0.6442
26532SOL    HW181270   4.048   6.910   5.331 -1.4448  0.1643  1.1986
26532SOL    HW281271   3.977   7.031   5.273  0.6982  0.7636 -0.2942
26533SOL     OW81272   4.108   8.398   0.367 -0.0248  0.3117 -0.1269
26533SOL    HW181273   4.168   8.349   0.424  0.1343 -1.5215 -1.7629
26533SOL    HW281274   4.026   8.399   0.415  0.4772  0.0795  0.7627
26534SOL     OW81275   9.111   1.012   3.599  0.7185  0.0895  0.2341
26534SOL    HW181276   9.196   1.006   3.641  0.7475 -0.1147  0.1469
26534SOL    HW281277   9.051   0.967   3.659  0.7865 -0.3351 -0.0149
26535SOL     OW81278   6.577   6.586   5.497 -0.1891 -0.2900  0.1783
26535SOL    HW181279   6.552   6.643   5.570  0.9604 -1.0557  1.1923
26535SOL    HW281280   6.664   6.615   5.472 -0.8560  0.4531 -1.4200
26536SOL     OW81281   7.391   0.376   2.023  0.2690  0.2160  0.1985
26536SOL    HW181282   7.323   0.323   1.982  2.5625 -1.3099 -1.8852
26536SOL    HW281283   7.407   0.334   2.108  0.9194 -1.5346 -0.7467
26537SOL     OW81284   1.507   5.476   5.406  0.6615  0.4166 -0.0749
26537SOL    HW181285   1.536   5.562   5.378  1.0531  0.7869  1.3787
26537SOL    HW281286   1.444   5.493   5.477  0.3884 -0.4788 -0.0792
26538SOL     OW81287   4.997   8.631   6.130  0.2745  0.5466  0.2955
26538SOL    HW181288   5.038   8.675   6.056  0.7259  0.6812  0.6211
26538SOL    HW281289   5.034   8.674   6.207  0.3044 -0.0318  0.6066
26539SOL     OW81290   5.806   6.005   1.120 -0.3565 -0.1154  0.7350
26539SOL    HW181291   5.873   6.030   1.057 -1.3136  0.3316 -0.1228
26539SOL    HW281292   5.796   5.910   1.108 -0.4542 -0.0504  0.2849
26540SOL     OW81293   7.104   1.961   3.869  0.0467  0.9003 -0.2769
26540SOL    HW181294   7.022   1.922   3.838  0.4208  0.8075 -1.1829
26540SOL    HW281295   7.145   1.997   3.790  0.6326  1.4143  0.2464
26541SOL     OW81296   7.513   5.378   7.944  0.0217  0.0408  0.5004
26541SOL    HW181297   7.571   5.302   7.943  0.6982  0.5454 -0.9605
26541SOL    HW281298   7.553   5.437   8.008  1.2792  0.4577 -0.6058
26542SOL     OW81299   7.506   4.786   2.697  0.4158 -0.2948 -0.6673
26542SOL    HW181300   7.520   4.753   2.608  0.9973 -0.3837 -0.5456
26542SOL    HW281301   7.512   4.881   2.689  0.5860 -0.3090 -0.7005
26543SOL     OW81302   1.862   2.271   8.172 -0.0124  0.4538 -0.0973
26543SOL    HW181303   1.909   2.188   8.173  0.2589  0.5718 -1.3707
26543SOL    HW281304   1.901   2.322   8.243  1.6425  0.4547 -0.9529
26544SOL     OW81305   9.471   7.576   2.394 -0.7095 -0.8661 -0.2423
26544SOL    HW181306   9.498   7.547   2.482 -2.1769 -2.2040 -0.1831
26544SOL    HW281307   9.461   7.670   2.402 -0.5043 -0.9233  0.9355
26545SOL     OW81308   8.671   3.532   5.466  0.0774 -0.1245 -0.5780
26545SOL    HW181309   8.636   3.605   5.516 -2.2431 -2.1799  0.9935
26545SOL    HW281310   8.753   3.566   5.429 -0.1982  2.7904  1.1766
26546SOL     OW81311   7.293   6.007   6.127  0.0338  0.3459  0.1288
26546SOL    HW181312   7.365   5.946   6.144 -0.5201 -0.0714  1.0873
26546SOL    HW281313   7.235   5.960   6.067  0.2517  0.4282 -0.1420
26547SOL     OW81314   4.979   8.320   8.204  0.1310  0.6007 -0.1607
26547SOL    HW181315   4.999   8.413   8.212 -2.6192  1.3489 -0.9490
26547SOL    HW281316   4.887   8.312   8.231  0.3702 -1.9577  0.2267
26548SOL     OW81317   8.893   5.374   2.361 -0.6441  0.0656 -0.3054
26548SOL    HW181318   8.955   5.309   2.395 -0.2181  0.2870 -0.6537
26548SOL    HW281319   8.831   5.388   2.433  0.1426  0.3945  0.3181
26549SOL     OW81320   7.622   4.736   9.328  1.3808  0.3482  0.3980
26549SOL    HW181321   7.695   4.674   9.335 -0.3964 -1.7501  1.2885
26549SOL    HW281322   7.565   4.714   9.401 -0.7072  1.1741 -0.9116
26550SOL     OW81323   2.917   6.520   3.842 -0.5318 -0.1639 -0.1537
26550SOL    HW181324   2.856   6.448   3.858 -1.6574 -0.7342 -5.3942
26550SOL    HW281325   3.001   6.488   3.875 -1.8051 -1.9893  1.5454
26551SOL     OW81326   0.079   4.819   7.755  0.1869  0.4351 -0.7581
26551SOL    HW181327   0.088   4.787   7.665 -1.2565  0.9944 -1.1283
26551SOL    HW281328   0.083   4.740   7.809 -1.0883 -0.1567 -1.4831
26552SOL     OW81329   5.144   2.413   1.667  0.2264 -0.1414  0.3004
26552SOL    HW181330   5.196   2.338   1.697  0.8315  1.4118  3.5437
26552SOL    HW281331   5.205   2.464   1.614  0.6510 -0.5607  0.3757
26553SOL     OW81332   7.712   1.403   0.719 -0.3557 -0.8970 -0.1983
26553SOL    HW181333   7.720   1.317   0.759 -2.5402 -1.0638 -0.0282
26553SOL    HW281334   7.622   1.430   0.737 -0.0208  0.9968 -1.1070
26554SOL     OW81335   7.236   2.454   4.906  0.4620 -0.1760 -0.8219
26554SOL    HW181336   7.324   2.473   4.875 -0.5929  0.4997 -3.7606
26554SOL    HW281337   7.202   2.539   4.935  0.3442 -0.1791 -0.9489
26555SOL     OW81338   1.770   6.390   9.626 -0.3740  0.8019 -0.0861
26555SOL    HW181339   1.802   6.316   9.678 -0.7670 -0.6493 -1.8076
26555SOL    HW281340   1.675   6.387   9.636 -0.5042  0.1369 -1.2937
26556SOL     OW81341   1.862   1.413   2.909 -0.2213  0.2382  0.0827
26556SOL    HW181342   1.879   1.497   2.950  0.6737 -0.1003  0.4304
26556SOL    HW281343   1.835   1.356   2.980 -2.9897  0.7595 -0.4566
26557SOL     OW81344   2.349   9.351   5.435  0.3769  0.1627 -0.3614
26557SOL    HW181345   2.412   9.372   5.366 -0.9077  1.5943 -1.1766
26557SOL    HW281346   2.276   9.311   5.389  0.0338 -0.0554  0.3589
26558SOL     OW81347   6.736   8.261   7.181  0.1193 -0.3089 -0.0010
26558SOL    HW181348   6.672   8.326   7.209  0.5154 -0.4259  1.2396
26558SOL    HW281349   6.795   8.252   7.256  2.4232  0.7845 -1.5788
26559SOL     OW81350   9.421   7.896   3.790 -0.1240  0.5978 -0.6087
26559SOL    HW181351   9.462   7.848   3.863 -1.3489  0.4938  0.0383
26559SOL    HW281352   9.416   7.986   3.821 -1.1637  0.4495 -0.3193
26560SOL     OW81353   8.907   6.973   4.693  0.6528  0.6123 -0.1721
26560SOL    HW181354   8.901   6.918   4.771 -0.2360  1.3265  0.2856
26560SOL    HW281355   8.999   6.998   4.689  0.6783  0.7261  0.7830
26561SOL     OW81356   2.693   4.108   1.308  0.2757 -0.4707  0.7804
26561SOL    HW181357   2.639   4.118   1.387 -0.5133  0.9760  0.0995
26561SOL    HW281358   2.747   4.187   1.306  0.2545 -0.4710 -0.1332
26562SOL     OW81359   5.164   1.948   1.636  0.8772 -0.3269  0.3625
26562SOL    HW181360   5.199   1.890   1.569  0.5411 -1.0987  0.8503
26562SOL    HW281361   5.070   1.950   1.619  0.9872  0.8417 -0.2396
26563SOL     OW81362   7.852   9.455   4.783  0.4967  0.1998  0.1032
26563SOL    HW181363   7.868   9.548   4.765  0.8332  0.9243  3.4991
26563SOL    HW281364   7.865   9.412   4.699  0.1126  3.2265 -1.6508
26564SOL     OW81365   5.877   6.939   6.102 -0.0064  0.1448 -0.0416
26564SOL    HW181366   5.884   6.958   6.008  0.0370 -3.9979 -1.0494
26564SOL    HW281367   5.963   6.902   6.125 -1.0429 -1.9588  0.7240
26565SOL     OW81368   9.544   3.053   4.512  0.0644  0.4523 -0.4326
26565SOL    HW181369   9.495   2.985   4.465  0.8383  0.0620 -0.6952
26565SOL    HW281370   9.476   3.108   4.551 -0.6258 -1.7361  1.7085
26566SOL     OW81371   6.851   0.420   5.676 -0.0540 -0.9858  0.6298
26566SOL    HW181372   6.797   0.373   5.613  0.1018 -0.7927  0.3507
26566SOL    HW281373   6.793   0.488   5.710 -0.5366 -1.8543  1.6245
26567SOL     OW81374   1.141   2.791   4.650 -0.2114 -0.0200  0.0703
26567SOL    HW181375   1.087   2.742   4.588 -2.0703  1.3452  0.5143
26567SOL    HW281376   1.173   2.866   4.601  2.4640 -1.4476 -0.5515
26568SOL     OW81377   7.201   4.868   4.732  0.6889 -0.5525 -0.0389
26568SOL    HW181378   7.231   4.929   4.799 -1.0455 -0.8561  1.0559
26568SOL    HW281379   7.196   4.783   4.776 -4.4635 -0.1138  0.8985
26569SOL     OW81380   5.253   8.271   5.215  0.4326 -0.3183  0.3778
26569SOL    HW181381   5.161   8.244   5.218  0.8454 -1.8374  0.6448
26569SOL    HW281382   5.300   8.190   5.195  1.4249  1.0874 -4.0214
26570SOL     OW81383   7.877   5.955   6.926  0.8378 -0.0247  0.1726
26570SOL    HW181384   7.927   5.949   7.007  0.6692 -2.1244  0.1888
26570SOL    HW281385   7.795   5.999   6.951  0.2955 -1.6455  1.4424
26571SOL     OW81386   7.048   8.053   7.096  0.1227  0.6707  0.0422
26571SOL    HW181387   6.996   8.041   7.176  1.4711  2.0773  1.1984
26571SOL    HW281388   6.987   8.033   7.025 -1.4755  0.5524  1.3749
26572SOL     OW81389   5.087   5.218   0.374 -0.0645 -0.3012 -0.5002
26572SOL    HW181390   5.071   5.144   0.432 -1.7894  0.0519 -0.4653
26572SOL    HW281391   5.031   5.202   0.298 -0.3228  0.8582 -0.5778
26573SOL     OW81392   0.646   5.561   5.151 -0.2461  0.4227  0.3183
26573SOL    HW181393   0.585   5.500   5.108  0.2050  0.0638  0.1867
26573SOL    HW281394   0.601   5.645   5.146 -0.9525  0.0822  0.6505
26574SOL     OW81395   4.843   8.722   9.471 -0.1324 -0.5782 -0.6498
26574SOL    HW181396   4.855   8.628   9.456  0.5352 -0.5858 -0.1263
26574SOL    HW281397   4.790   8.728   9.550  0.8894 -0.5300  0.0640
26575SOL     OW81398   0.893   2.530   7.743 -0.1882 -0.6220  0.1294
26575SOL    HW181399   0.804   2.561   7.752 -1.0084 -2.5466 -0.7481
26575SOL    HW281400   0.947   2.597   7.785 -1.9793  0.8361  0.1933
26576SOL     OW81401   3.055   5.567   7.590  0.1735  0.4723 -0.1437
26576SOL    HW181402   3.007   5.636   7.545  1.9565  0.4921 -2.1752
26576SOL    HW281403   3.096   5.611   7.665 -1.7926  0.7152  0.8597
26577SOL     OW81404   0.398   2.351   6.598  0.1069 -0.3961 -0.4276
26577SOL    HW181405   0.346   2.419   6.555  2.0085  0.8438 -0.9071
26577SOL    HW281406   0.489   2.375   6.578  0.9508 -1.4437  1.8263
26578SOL     OW81407   5.669   1.225   6.296  0.5977  0.2640 -0.2017
26578SOL    HW181408   5.604   1.177   6.246  0.6219  0.8704 -0.8219
26578SOL    HW281409   5.647   1.317   6.283  0.9155  0.4427  0.4794
26579SOL     OW81410   8.373   8.601   1.969  0.2743 -0.2101 -0.2552
26579SOL    HW181411   8.291   8.552   1.977 -0.0583  0.1827 -1.1514
26579SOL    HW281412   8.433   8.556   2.029 -0.1861 -1.3623 -0.6222
26580SOL     OW81413   1.965   6.631   5.571 -0.6279 -0.3151 -0.7203
26580SOL    HW181414   2.030   6.673   5.514 -0.0168  1.1405  0.9747
26580SOL    HW281415   2.016   6.570   5.625 -0.7883  0.2314  0.0542
26581SOL     OW81416   4.447   6.848   8.921 -0.1546 -0.1603  0.6696
26581SOL    HW181417   4.407   6.790   8.985 -1.3897  0.3740  0.4157
26581SOL    HW281418   4.382   6.855   8.851 -0.2351  1.8339  0.8816
26582SOL     OW81419   0.552   2.846   3.905 -0.0641 -0.0052  0.1898
26582SOL    HW181420   0.500   2.767   3.915 -0.3695 -0.1445 -2.0675
26582SOL    HW281421   0.642   2.815   3.895 -0.1377 -0.0639 -0.3299
26583SOL     OW81422   6.693   8.093   4.742 -0.4893 -0.1999  0.2144
26583SOL    HW181423   6.600   8.074   4.738 -0.2536 -1.1758 -2.3201
26583SOL    HW281424   6.703   8.177   4.698 -0.0571 -0.7513 -0.7747
26584SOL     OW81425   6.261   7.252   2.647  0.0321 -0.2213  0.5422
26584SOL    HW181426   6.209   7.197   2.589  0.4020 -1.3747  1.2601
26584SOL    HW281427   6.294   7.322   2.591  1.2817 -1.8942 -0.9355
26585SOL     OW81428   2.611   1.251   7.570  0.1206  0.2291  0.2647
26585SOL    HW181429   2.633   1.234   7.662  1.0479 -1.5555 -0.2508
26585SOL    HW281430   2.523   1.215   7.560 -0.1984  0.9104  0.5775
26586SOL     OW81431   3.436   4.076   2.350 -0.2107  0.2745 -0.3687
26586SOL    HW181432   3.480   4.077   2.435 -0.1961  2.2269 -0.3559
26586SOL    HW281433   3.427   3.983   2.329 -0.3201 -0.2534  1.8054
26587SOL     OW81434   4.378   6.763   2.697  0.0030  0.3799  0.4235
26587SOL    HW181435   4.429   6.727   2.625 -1.5414 -0.1850 -0.4232
26587SOL    HW281436   4.371   6.857   2.677  1.5120  0.6780  1.0881
26588SOL     OW81437   8.432   2.899   0.205 -0.5810 -0.4549  0.0364
26588SOL    HW181438   8.376   2.834   0.247 -0.7748 -0.2997  0.0183
26588SOL    HW281439   8.485   2.848   0.143 -0.1368 -0.7194  0.6194
26589SOL     OW81440   5.174   1.832   6.949  0.0127  0.0763 -0.2863
26589SOL    HW181441   5.096   1.876   6.914  1.0251  1.7927 -0.4579
26589SOL    HW281442   5.190   1.761   6.887 -1.6690 -0.6223  0.0135
26590SOL     OW81443   3.025   6.855   0.183  0.0518  0.0781  0.0084
26590SOL    HW181444   3.084   6.784   0.206  0.6142  1.1942  2.2700
26590SOL    HW281445   3.061   6.890   0.101  1.4765 -0.3965  0.4034
26591SOL     OW81446   2.516   3.930   6.269 -0.1031 -0.2862  0.1294
26591SOL    HW181447   2.484   3.960   6.355  3.6336 -0.6535  1.8211
26591SOL    HW281448   2.442   3.946   6.210 -2.8981 -0.0580  3.3653
26592SOL     OW81449   6.617   4.851   7.603 -0.0877  0.1451 -0.0110
26592SOL    HW181450   6.559   4.915   7.643 -1.2926  0.7273 -2.4517
26592SOL    HW281451   6.691   4.902   7.571  1.5373 -0.4947  2.4404
26593SOL     OW81452   6.240   6.676   5.117  0.4505  0.1031 -0.4489
26593SOL    HW181453   6.261   6.726   5.196 -0.3235  0.8292 -0.6914
26593SOL    HW281454   6.194   6.599   5.150  0.1373  0.4001 -0.1832
26594SOL     OW81455   0.946   9.667   9.100 -0.1285 -0.5109  0.8518
26594SOL    HW181456   0.901   9.730   9.045  1.6414  1.1875  1.2275
26594SOL    HW281457   1.025   9.645   9.051 -0.2658 -1.7373  1.1556
26595SOL     OW81458   1.771   3.239   6.843  0.8032 -0.5391  0.0477
26595SOL    HW181459   1.797   3.157   6.886  1.7408 -0.6448 -0.6811
26595SOL    HW281460   1.695   3.268   6.892  2.2137 -0.3096  2.2426
26596SOL     OW81461   2.612   7.970   8.846 -0.1559  0.3642 -0.2362
26596SOL    HW181462   2.530   7.922   8.860 -0.4451  0.8080 -0.3795
26596SOL    HW281463   2.616   7.983   8.751  0.1651  0.2000 -0.2468
26597SOL     OW81464   0.390   5.298   8.675 -0.2297  0.0129 -0.4694
26597SOL    HW181465   0.426   5.312   8.587 -1.4543 -0.0428 -0.9892
26597SOL    HW281466   0.417   5.375   8.724  0.0558  0.2726 -1.0202
26598SOL     OW81467   1.352   7.604   0.536 -1.0179 -0.0085 -0.1786
26598SOL    HW181468   1.362   7.668   0.466 -0.8393 -0.6750 -0.7681
26598SOL    HW281469   1.426   7.619   0.594  0.1360 -0.9522 -1.3478
26599SOL     OW81470   2.301   8.690   2.546  0.1776 -0.2697 -0.2687
26599SOL    HW181471   2.376   8.749   2.553 -0.1551 -0.0129  1.7967
26599SOL    HW281472   2.239   8.737   2.490  0.4177  0.7933  0.3374
26600SOL     OW81473   9.569   8.013   6.997  0.3852  0.5268 -0.3030
26600SOL    HW181474   9.563   8.082   6.932 -1.9529  0.5737 -0.1415
26600SOL    HW281475   9.529   7.937   6.955  1.3718 -0.2506  0.1258
26601SOL     OW81476   4.827   2.783   0.904 -0.4553 -0.1246  0.2509
26601SOL    HW181477   4.839   2.705   0.851 -0.5015  0.0006  0.0530
26601SOL    HW281478   4.772   2.755   0.977  1.1196 -0.7352  1.2460
26602SOL     OW81479   1.253   8.158   1.904  0.2421 -0.0097  0.2741
26602SOL    HW181480   1.215   8.243   1.882  0.9534  0.7981  2.0228
26602SOL    HW281481   1.180   8.107   1.938  0.1556  0.5803  1.0029
26603SOL     OW81482   2.518   2.036   3.230 -0.5643  0.0929 -0.6100
26603SOL    HW181483   2.425   2.031   3.207 -0.4911 -0.6673 -0.7466
26603SOL    HW281484   2.519   2.046   3.325 -0.7958  0.6740 -0.6636
26604SOL     OW81485   8.807   6.332   8.140  0.0277  0.0954  0.2895
26604SOL    HW181486   8.838   6.385   8.214 -2.3217  1.2979  0.5233
26604SOL    HW281487   8.740   6.387   8.098 -0.3512 -1.5075 -1.3240
26605SOL     OW81488   7.876   0.455   7.463 -0.1193 -0.3107  0.7903
26605SOL    HW181489   7.907   0.435   7.374 -0.8769 -0.4089  0.5388
26605SOL    HW281490   7.785   0.482   7.450 -0.9118 -2.3148  1.7396
26606SOL     OW81491   3.813   6.995   7.753 -0.0033 -0.0426  0.5588
26606SOL    HW181492   3.842   7.051   7.681  0.6178 -0.8956  0.1394
26606SOL    HW281493   3.721   7.018   7.764  0.2515  1.1262  0.4576
26607SOL     OW81494   2.301   9.396   3.770 -0.0044 -1.0280 -0.6454
26607SOL    HW181495   2.261   9.310   3.755  0.7543 -1.1271 -2.2737
26607SOL    HW281496   2.340   9.420   3.686  1.8229 -0.1275  0.3996
26608SOL     OW81497   4.985   0.596   9.304 -0.0699 -0.0801  0.1213
26608SOL    HW181498   5.023   0.538   9.238 -1.8528 -0.8568 -0.2830
26608SOL    HW281499   5.031   0.574   9.385 -0.5189 -1.8761 -0.0849
26609SOL     OW81500   9.117   8.906   5.623  0.1119  0.1609  0.5788
26609SOL    HW181501   9.131   8.823   5.670  0.9248  0.5567  1.0491
26609SOL    HW281502   9.022   8.908   5.607  0.1511 -1.1264  0.0453
26610SOL     OW81503   4.611   0.729   9.627  0.1607 -0.2265  0.2609
26610SOL    HW181504   4.573   0.760   9.709 -0.7331  0.4302 -0.3854
26610SOL    HW281505   4.705   0.743   9.639  0.0376 -0.0198  1.1235
26611SOL     OW81506   1.520   7.904   8.791 -0.5322  0.4573  0.3551
26611SOL    HW181507   1.541   7.954   8.870 -3.8271 -0.3111  1.8857
26611SOL    HW281508   1.435   7.864   8.810 -0.2168 -1.9592 -2.5898
26612SOL     OW81509   7.479   3.910   0.492 -0.1718  0.1276 -0.4916
26612SOL    HW181510   7.498   4.003   0.484 -1.4688  0.5127  0.5144
26612SOL    HW281511   7.409   3.894   0.428 -1.8671  0.4960  1.1674
26613SOL     OW81512   3.649   2.705   8.469 -0.0684  0.0108 -0.3784
26613SOL    HW181513   3.559   2.673   8.462 -0.1852  0.5929 -1.8505
26613SOL    HW281514   3.685   2.696   8.381  1.1033  0.4349  0.0283
26614SOL     OW81515   7.307   7.918   9.362 -0.0934 -0.4510  0.0501
26614SOL    HW181516   7.387   7.969   9.356 -0.1890 -0.4490 -1.5676
26614SOL    HW281517   7.305   7.866   9.282 -1.8577 -0.2418 -0.0835
26615SOL     OW81518   9.334   8.436   6.371  0.0056  0.1995  0.3827
26615SOL    HW181519   9.328   8.439   6.275 -0.1343  0.3783  0.3971
26615SOL    HW281520   9.329   8.527   6.399  1.0509  0.2219  0.5089
26616SOL     OW81521   1.701   9.662   7.371  0.9330  0.1064  0.2678
26616SOL    HW181522   1.777   9.720   7.362 -0.6306  1.9995 -2.3743
26616SOL    HW281523   1.708   9.602   7.297 -0.0634  0.2894  0.0075
26617SOL     OW81524   4.710   9.229   9.494  0.3048  0.0678  0.2289
26617SOL    HW181525   4.677   9.314   9.523 -1.2039 -0.2215 -0.5296
26617SOL    HW281526   4.661   9.165   9.545  0.5775 -0.3724 -0.0545
26618SOL     OW81527   8.637   5.262   5.935 -0.7633 -0.1882  0.9880
26618SOL    HW181528   8.549   5.283   5.902 -0.7859 -0.4887  0.8482
26618SOL    HW281529   8.641   5.166   5.931  0.0840 -0.1281 -0.3652
26619SOL     OW81530   0.529   6.881   1.733 -0.2105 -0.0140 -0.5987
26619SOL    HW181531   0.440   6.913   1.746 -0.0065  0.1096  0.6435
26619SOL    HW281532   0.585   6.948   1.772  0.3591 -0.6242 -0.3332
26620SOL     OW81533   5.160   0.775   0.522  0.5280  0.0199  0.2871
26620SOL    HW181534   5.205   0.696   0.494  1.6561  0.2618  1.3346
26620SOL    HW281535   5.125   0.754   0.609  1.7520  0.9600  1.0510
26621SOL     OW81536   2.672   1.700   7.783  0.0218 -0.4597  0.2831
26621SOL    HW181537   2.625   1.621   7.756  2.6476 -1.5272 -1.5341
26621SOL    HW281538   2.732   1.669   7.851 -0.1439  0.3870  0.8306
26622SOL     OW81539   3.825   9.241   6.218  0.0715 -0.1826  0.1240
26622SOL    HW181540   3.834   9.248   6.123  1.3265  1.4204  0.3322
26622SOL    HW281541   3.828   9.146   6.235 -2.3500 -0.6624 -1.5717
26623SOL     OW81542   1.782   8.873   8.307  0.3395  0.3138 -0.3180
26623SOL    HW181543   1.775   8.949   8.365 -1.5882 -0.0310 -0.0250
26623SOL    HW281544   1.867   8.835   8.327 -0.1123  0.4051  2.0605
26624SOL     OW81545   7.506   5.261   2.500 -0.1516  0.1752 -0.2772
26624SOL    HW181546   7.485   5.239   2.409  0.8282  0.8586 -0.6898
26624SOL    HW281547   7.589   5.307   2.494  0.5252 -0.8245  1.1007
26625SOL     OW81548   3.732   8.737   3.975  0.2176  0.2071 -0.1305
26625SOL    HW181549   3.779   8.820   3.970 -1.1039  1.0090  0.3558
26625SOL    HW281550   3.781   8.686   4.040  1.2304  0.4584 -0.6750
26626SOL     OW81551   5.401   0.562   3.891  0.8106 -0.3923 -0.4540
26626SOL    HW181552   5.426   0.603   3.974 -0.3785 -1.0422  0.2576
26626SOL    HW281553   5.468   0.590   3.829  0.1303  2.5502 -0.0079
26627SOL     OW81554   5.857   6.059   0.224 -0.4270 -0.3724  0.1429
26627SOL    HW181555   5.844   6.151   0.200  1.5537 -0.8918 -3.4812
26627SOL    HW281556   5.780   6.014   0.189  0.7596 -0.6348 -2.2642
26628SOL     OW81557   8.224   2.250   4.215  0.2174 -0.3198  0.2046
26628SOL    HW181558   8.315   2.252   4.243  0.5147  1.7297 -0.7045
26628SOL    HW281559   8.179   2.309   4.275 -0.2189 -0.1906 -0.2392
26629SOL     OW81560   5.566   4.020   0.019 -0.1782  0.0184  0.4908
26629SOL    HW181561   5.485   4.056  -0.016 -1.0697  0.3361  2.7378
26629SOL    HW281562   5.635   4.060  -0.034 -1.2834  2.9277  1.0635
26630SOL     OW81563   1.218   2.203   1.997 -0.6642 -0.3149  0.2156
26630SOL    HW181564   1.131   2.167   1.976 -0.7425 -0.7633  1.2610
26630SOL    HW281565   1.209   2.297   1.979 -2.0955  0.0487  2.4300
26631SOL     OW81566   4.449   1.973   8.066  0.0524  0.2175  0.4016
26631SOL    HW181567   4.487   2.035   8.128 -1.8196 -0.1358  2.0284
26631SOL    HW281568   4.465   2.011   7.980 -0.6663  2.7907  1.3042
26632SOL     OW81569   4.216   2.191   8.939  0.1422 -0.0486 -0.2556
26632SOL    HW181570   4.150   2.167   9.004  0.8099  0.0148  0.4643
26632SOL    HW281571   4.275   2.115   8.935  0.0334 -0.1078 -0.8939
26633SOL     OW81572   0.014   0.668   3.530  0.0845 -0.0232 -0.0466
26633SOL    HW181573   0.087   0.637   3.477  0.1342  0.9710 -0.5915
26633SOL    HW281574  -0.047   0.594   3.533 -0.2652  0.1208 -2.1399
26634SOL     OW81575   4.904   7.383   7.911 -0.0429 -0.6737 -0.1792
26634SOL    HW181576   4.858   7.465   7.896  1.8833  0.4417 -0.2943
26634SOL    HW281577   4.867   7.350   7.993 -1.4146 -0.1465 -0.5497
26635SOL     OW81578   5.302   2.553   7.439 -0.1584  0.0666 -0.1935
26635SOL    HW181579   5.308   2.509   7.354  3.2134 -0.0339 -0.0642
26635SOL    HW281580   5.311   2.646   7.418  0.6918  0.0402  0.0135
26636SOL     OW81581   7.888   9.469   3.426 -0.0639  0.0854 -0.3232
26636SOL    HW181582   7.802   9.503   3.451  0.8717  2.3582  0.0520
26636SOL    HW281583   7.950   9.528   3.469  1.6793  0.0782 -2.6787
26637SOL     OW81584   3.380   6.668   6.001  0.3460  0.4427 -0.5221
26637SOL    HW181585   3.340   6.735   5.946 -1.6432  0.0037  0.2831
26637SOL    HW281586   3.472   6.667   5.975 -0.2780  1.0103 -3.0194
26638SOL     OW81587   5.348   7.762   1.493  0.3642  0.3499  0.1667
26638SOL    HW181588   5.409   7.811   1.439  0.3120 -0.2820 -0.4901
26638SOL    HW281589   5.283   7.826   1.521  0.0520  0.5810 -1.0283
26639SOL     OW81590   7.728   7.596   6.241  0.2103  0.0868 -0.2814
26639SOL    HW181591   7.732   7.508   6.206 -0.9755 -0.8227  1.6934
26639SOL    HW281592   7.696   7.650   6.169 -1.7493 -1.5892 -0.7361
26640SOL     OW81593   9.510   7.627   6.247  0.4551  0.0266  0.1154
26640SOL    HW181594   9.574   7.639   6.317  0.8104 -0.0627 -0.1969
26640SOL    HW281595   9.440   7.575   6.288  1.2543 -1.1359  0.0545
26641SOL     OW81596   0.424   0.940   4.347 -0.3762  0.6637 -0.4588
26641SOL    HW181597   0.396   0.972   4.261  0.1833 -0.6851 -1.1711
26641SOL    HW281598   0.430   0.845   4.336  3.0761  0.6906 -0.0071
26642SOL     OW81599   4.625   2.248   8.839 -0.1679  0.3688 -0.2570
26642SOL    HW181600   4.586   2.279   8.757  0.0358  1.0651 -0.0986
26642SOL    HW281601   4.569   2.285   8.908  0.0921  0.4091 -0.0653
26643SOL     OW81602   5.336   8.241   8.839 -0.1208  0.0803  0.7163
26643SOL    HW181603   5.303   8.307   8.778  0.7205  0.0288  0.1978
26643SOL    HW281604   5.359   8.166   8.784  0.4345 -0.0498  1.1183
26644SOL     OW81605   3.940   9.192   7.858 -0.1257 -0.3192 -0.3882
26644SOL    HW181606   3.948   9.286   7.849 -0.0162 -0.0737  1.7314
26644SOL    HW281607   3.851   9.172   7.829 -0.7514  0.7004  0.7598
26645SOL     OW81608   7.765   0.964   5.674 -0.0483 -0.1639 -0.4317
26645SOL    HW181609   7.722   1.048   5.684 -0.8924 -0.6311 -0.0979
26645SOL    HW281610   7.744   0.936   5.585 -1.1088 -0.7570 -0.0041
26646SOL     OW81611   3.514   2.425   0.294 -0.3910 -0.8873  0.4196
26646SOL    HW181612   3.530   2.444   0.387 -0.2475  1.6757 -0.0656
26646SOL    HW281613   3.601   2.423   0.254 -0.5053 -0.9645  0.1737
26647SOL     OW81614   1.573   7.610   1.632  0.8914  0.1672  0.3141
26647SOL    HW181615   1.510   7.538   1.626  0.6755  0.4129 -0.5174
26647SOL    HW281616   1.604   7.622   1.542  1.2017  0.8649  0.5072
26648SOL     OW81617   6.682   0.847   2.294  0.0422  0.4564 -0.0311
26648SOL    HW181618   6.723   0.907   2.356  0.0418  0.5860 -0.1558
26648SOL    HW281619   6.756   0.808   2.246  0.0330  0.4892 -0.0716
26649SOL     OW81620   2.175   3.925   2.875  0.5336  0.4954  0.4295
26649SOL    HW181621   2.149   3.858   2.939  2.5283 -0.7621  0.0174
26649SOL    HW281622   2.271   3.925   2.878  0.6061  2.4056 -0.5782
26650SOL     OW81623   0.456   0.521   3.846 -0.6219 -0.2213 -0.4832
26650SOL    HW181624   0.378   0.574   3.829 -0.7099 -0.5086 -1.0073
26650SOL    HW281625   0.504   0.570   3.913 -1.3856 -0.1846  0.0455
26651SOL     OW81626   5.596   5.670   0.870 -0.0209 -0.3445 -0.1369
26651SOL    HW181627   5.500   5.672   0.862  0.0259  1.8254 -0.7370
26651SOL    HW281628   5.612   5.673   0.964 -0.5669  1.4354 -0.0677
26652SOL     OW81629   4.245   4.606   1.863 -0.3211  0.4066 -0.5884
26652SOL    HW181630   4.165   4.643   1.825  0.0097 -0.5326 -2.3156
26652SOL    HW281631   4.298   4.582   1.787  0.2854 -1.8633  0.4791
26653SOL     OW81632   0.696   4.295   7.646  0.3755 -0.0385  0.7932
26653SOL    HW181633   0.667   4.294   7.738  0.7394 -1.0171  0.9106
26653SOL    HW281634   0.629   4.345   7.600  0.8853  1.6894  1.8057
26654SOL     OW81635   3.820   6.206   9.150  0.1298 -0.1772 -0.1076
26654SOL    HW181636   3.831   6.139   9.082 -0.2746 -0.2038 -0.1537
26654SOL    HW281637   3.868   6.172   9.225  2.1272  0.6825 -0.9155
26655SOL     OW81638   1.088   4.420   2.054 -0.3326  1.1504 -0.5693
26655SOL    HW181639   1.040   4.385   1.979  0.3121  2.0469 -1.4286
26655SOL    HW281640   1.065   4.513   2.056 -0.3889  1.1274  0.3930
26656SOL     OW81641   2.114   2.079   9.288 -0.1896  0.3601 -0.1169
26656SOL    HW181642   2.092   2.147   9.224 -0.0672  0.4282 -0.0860
26656SOL    HW281643   2.029   2.054   9.325 -0.3770 -0.4147 -1.0381
26657SOL     OW81644   3.381   3.914   6.508  0.0061 -0.2062  0.6692
26657SOL    HW181645   3.456   3.858   6.529  1.4977  1.8529  1.1721
26657SOL    HW281646   3.402   3.998   6.549 -1.2079  1.3133 -1.6100
26658SOL     OW81647   9.174   4.619   2.177  0.5016 -0.2646 -0.2563
26658SOL    HW181648   9.223   4.617   2.094  0.3378 -0.0490 -0.3599
26658SOL    HW281649   9.188   4.532   2.215 -0.1267 -0.6686 -0.9203
26659SOL     OW81650   0.201   1.650   0.780  0.1597  0.2207  0.0357
26659SOL    HW181651   0.145   1.718   0.743 -0.0563 -0.5534 -1.0962
26659SOL    HW281652   0.162   1.632   0.866 -1.5190 -0.4950 -0.8289
26660SOL     OW81653   4.399   3.244   5.111  0.1048  0.0719  0.1842
26660SOL    HW181654   4.460   3.297   5.059 -0.7342  2.4252  1.4189
26660SOL    HW281655   4.411   3.276   5.200 -0.3304 -2.0361  1.0441
26661SOL     OW81656   8.234   5.738   6.047 -0.1270 -0.3108  0.4599
26661SOL    HW181657   8.234   5.686   5.967  0.3548  1.6349 -0.8688
26661SOL    HW281658   8.301   5.698   6.102 -0.7413 -1.9216  0.0960
26662SOL     OW81659   4.215   7.496   0.707 -0.0971  0.2199  0.4757
26662SOL    HW181660   4.257   7.557   0.647 -1.9994  0.3645 -0.8059
26662SOL    HW281661   4.148   7.548   0.751  0.8859 -0.0281  2.3777
26663SOL     OW81662   1.036   4.925   6.648  0.0757 -0.0609  0.1705
26663SOL    HW181663   1.053   5.018   6.662  0.2906 -0.1875  0.7250
26663SOL    HW281664   0.987   4.923   6.565  0.0450  0.5459  0.1683
26664SOL     OW81665   8.580   4.437   0.812  0.4652  0.2756  0.2838
26664SOL    HW181666   8.521   4.512   0.817 -1.9293 -1.3580 -0.9184
26664SOL    HW281667   8.648   4.463   0.751 -0.5970  1.3429 -0.4949
26665SOL     OW81668   0.260   9.405   3.022 -0.0555 -0.5920  0.5826
26665SOL    HW181669   0.252   9.497   3.000 -1.0999 -1.2046 -2.0178
26665SOL    HW281670   0.241   9.400   3.116  0.7036  1.8677  0.9264
26666SOL     OW81671   1.048   8.351   0.387  0.2477 -0.0568  0.7030
26666SOL    HW181672   1.021   8.288   0.454 -0.1073 -0.0189  0.5998
26666SOL    HW281673   0.983   8.422   0.394  0.4163  0.1118  0.5572
26667SOL     OW81674   4.267   7.730   5.532 -0.2144  0.3084  0.2324
26667SOL    HW181675   4.251   7.724   5.626 -1.0922  1.1755  0.1611
26667SOL    HW281676   4.236   7.647   5.497 -0.1363  0.0897  0.6727
26668SOL     OW81677   2.682   4.851   8.485 -0.0391 -0.4331 -0.0779
26668SOL    HW181678   2.709   4.853   8.577  0.0051  1.4881 -0.0874
26668SOL    HW281679   2.745   4.793   8.443  0.1376 -1.0889  1.0396
26669SOL     OW81680   0.702   0.881   4.793  0.3848 -0.1323 -0.3992
26669SOL    HW181681   0.761   0.841   4.728 -0.8032 -1.1732 -0.8856
26669SOL    HW281682   0.614   0.866   4.758 -0.2967 -0.6924  1.4299
26670SOL     OW81683   5.177   0.096   7.034 -0.3021 -0.1098 -0.4005
26670SOL    HW181684   5.087   0.081   7.002 -1.3250  2.4875  1.0233
26670SOL    HW281685   5.190   0.190   7.027  1.9518 -0.2962  0.4831
26671SOL     OW81686   9.183   6.677   0.055 -0.9791  0.0029 -0.4684
26671SOL    HW181687   9.155   6.765   0.082 -0.8671  0.0250 -0.4242
26671SOL    HW281688   9.147   6.619   0.123  1.3058  0.2846  1.0916
26672SOL     OW81689   7.902   6.337   9.194  0.1781 -0.3352 -0.1636
26672SOL    HW181690   7.882   6.266   9.255 -3.1535  0.0843 -0.5879
26672SOL    HW281691   7.879   6.302   9.108 -0.3881  0.8366 -0.5127
26673SOL     OW81692   2.352   1.887   5.184 -0.2013  0.3477 -0.2796
26673SOL    HW181693   2.380   1.819   5.246 -2.0831 -0.7793 -0.5829
26673SOL    HW281694   2.366   1.847   5.098 -1.7109  0.1329 -0.4514
26674SOL     OW81695   5.953   3.110   9.655  0.0021  0.1290 -0.1574
26674SOL    HW181696   5.929   3.082   9.744 -0.7100 -0.6897 -0.5860
26674SOL    HW281697   5.887   3.069   9.599 -0.0043  1.2681 -0.9990
26675SOL     OW81698   8.668   2.735   8.849 -0.0986  0.3059  0.1278
26675SOL    HW181699   8.664   2.687   8.932  0.3957 -0.0172 -0.0311
26675SOL    HW281700   8.716   2.815   8.870  2.0684 -0.8132 -0.3161
26676SOL     OW81701   8.473   9.508   8.258  0.2086  0.5128 -0.0552
26676SOL    HW181702   8.415   9.560   8.313  0.6485 -0.2824  1.1998
26676SOL    HW281703   8.454   9.417   8.281  1.8372  0.2279  0.3027
26677SOL     OW81704   8.758   8.018   9.255  0.1723 -0.3324 -0.1706
26677SOL    HW181705   8.708   7.995   9.333  0.1932  0.8608  0.2185
26677SOL    HW281706   8.743   7.946   9.194  0.2956 -1.3660  0.9901
26678SOL     OW81707   3.482   0.989   2.411 -0.0118  0.2160  0.4773
26678SOL    HW181708   3.392   0.969   2.386  0.0273  1.4470 -0.7086
26678SOL    HW281709   3.535   0.926   2.361  0.0453  2.4396 -2.4822
26679SOL     OW81710   2.614   2.259   1.253 -0.3070  0.1821 -0.0338
26679SOL    HW181711   2.672   2.327   1.221  1.6658 -1.2048  0.4163
26679SOL    HW281712   2.582   2.292   1.338  0.5024  0.6097  0.1077
26680SOL     OW81713   6.043   9.461   4.325  0.0571 -0.3698 -0.1263
26680SOL    HW181714   5.969   9.516   4.298 -0.2536 -0.9823 -0.5466
26680SOL    HW281715   6.026   9.442   4.417 -0.4162 -0.6683 -0.2722
26681SOL     OW81716   2.375   0.815   6.754 -0.3066 -0.0108  0.5841
26681SOL    HW181717   2.468   0.829   6.735 -0.7139 -0.1018 -1.7960
26681SOL    HW281718   2.373   0.789   6.846  1.7402  2.5532  1.4840
26682SOL     OW81719   0.950   3.174   4.534  0.1354  0.3191 -0.0175
26682SOL    HW181720   0.905   3.112   4.592 -0.7589  0.2770 -0.7343
26682SOL    HW281721   0.910   3.259   4.553  0.5772  0.4914  0.1671
26683SOL     OW81722   0.972   4.632   6.446 -0.1817 -0.3381 -0.2043
26683SOL    HW181723   0.877   4.624   6.452 -0.6097  3.6080  1.8993
26683SOL    HW281724   1.005   4.575   6.515 -0.8673 -2.3536 -1.4523
26684SOL     OW81725   5.317   7.312   0.276  0.2711  0.0937 -0.5929
26684SOL    HW181726   5.262   7.369   0.331  1.0082  1.8488 -1.5986
26684SOL    HW281727   5.295   7.223   0.304 -0.0520  0.8879  1.8788
26685SOL     OW81728   3.065   7.350   6.234  0.1899 -0.1152  0.0015
26685SOL    HW181729   3.039   7.432   6.275 -1.4447 -0.4311 -0.3310
26685SOL    HW281730   3.048   7.283   6.300 -0.0480 -0.3620 -0.3062
26686SOL     OW81731   5.475   4.723   3.134  0.6903  0.7027 -0.1079
26686SOL    HW181732   5.498   4.796   3.191  0.9853  0.6400 -0.1435
26686SOL    HW281733   5.383   4.736   3.113  0.6887  0.9481  0.0565
26687SOL     OW81734   5.033   4.123   3.065  0.2828 -0.1447 -0.3386
26687SOL    HW181735   5.002   4.174   3.140  0.3592 -0.9120  0.2214
26687SOL    HW281736   5.125   4.104   3.085  0.2802 -0.4250 -0.5859
26688SOL     OW81737   8.915   1.172   0.804 -0.0877  0.6436  0.0916
26688SOL    HW181738   8.926   1.090   0.852 -1.0727  1.2712  1.4510
26688SOL    HW281739   8.998   1.183   0.758  0.7340 -0.2484  1.2711
26689SOL     OW81740   7.822   7.960   9.380  0.0528  0.2321  0.4028
26689SOL    HW181741   7.904   7.928   9.343 -0.1082 -0.0798  0.3103
26689SOL    HW281742   7.758   7.893   9.358 -0.0223 -0.0376  1.3829
26690SOL     OW81743   9.314   8.029   7.106  0.1718 -0.1634 -0.2282
26690SOL    HW181744   9.409   8.015   7.106  0.1165 -0.8868 -2.2198
26690SOL    HW281745   9.277   7.940   7.103 -0.6249  0.0735  1.4659
26691SOL     OW81746   8.681   6.234   3.929 -0.1959  0.3448 -0.1466
26691SOL    HW181747   8.604   6.292   3.928  0.0737  0.7064 -1.1541
26691SOL    HW281748   8.683   6.196   3.842  0.1734 -0.4738  0.2154
26692SOL     OW81749   5.425   3.622   5.893 -0.5201  0.0191 -0.2214
26692SOL    HW181750   5.483   3.642   5.820  1.4509  0.3501  1.3450
26692SOL    HW281751   5.379   3.705   5.909  2.4034  1.4266  1.7127
26693SOL     OW81752   6.822   8.593   4.503  0.4781 -0.2200 -0.0806
26693SOL    HW181753   6.765   8.601   4.427  0.4010 -0.6300 -0.0686
26693SOL    HW281754   6.830   8.682   4.537 -0.0804 -0.1469 -0.1387
26694SOL     OW81755   5.676   3.085   5.495 -0.2624  0.3282  0.1315
26694SOL    HW181756   5.702   3.101   5.404 -0.5397 -0.8511 -0.1780
26694SOL    HW281757   5.756   3.054   5.537 -0.3803 -0.1393  0.0157
26695SOL     OW81758   4.722   2.585   1.077 -0.1101 -0.0242  0.4518
26695SOL    HW181759   4.764   2.499   1.070  1.4336  0.8759 -3.0877
26695SOL    HW281760   4.644   2.578   1.022  0.4580  1.0437 -0.5221
26696SOL     OW81761   3.895   3.938   3.981  0.2052  0.2624  0.0330
26696SOL    HW181762   3.946   3.857   3.968 -1.6889 -0.8542 -0.9642
26696SOL    HW281763   3.840   3.919   4.057  0.0048  0.7386  0.0064
26697SOL     OW81764   6.204   3.541   4.240  0.3171 -0.0749  0.2491
26697SOL    HW181765   6.289   3.517   4.278  0.5453 -2.0019 -1.3114
26697SOL    HW281766   6.222   3.556   4.147 -1.0155 -0.3336 -0.0730
26698SOL     OW81767   8.788   6.004   3.480 -0.3909 -0.7853 -0.3955
26698SOL    HW181768   8.763   5.917   3.450  0.0968 -2.0912  2.6427
26698SOL    HW281769   8.818   6.049   3.401 -1.5793 -2.9986 -2.2149
26699SOL     OW81770   3.872   7.287   7.874  0.2130  0.7243  0.3845
26699SOL    HW181771   3.948   7.318   7.924  0.4905  1.0394 -0.2196
26699SOL    HW281772   3.908   7.263   7.789 -0.4501  1.3962 -0.0947
26700SOL     OW81773   2.761   8.014   2.962 -0.4304 -0.0149  0.2238
26700SOL    HW181774   2.832   8.005   2.899  0.8038  2.3598  1.1353
26700SOL    HW281775   2.715   7.930   2.959  2.6780 -1.8716 -0.0817
26701SOL     OW81776   2.333   5.283   8.227  0.2389  0.0558 -0.5617
26701SOL    HW181777   2.407   5.343   8.218  0.8431 -0.6313 -0.2702
26701SOL    HW281778   2.373   5.196   8.235 -0.4442 -0.1194  2.0471
26702SOL     OW81779   8.176   1.250   4.121 -0.0320 -0.2059  0.2189
26702SOL    HW181780   8.208   1.183   4.181  0.4074  0.1704  0.4100
26702SOL    HW281781   8.097   1.284   4.164 -0.9656 -1.4406 -0.4643
26703SOL     OW81782   5.056   3.337   1.453  0.2703  0.0996  0.1009
26703SOL    HW181783   5.048   3.332   1.548 -0.8855  0.9263  0.0675
26703SOL    HW281784   5.003   3.413   1.428  0.6440 -0.0361 -1.1931
26704SOL     OW81785   3.865   6.744   5.628  0.0931  0.4514 -0.0895
26704SOL    HW181786   3.778   6.768   5.597 -0.1094 -0.1000  0.0429
26704SOL    HW281787   3.880   6.801   5.704  0.9601  2.4557 -1.6766
26705SOL     OW81788   6.902   4.101   1.724 -0.0337  0.0129 -0.4463
26705SOL    HW181789   6.838   4.132   1.788 -0.8204 -0.4528 -0.9929
26705SOL    HW281790   6.913   4.174   1.664  0.9121  0.5538  0.3458
26706SOL     OW81791   6.851   0.457   3.397 -0.0489 -0.5401 -0.0642
26706SOL    HW181792   6.787   0.421   3.459  1.5572 -1.2343  1.2771
26706SOL    HW281793   6.855   0.392   3.326 -0.1899 -0.9403  0.2882
26707SOL     OW81794   0.948   8.775   1.748 -0.5394  0.0221  0.1876
26707SOL    HW181795   0.880   8.796   1.812 -0.8347 -3.1079  1.0553
26707SOL    HW281796   0.906   8.789   1.663 -2.3740 -1.7741  0.6996
26708SOL     OW81797   9.438   8.198   4.420  0.6750  0.3205  0.1248
26708SOL    HW181798   9.385   8.186   4.499 -1.0357 -1.2659 -1.1768
26708SOL    HW281799   9.512   8.139   4.432  0.9119  0.7630  0.9142
26709SOL     OW81800   9.612   2.829   1.041 -0.0124  0.2207 -0.3517
26709SOL    HW181801   9.609   2.918   1.077 -1.1648  0.1373 -0.2040
26709SOL    HW281802   9.556   2.832   0.963  2.4251  0.3836 -2.2016
26710SOL     OW81803   3.473   8.530   7.764 -0.2652 -0.3425 -0.1427
26710SOL    HW181804   3.433   8.554   7.848 -0.9358 -0.4804 -0.4172
26710SOL    HW281805   3.543   8.468   7.788  0.0464  0.1935  0.3724
26711SOL     OW81806   1.267   3.013   3.638  0.0709 -0.1061 -0.3666
26711SOL    HW181807   1.360   2.993   3.651 -0.0807 -0.1450  0.7725
26711SOL    HW281808   1.241   3.059   3.718 -0.2762  2.2279 -1.7494
26712SOL     OW81809   8.633   5.041   1.905  0.1016 -0.1728  0.6055
26712SOL    HW181810   8.549   5.085   1.892 -0.4240 -1.4979 -0.7512
26712SOL    HW281811   8.662   5.018   1.817  1.3222 -0.7845  1.1439
26713SOL     OW81812   6.662   3.841   7.322 -0.0783 -0.0655  0.0594
26713SOL    HW181813   6.697   3.916   7.274  1.0882 -0.7789 -0.2524
26713SOL    HW281814   6.647   3.774   7.255 -1.6834  0.0610  0.2443
26714SOL     OW81815   8.504   5.589   2.017  0.4237  0.5801  0.1992
26714SOL    HW181816   8.482   5.681   2.000  1.1840  1.0652  1.6393
26714SOL    HW281817   8.595   5.591   2.047  0.3285 -0.5953  0.6219
26715SOL     OW81818   0.871   0.955   6.876  0.0586 -0.3004 -0.0278
26715SOL    HW181819   0.784   0.917   6.867 -0.7743  1.3782  0.6587
26715SOL    HW281820   0.897   0.936   6.966 -0.6989  1.3702  0.5747
26716SOL     OW81821   6.650   2.854   7.574 -0.3036 -0.1967 -0.2103
26716SOL    HW181822   6.570   2.869   7.523  0.3040  0.0274 -1.1236
26716SOL    HW281823   6.619   2.822   7.658 -1.4239  1.1689 -0.0627
26717SOL     OW81824   2.216   7.566   2.941  0.1394  0.0629  0.3368
26717SOL    HW181825   2.288   7.527   2.890  1.1672  1.3491  0.7479
26717SOL    HW281826   2.239   7.550   3.032  0.8467  1.9870  0.5392
26718SOL     OW81827   4.971   2.049   7.009 -0.1941  0.1765  0.1320
26718SOL    HW181828   4.911   2.099   7.065  0.2606  2.1282 -1.0102
26718SOL    HW281829   4.927   1.965   6.995 -1.9668  0.9910  0.5443
26719SOL     OW81830   0.947   3.638   2.742  0.0427 -0.4411 -0.5318
26719SOL    HW181831   0.852   3.642   2.727  0.0252  1.5779 -0.2569
26719SOL    HW281832   0.957   3.658   2.835  0.7602  0.3356 -0.7650
26720SOL     OW81833   4.501   9.311   7.366  0.0959  0.0649 -0.2296
26720SOL    HW181834   4.497   9.220   7.397 -1.3590 -0.0297 -0.6383
26720SOL    HW281835   4.559   9.307   7.290  0.5841 -0.3885  0.1521
26721SOL     OW81836   5.048   6.968   7.367 -0.1605 -0.5951  0.3668
26721SOL    HW181837   5.074   6.876   7.360 -2.7218 -1.3769  0.2669
26721SOL    HW281838   5.054   6.987   7.461  2.0197 -0.2712  0.2228
26722SOL     OW81839   1.387   9.322   1.094 -0.1028 -0.0678 -0.1933
26722SOL    HW181840   1.297   9.349   1.109  0.2575  0.9249  0.3073
26722SOL    HW281841   1.413   9.369   1.014  0.1918  0.2582  0.0845
26723SOL     OW81842   2.083   6.565   0.437 -0.1853  0.5206 -0.4705
26723SOL    HW181843   2.099   6.631   0.369 -2.3488  0.9915 -0.5992
26723SOL    HW281844   2.031   6.497   0.393  0.4254 -0.3624  0.1307
26724SOL     OW81845   8.409   8.428   5.599  0.4529  0.0474 -0.5051
26724SOL    HW181846   8.368   8.454   5.681  0.5054 -0.8785 -0.1777
26724SOL    HW281847   8.389   8.500   5.538 -0.6114  0.1673 -0.0235
26725SOL     OW81848   6.917   8.084   5.116  0.0261 -0.8227 -0.2952
26725SOL    HW181849   6.988   8.131   5.160  0.4837 -2.1117  0.4039
26725SOL    HW281850   6.851   8.151   5.097  0.4062 -0.0037  1.1557
26726SOL     OW81851   6.421   1.701   3.142 -0.3860 -0.2662 -0.4855
26726SOL    HW181852   6.471   1.636   3.191 -1.8831 -1.2222 -0.1697
26726SOL    HW281853   6.487   1.764   3.112  0.7672 -0.4607  1.4656
26727SOL     OW81854   2.202   9.149   4.670  0.3726  0.0027  0.4858
26727SOL    HW181855   2.129   9.090   4.650  1.0361 -0.3497 -1.0023
26727SOL    HW281856   2.243   9.111   4.747 -0.3071 -0.4466  0.6413
26728SOL     OW81857   2.202   6.776   0.206 -0.7295  0.3779 -0.1160
26728SOL    HW181858   2.256   6.789   0.284 -1.6436  1.0412  0.4253
26728SOL    HW281859   2.215   6.684   0.182  2.4724  1.0523 -1.4115
26729SOL     OW81860   2.383   4.940   6.272 -0.7514  0.0194  0.4202
26729SOL    HW181861   2.455   4.902   6.222 -0.7627  0.1497  0.3030
26729SOL    HW281862   2.313   4.951   6.207 -0.1803  1.8180  0.0609
26730SOL     OW81863   3.451   0.945   9.005  0.0752  0.0617 -0.1300
26730SOL    HW181864   3.511   0.891   9.056  1.1104  0.5473 -0.8027
26730SOL    HW281865   3.504   0.978   8.932 -0.9993  0.5287 -0.7313
26731SOL     OW81866   1.157   9.388   4.130  0.2344 -0.3120 -0.0890
26731SOL    HW181867   1.117   9.458   4.182 -1.3253  0.7903 -2.6258
26731SOL    HW281868   1.250   9.411   4.127  0.1538  0.2672  1.1547
26732SOL     OW81869   0.843   9.642   9.673 -0.0647 -0.4945 -0.8284
26732SOL    HW181870   0.886   9.676   9.595  0.4506  2.3100  0.5719
26732SOL    HW281871   0.773   9.704   9.691 -1.6272 -2.3220 -0.2663
26733SOL     OW81872   1.419   7.545   9.443  0.2569 -0.0230  0.4484
26733SOL    HW181873   1.439   7.636   9.421  0.7102 -0.3907 -0.7424
26733SOL    HW281874   1.352   7.551   9.512 -1.4565  1.2300 -1.1982
26734SOL     OW81875   8.026   6.166   3.432 -0.3705 -0.1996  0.2051
26734SOL    HW181876   8.005   6.134   3.345  0.4125 -1.6293  0.5161
26734SOL    HW281877   8.041   6.260   3.420 -1.4359 -0.1618 -0.9657
26735SOL     OW81878   9.268   0.847   4.203  0.4798  0.9879  0.3319
26735SOL    HW181879   9.294   0.773   4.259 -0.2202 -0.2528 -0.9108
26735SOL    HW281880   9.189   0.881   4.243 -1.1897 -1.1841 -0.9067
26736SOL     OW81881   3.964   1.563   9.606 -0.7737 -0.6055  0.1424
26736SOL    HW181882   4.046   1.516   9.622  0.2390  0.1570 -2.4499
26736SOL    HW281883   3.896   1.500   9.633  0.5852 -1.4023  1.9556
26737SOL     OW81884   2.694   3.306   2.480  0.5277  0.0292 -0.5101
26737SOL    HW181885   2.668   3.272   2.395  0.7294 -0.5987 -0.3211
26737SOL    HW281886   2.749   3.238   2.518 -1.2940 -0.6888  1.0249
26738SOL     OW81887   8.214   4.906   0.939 -1.2200  1.0227  0.0586
26738SOL    HW181888   8.146   4.956   0.984 -1.6587  2.1392 -1.7423
26738SOL    HW281889   8.279   4.971   0.914 -0.7489  0.3596 -0.4865
26739SOL     OW81890   8.256   7.867   2.709 -0.2978  0.3029 -0.3324
26739SOL    HW181891   8.211   7.949   2.726  0.8436  1.1440 -1.2414
26739SOL    HW281892   8.186   7.802   2.701 -1.1608  0.9186  1.6175
26740SOL     OW81893   6.747   4.419   9.424  0.4900  0.0095  0.3869
26740SOL    HW181894   6.755   4.336   9.377  0.2894  0.1760  0.0489
26740SOL    HW281895   6.654   4.440   9.419  0.8491  1.4935 -1.7465
26741SOL     OW81896   7.778   4.502   2.727  0.3238 -0.0876 -0.1661
26741SOL    HW181897   7.722   4.431   2.695 -1.0913  0.4674  0.9905
26741SOL    HW281898   7.823   4.464   2.803 -0.5425  0.2577  0.5415
26742SOL     OW81899   1.323   8.993   7.477 -0.2881 -0.2766 -0.0356
26742SOL    HW181900   1.317   8.916   7.421  1.4235 -1.1933  0.9556
26742SOL    HW281901   1.358   8.960   7.560 -1.9740  1.1750  1.3210
26743SOL     OW81902   6.398   8.776   1.235  0.3033 -0.1073 -0.3305
26743SOL    HW181903   6.471   8.807   1.181  0.9292  2.1362  1.6539
26743SOL    HW281904   6.436   8.763   1.322 -1.1534 -1.4883  0.1530
26744SOL     OW81905   8.202   6.151   3.662  0.4190 -0.3861 -0.5746
26744SOL    HW181906   8.134   6.161   3.596 -0.2365 -0.5642  0.0518
26744SOL    HW281907   8.211   6.056   3.673  0.7318 -0.3622 -0.6161
26745SOL     OW81908   1.284   2.963   0.105 -0.2077  0.8492  0.1022
26745SOL    HW181909   1.231   2.951   0.184  1.4344 -1.3127  0.9848
26745SOL    HW281910   1.336   3.042   0.123  0.0505  0.4600  1.1601
26746SOL     OW81911   0.730   2.889   7.978  0.7091  0.1688 -0.4572
26746SOL    HW181912   0.645   2.868   8.015  0.7306  2.2366  0.9527
26746SOL    HW281913   0.712   2.920   7.889 -0.2031  1.7690  0.2476
26747SOL     OW81914   4.962   9.459   6.970  0.1340  0.0108  0.5326
26747SOL    HW181915   4.922   9.378   7.000  1.6978 -1.2651 -0.5954
26747SOL    HW281916   4.903   9.492   6.903  0.2397 -1.0764 -0.1158
26748SOL     OW81917   0.438   2.562   2.354  0.5631  0.1443 -0.0619
26748SOL    HW181918   0.369   2.605   2.304  0.9328  0.3161 -0.4250
26748SOL    HW281919   0.441   2.473   2.320 -0.6936 -0.4164  1.1776
26749SOL     OW81920   9.486   5.638   6.144  0.2220 -0.4698 -0.1507
26749SOL    HW181921   9.495   5.726   6.180 -0.6774  0.4215 -1.9791
26749SOL    HW281922   9.568   5.622   6.097  0.0725 -0.2922 -0.4711
26750SOL     OW81923   9.178   4.290   5.332  0.0429 -0.2591  0.1765
26750SOL    HW181924   9.117   4.220   5.355 -0.0103 -0.0102  0.7944
26750SOL    HW281925   9.197   4.275   5.239  0.1316 -1.1659  0.3365
26751SOL     OW81926   8.189   0.132   7.555  0.1147 -0.7099 -0.3433
26751SOL    HW181927   8.226   0.044   7.546  0.4408 -0.6016 -0.0748
26751SOL    HW281928   8.095   0.118   7.559  0.2150 -1.1270  0.6372
26752SOL     OW81929   5.458   5.429   8.096 -0.3620  0.1364 -0.0002
26752SOL    HW181930   5.415   5.427   8.010 -0.2928  0.4487 -0.0413
26752SOL    HW281931   5.531   5.368   8.087  0.0780  0.7167 -0.3904
26753SOL     OW81932   1.040   7.705   6.283  0.4942  0.2196  0.1664
26753SOL    HW181933   1.086   7.744   6.357 -0.6009  3.0664 -0.5312
26753SOL    HW281934   0.955   7.678   6.318  0.7272 -0.3199  0.3380
26754SOL     OW81935   2.503   7.858   7.849 -0.2309  0.2107  0.2754
26754SOL    HW181936   2.442   7.866   7.776  2.5926  0.2999 -2.2435
26754SOL    HW281937   2.541   7.945   7.858  1.2998 -0.4092  0.0850
26755SOL     OW81938   6.191   0.763   0.342 -0.1871  0.2453 -0.4930
26755SOL    HW181939   6.284   0.782   0.354  0.1922 -1.0342 -1.1885
26755SOL    HW281940   6.152   0.782   0.426  0.5122  1.8560 -0.5070
26756SOL     OW81941   5.877   3.174   2.333  0.1851  0.0598 -1.1362
26756SOL    HW181942   5.846   3.085   2.352  1.5259  0.0243  1.1965
26756SOL    HW281943   5.806   3.231   2.362  1.1301 -0.1245  1.8661
26757SOL     OW81944   0.709   1.233   2.997 -0.7680 -0.0535 -0.1538
26757SOL    HW181945   0.672   1.304   2.945  0.9013  0.5588 -0.5531
26757SOL    HW281946   0.697   1.155   2.943  0.5822  0.5095 -1.3166
26758SOL     OW81947   0.383   0.855   1.420 -0.6623  0.0420  0.1544
26758SOL    HW181948   0.352   0.821   1.336 -2.7674 -1.6779  1.5034
26758SOL    HW281949   0.467   0.813   1.434 -0.3235  0.2795 -1.0095
26759SOL     OW81950   2.180   5.759   4.130 -0.5828  0.3619 -0.4198
26759SOL    HW181951   2.254   5.754   4.190 -0.5274  0.9610 -0.4319
26759SOL    HW281952   2.202   5.699   4.059 -0.7863 -0.5745  0.2957
26760SOL     OW81953   6.594   2.936   4.133 -0.1820 -0.2405  0.3692
26760SOL    HW181954   6.647   2.858   4.113 -3.8022 -2.6747 -0.6767
26760SOL    HW281955   6.592   2.986   4.052 -0.2794 -0.6652  0.1080
26761SOL     OW81956   2.689   3.688   3.303 -0.1048  0.1402  0.2271
26761SOL    HW181957   2.624   3.745   3.344  0.7053  1.2225  0.0541
26761SOL    HW281958   2.771   3.708   3.348  0.1942 -0.9750  0.2254
26762SOL     OW81959   0.578   2.142   5.771 -0.1963 -0.3401  0.1741
26762SOL    HW181960   0.510   2.115   5.709  0.1874  0.3340 -0.5556
26762SOL    HW281961   0.625   2.212   5.726  0.9068 -0.7118  0.7178
26763SOL     OW81962   3.360   9.517   0.217  0.2395 -0.2293  0.1488
26763SOL    HW181963   3.304   9.445   0.188  0.6026 -0.1863 -0.6904
26763SOL    HW281964   3.358   9.580   0.144 -0.2209  0.7025  0.9398
26764SOL     OW81965   1.906   0.768   3.086  0.3486  0.3365  0.0584
26764SOL    HW181966   1.915   0.826   3.010 -0.7386  0.0395 -0.3047
26764SOL    HW281967   1.996   0.755   3.117  0.9278 -0.3780 -1.7998
26765SOL     OW81968   4.263   9.329   2.498  0.1790  0.3302  0.4600
26765SOL    HW181969   4.292   9.348   2.587 -1.9652  0.5946  1.1466
26765SOL    HW281970   4.168   9.332   2.502 -0.0027  2.7846 -2.3645
26766SOL     OW81971   1.619   9.656   8.433  0.1199  0.2896  0.2700
26766SOL    HW181972   1.706   9.693   8.450 -0.6384  1.4754  1.7449
26766SOL    HW281973   1.590   9.624   8.518 -0.6796 -0.6010 -0.3186
26767SOL     OW81974   0.231   5.505   0.874 -0.0178  0.3890  0.7398
26767SOL    HW181975   0.277   5.537   0.952 -1.1455  0.7103  1.2960
26767SOL    HW281976   0.220   5.583   0.820  2.1617 -0.0912 -0.5383
26768SOL     OW81977   8.557   1.735   2.929 -0.4458 -0.0639  0.1073
26768SOL    HW181978   8.510   1.819   2.927  2.3781  1.8019  2.7469
26768SOL    HW281979   8.515   1.686   3.000 -0.8983 -0.1057 -0.1838
26769SOL     OW81980   1.021   3.029   5.781  0.4326 -0.8276  0.0893
26769SOL    HW181981   0.934   3.062   5.805  0.4273 -0.0413 -0.9209
26769SOL    HW281982   1.051   3.090   5.714  1.2088 -1.8742 -0.5310
26770SOL     OW81983   5.787   0.206   2.206  0.6729 -0.3553  0.2665
26770SOL    HW181984   5.879   0.209   2.180  0.8232 -0.9671  0.7129
26770SOL    HW281985   5.765   0.113   2.205  0.2476 -0.2630  0.7983
26771SOL     OW81986   8.325   6.404   7.649  0.3525 -0.3193 -0.0726
26771SOL    HW181987   8.381   6.461   7.702  1.6187 -1.5154 -0.0738
26771SOL    HW281988   8.267   6.362   7.713  1.1853 -0.9810  0.2675
26772SOL     OW81989   8.902   4.357   0.920  0.2255 -0.0728  0.0902
26772SOL    HW181990   8.863   4.307   0.991  0.0745 -0.6012 -0.3604
26772SOL    HW281991   8.919   4.444   0.958 -2.8489  0.7278 -0.1260
26773SOL     OW81992   9.530   8.597   3.165  0.3215 -0.0255 -0.3680
26773SOL    HW181993   9.584   8.624   3.239 -0.5108 -0.2368  0.3355
26773SOL    HW281994   9.452   8.559   3.205 -1.5181  2.4861 -1.2902
26774SOL     OW81995   5.614   6.381   8.325  0.5919 -0.6359 -0.0664
26774SOL    HW181996   5.674   6.457   8.326 -1.7231  1.3380  1.8510
26774SOL    HW281997   5.666   6.309   8.361  2.2169  0.6406  0.2690
26775SOL     OW81998   8.053   3.748   8.298  0.2842 -0.3730 -0.6348
26775SOL    HW181999   8.102   3.681   8.346  1.6162  0.1857 -1.1765
26775SOL    HW282000   8.118   3.791   8.243 -0.7063  0.8170 -0.9215
26776SOL     OW82001   7.485   5.561   3.080 -0.5327  0.0907 -0.3629
26776SOL    HW182002   7.391   5.559   3.063 -0.5547 -1.1427 -0.1495
26776SOL    HW282003   7.495   5.622   3.154 -1.4888 -1.7632  1.3958
26777SOL     OW82004   3.851   4.250   0.929  0.0006 -0.5316  0.0377
26777SOL    HW182005   3.821   4.174   0.879 -0.6697  0.5724 -1.3016
26777SOL    HW282006   3.771   4.289   0.964  0.3614 -0.5547  0.9220
26778SOL     OW82007   7.502   2.705   3.764  0.0806  0.8649 -0.0167
26778SOL    HW182008   7.490   2.693   3.858 -1.6227  0.1535 -0.2898
26778SOL    HW282009   7.566   2.637   3.740 -0.7029 -0.0450  0.3866
26779SOL     OW82010   7.513   0.429   1.683  0.3880  0.2898 -0.6493
26779SOL    HW182011   7.534   0.459   1.594  1.0637  2.1140  0.0790
26779SOL    HW282012   7.488   0.509   1.730  2.5305 -0.1680  1.4960
26780SOL     OW82013   2.386   7.597   5.378  0.0138 -0.0543 -0.1904
26780SOL    HW182014   2.462   7.551   5.344 -0.6075 -1.2352 -0.0275
26780SOL    HW282015   2.422   7.674   5.422  1.0567 -0.2687 -0.6368
26781SOL     OW82016   4.220   4.198   3.471  0.2050 -0.3645  0.6335
26781SOL    HW182017   4.171   4.118   3.453  1.5144 -1.4854  1.7955
26781SOL    HW282018   4.169   4.243   3.537 -0.6992 -0.0593 -0.2515
26782SOL     OW82019   5.764   5.131   2.025 -0.1735 -0.0105  0.1349
26782SOL    HW182020   5.777   5.173   2.110  2.2190  0.6110 -0.4733
26782SOL    HW282021   5.796   5.194   1.961 -2.1815 -0.3438 -1.3106
26783SOL     OW82022   4.640   8.513   8.938 -0.0442  0.3291 -0.2269
26783SOL    HW182023   4.668   8.539   9.026 -1.0966  1.0956 -0.1043
26783SOL    HW282024   4.673   8.583   8.881 -0.6844  0.6420 -0.2278
26784SOL     OW82025   3.824   7.256   0.221  0.6324  0.1752 -0.7071
26784SOL    HW182026   3.794   7.203   0.147  2.1961 -0.6950 -0.7589
26784SOL    HW282027   3.824   7.345   0.188 -0.3178  0.0123 -1.1942
26785SOL     OW82028   1.400   0.139   9.382  0.0952  0.2707  0.3299
26785SOL    HW182029   1.350   0.064   9.413  0.4026  0.1885  0.6377
26785SOL    HW282030   1.334   0.204   9.359 -0.1514  0.3371  1.1837
26786SOL     OW82031   5.683   0.008   6.269  0.0961 -0.3202  0.7212
26786SOL    HW182032   5.677   0.097   6.304  1.0176 -0.3101  0.8784
26786SOL    HW282033   5.601  -0.033   6.295 -0.7486  0.7597 -0.1593
26787SOL     OW82034   8.173   3.214   2.108 -0.4861  0.0361 -0.3647
26787SOL    HW182035   8.140   3.165   2.033 -1.9162 -0.5827  0.6171
26787SOL    HW282036   8.121   3.294   2.109  0.0673  0.4029 -0.4668
26788SOL     OW82037   9.096   5.163   6.318 -1.0584  0.7322  0.2963
26788SOL    HW182038   9.139   5.215   6.385 -3.1250 -0.3986  2.6514
26788SOL    HW282039   9.082   5.078   6.359 -3.1181  0.2304 -1.2784
26789SOL     OW82040   1.689   1.134   2.407  0.3536 -0.2666  0.0476
26789SOL    HW182041   1.738   1.101   2.483  0.3445  1.7480  0.9941
26789SOL    HW282042   1.632   1.201   2.443  0.9779  1.3829 -1.8468
26790SOL     OW82043   5.960   0.093   7.738  0.1789  0.3888 -0.3861
26790SOL    HW182044   6.008   0.171   7.765 -0.3581  0.7987 -0.6011
26790SOL    HW282045   5.976   0.086   7.644  0.5423  0.0127 -0.3009
26791SOL     OW82046   3.651   0.483   5.676  0.2817  0.8577 -0.2595
26791SOL    HW182047   3.663   0.428   5.753  2.2094  0.9138 -0.4583
26791SOL    HW282048   3.559   0.472   5.651  0.4774 -1.8902 -0.0049
26792SOL     OW82049   6.607   5.143   9.000 -0.4607  0.1773  0.2959
26792SOL    HW182050   6.691   5.134   8.956 -0.5212 -0.9091  0.3943
26792SOL    HW282051   6.551   5.076   8.961 -1.2240  0.7411  0.3852
26793SOL     OW82052   3.859   7.465   6.336  1.1903 -0.3300  0.2307
26793SOL    HW182053   3.790   7.531   6.332  0.0120 -1.4654  0.7122
26793SOL    HW282054   3.909   7.477   6.255  0.1293  0.2370 -0.3686
26794SOL     OW82055   6.617   3.108   9.013 -0.3401  0.6126 -0.2510
26794SOL    HW182056   6.672   3.034   8.988  0.7698  0.8996  1.1935
26794SOL    HW282057   6.527   3.075   9.006  0.1201 -0.8269  0.1957
26795SOL     OW82058   1.368   4.936   3.398  0.2977 -0.2460 -0.1986
26795SOL    HW182059   1.325   4.995   3.337 -0.0143 -0.3038 -0.0355
26795SOL    HW282060   1.303   4.869   3.418 -0.4394  0.9782  1.9250
26796SOL     OW82061   7.987   6.423   0.396 -0.1410  0.5819 -0.5508
26796SOL    HW182062   7.996   6.483   0.322  0.3191  0.4123 -0.6341
26796SOL    HW282063   7.913   6.458   0.446 -2.0336 -0.5893 -2.3436
26797SOL     OW82064   1.012   0.851   5.928 -0.0158 -0.0918  0.3104
26797SOL    HW182065   1.031   0.831   5.836  0.8482 -0.8468  0.6357
26797SOL    HW282066   0.929   0.899   5.926  0.2105  0.2795 -0.8950
26798SOL     OW82067   4.983   4.315   1.073 -0.1165 -0.3585 -0.1978
26798SOL    HW182068   4.947   4.234   1.037 -0.8368 -0.1309 -0.0061
26798SOL    HW282069   4.944   4.322   1.160  1.4260 -0.7807  0.5488
26799SOL     OW82070   4.504   7.265   6.490 -0.1835  0.3396  0.8421
26799SOL    HW182071   4.543   7.349   6.514 -0.6067  0.9447 -0.4895
26799SOL    HW282072   4.550   7.238   6.411 -0.9799  0.0003  0.4788
26800SOL     OW82073   2.812   1.612   1.626  0.1264  0.1638  0.3443
26800SOL    HW182074   2.734   1.581   1.672  0.6013 -1.7042 -0.0322
26800SOL    HW282075   2.877   1.623   1.695 -0.0175  0.1836  0.4773
26801SOL     OW82076   7.097   3.682   2.406 -0.3812  0.5188  0.2074
26801SOL    HW182077   7.080   3.686   2.312 -0.3174  0.6640  0.2018
26801SOL    HW282078   7.132   3.769   2.428 -0.1536  0.4022  0.3162
26802SOL     OW82079   5.145   7.720   6.367  0.6191  0.1757  0.3170
26802SOL    HW182080   5.113   7.743   6.454 -1.5356 -0.8595 -0.1433
26802SOL    HW282081   5.240   7.708   6.379  0.6597  1.7753  2.1015
26803SOL     OW82082   4.587   1.866   9.653  0.4758  0.0256 -0.1555
26803SOL    HW182083   4.515   1.865   9.590  0.0279 -0.5229  0.3437
26803SOL    HW282084   4.585   1.778   9.692  0.8330  0.3115  0.5216
26804SOL     OW82085   8.234   6.614   8.178  0.0889  0.0995  0.0470
26804SOL    HW182086   8.309   6.558   8.161  0.4019  0.1429  1.2078
26804SOL    HW282087   8.234   6.627   8.273 -0.3405  1.5493 -0.1216
26805SOL     OW82088   6.293   3.806   2.923 -0.4542 -0.6996 -0.7751
26805SOL    HW182089   6.339   3.848   2.851 -1.2136  0.4181 -0.6353
26805SOL    HW282090   6.285   3.874   2.990 -1.0369 -1.2866 -0.2269
26806SOL     OW82091   7.813   8.005   7.389  0.0413  0.1397  0.2764
26806SOL    HW182092   7.822   8.038   7.479  0.3185  0.2922  0.1937
26806SOL    HW282093   7.832   8.080   7.334  3.7371 -0.7862  0.0247
26807SOL     OW82094   4.943   4.905   7.346 -1.2455  0.1402  0.3395
26807SOL    HW182095   5.026   4.868   7.376 -1.2577 -0.2273 -0.0534
26807SOL    HW282096   4.950   4.902   7.250 -2.7471 -2.4125  0.2074
26808SOL     OW82097   1.267   6.150   9.329 -0.8077 -0.7352  0.7279
26808SOL    HW182098   1.265   6.156   9.424  0.0905 -3.8590  1.0573
26808SOL    HW282099   1.219   6.070   9.309 -0.9568 -0.1613 -1.4740
26809SOL     OW82100   5.426   0.254   8.547 -0.1180  0.5846 -0.0107
26809SOL    HW182101   5.375   0.197   8.489  0.1625  0.2273  0.0919
26809SOL    HW282102   5.517   0.228   8.533 -0.0545  0.4317  0.6600
26810SOL     OW82103   6.270   0.257   7.062  0.1428 -0.0425  0.1965
26810SOL    HW182104   6.176   0.276   7.065  0.0124  0.0553 -2.4254
26810SOL    HW282105   6.311   0.344   7.058  0.0679 -0.0464 -2.3420
26811SOL     OW82106   8.944   7.899   8.550  0.0579  0.3048 -0.3735
26811SOL    HW182107   8.986   7.931   8.630  2.3637  0.7329 -1.6651
26811SOL    HW282108   8.866   7.853   8.581  0.4677  1.0703  2.0492
26812SOL     OW82109   1.926   2.464   9.053  0.5004 -0.2778  0.3418
26812SOL    HW182110   1.831   2.476   9.045  0.5150  1.9165  2.5338
26812SOL    HW282111   1.963   2.517   8.982  0.1562 -1.6168 -0.9047
26813SOL     OW82112   4.264   8.423   0.124 -0.0533  0.1243 -0.2947
26813SOL    HW182113   4.245   8.335   0.091  1.4835  0.1357 -1.3535
26813SOL    HW282114   4.213   8.431   0.204 -1.4450 -1.1407 -1.0173
26814SOL     OW82115   5.189   5.613   5.064 -0.3299 -0.1459  0.2950
26814SOL    HW182116   5.200   5.702   5.031 -0.0816 -0.0284  0.6876
26814SOL    HW282117   5.169   5.560   4.987  0.2310  0.1265 -0.0347
26815SOL     OW82118   5.837   1.490   6.575  0.1835 -0.4972  0.3635
26815SOL    HW182119   5.867   1.530   6.656  0.9690 -1.8325  0.7545
26815SOL    HW282120   5.756   1.445   6.599  0.5938 -1.1774  0.5058
26816SOL     OW82121   5.048   3.507   6.113 -0.1865 -0.2111 -0.1766
26816SOL    HW182122   5.000   3.505   6.030 -0.4669  1.2881 -0.0841
26816SOL    HW282123   5.137   3.479   6.091  0.6448  3.0927 -1.6881
26817SOL     OW82124   2.133   4.877   6.109 -0.1888  0.4025 -0.6887
26817SOL    HW182125   2.166   4.835   6.030 -1.1385 -1.1431 -0.3096
26817SOL    HW282126   2.098   4.805   6.162 -2.6497  1.7404 -0.3527
26818SOL     OW82127   5.797   8.736   0.974 -0.3306  0.4919 -0.3693
26818SOL    HW182128   5.811   8.654   1.021 -0.7345  0.4413 -0.3358
26818SOL    HW282129   5.885   8.767   0.954 -0.0296  1.3907  1.9402
26819SOL     OW82130   3.635   5.518   5.746  0.6827 -0.3957  0.3146
26819SOL    HW182131   3.597   5.450   5.802 -0.1256 -0.0759  0.1729
26819SOL    HW282132   3.709   5.475   5.703  1.7140 -0.4558  2.0957
26820SOL     OW82133   4.047   3.841   7.128 -0.0445  0.0384  0.6414
26820SOL    HW182134   3.985   3.824   7.199 -1.1515 -1.3514 -0.6040
26820SOL    HW282135   4.130   3.803   7.159 -0.3998 -0.1709  1.3548
26821SOL     OW82136   4.309   5.042   1.546  0.3608  0.6660  0.1961
26821SOL    HW182137   4.215   5.025   1.551  0.3747  0.9020  2.0490
26821SOL    HW282138   4.348   4.958   1.523 -0.2428  0.3781  0.2292
26822SOL     OW82139   1.918   4.916   2.574 -0.1598 -0.4021 -0.4918
26822SOL    HW182140   1.931   5.001   2.616 -0.6986  0.1480 -1.4075
26822SOL    HW282141   1.956   4.853   2.636 -0.3015  0.4373  0.4812
26823SOL     OW82142   5.379   5.392   7.832 -0.2297  0.4796  0.0042
26823SOL    HW182143   5.351   5.483   7.822 -0.1114  0.5825  0.5908
26823SOL    HW282144   5.378   5.357   7.743 -2.8895  0.2942  0.0178
26824SOL     OW82145   9.639   5.441   5.462  0.4115 -0.2605  0.0191
26824SOL    HW182146   9.672   5.377   5.398  0.4542  0.0694 -0.2952
26824SOL    HW282147   9.576   5.393   5.515 -2.0654  0.1895 -2.2811
26825SOL     OW82148   4.369   6.862   0.066  0.5024 -0.4195 -0.2666
26825SOL    HW182149   4.296   6.801   0.057 -0.9786  1.2077  0.1333
26825SOL    HW282150   4.388   6.890  -0.024  0.4750 -0.6547 -0.3472
26826SOL     OW82151   1.739   6.124   5.251  0.1322 -0.0845  0.6581
26826SOL    HW182152   1.676   6.120   5.323 -2.3025  3.1824 -1.0668
26826SOL    HW282153   1.728   6.040   5.205 -0.8105 -0.7696  2.0720
26827SOL     OW82154   6.370   2.163   1.213 -0.0606  0.4527 -0.2297
26827SOL    HW182155   6.443   2.220   1.193  0.6128 -0.6482 -1.0382
26827SOL    HW282156   6.389   2.128   1.300 -0.4652  1.4068  0.2574
26828SOL     OW82157   4.087   5.770   5.682  0.1674 -0.3713  0.4393
26828SOL    HW182158   4.040   5.722   5.750  0.9989 -0.8508  0.6742
26828SOL    HW282159   4.136   5.837   5.729 -1.0942  0.8508  0.1075
26829SOL     OW82160   7.037   5.830   4.475 -1.0767 -0.8052 -0.0942
26829SOL    HW182161   7.131   5.814   4.489 -1.2869 -1.0487  1.1883
26829SOL    HW282162   6.996   5.801   4.557 -1.9040  2.8217  0.9303
26830SOL     OW82163   6.091   3.131   6.458  0.3745 -0.1497 -0.3332
26830SOL    HW182164   6.157   3.200   6.465 -0.7821  1.2301 -2.2541
26830SOL    HW282165   6.141   3.049   6.463  2.0884  0.8369 -0.6286
26831SOL     OW82166   2.607   0.699   3.133  0.0072 -0.3518  0.4676
26831SOL    HW182167   2.542   0.668   3.070 -0.8410 -1.0014  1.6256
26831SOL    HW282168   2.689   0.699   3.084 -0.9588  1.3604 -1.3082
26832SOL     OW82169   8.213   2.935   8.044  0.1434 -0.0642  0.4629
26832SOL    HW182170   8.273   2.912   8.115 -0.2683 -0.8711  0.5656
26832SOL    HW282171   8.236   3.025   8.021  1.8931 -0.5909 -0.0092
26833SOL     OW82172   7.894   5.721   0.484  0.8098 -0.1055  0.6246
26833SOL    HW182173   7.970   5.759   0.441  1.5390 -1.4625  0.6489
26833SOL    HW282174   7.837   5.693   0.412 -0.1349  1.7222  0.6051
26834SOL     OW82175   8.112   9.609   1.451 -0.0917  0.4241  0.2623
26834SOL    HW182176   8.077   9.563   1.375 -2.8143  1.1339  0.9815
26834SOL    HW282177   8.100   9.549   1.524 -0.5230  0.9622  0.6469
26835SOL     OW82178   6.498   3.532   6.298  0.2874  0.7976  0.5586
26835SOL    HW182179   6.579   3.568   6.334  0.7331  0.6860 -0.3097
26835SOL    HW282180   6.454   3.492   6.373  1.9048 -0.7422  0.7493
26836SOL     OW82181   5.088   7.471   7.707  0.0961  0.1890  0.2196
26836SOL    HW182182   5.044   7.444   7.626 -1.4855  3.0269  0.0088
26836SOL    HW282183   5.025   7.451   7.776 -0.6850  2.1724  0.1554
26837SOL     OW82184   3.803   1.827   2.660  0.6344 -0.2330  0.3105
26837SOL    HW182185   3.753   1.882   2.720 -0.2535  0.7206 -1.2346
26837SOL    HW282186   3.760   1.742   2.663  0.9595 -0.3749  1.4220
26838SOL     OW82187   9.455   9.339   1.827  0.5138 -0.5940  0.4169
26838SOL    HW182188   9.403   9.263   1.800  0.9884 -1.1209  0.9630
26838SOL    HW282189   9.423   9.359   1.915  0.4332 -0.1882  0.3001
26839SOL     OW82190   0.844   4.331   3.907 -0.4855 -0.0263 -0.0169
26839SOL    HW182191   0.932   4.369   3.901  0.2741 -1.3458  1.7653
26839SOL    HW282192   0.786   4.407   3.913  0.8950  0.9682  2.5090
26840SOL     OW82193   7.355   4.810   4.278  0.3608  0.5764 -0.3807
26840SOL    HW182194   7.261   4.806   4.262  0.7118 -1.6715 -2.3836
26840SOL    HW282195   7.368   4.765   4.362 -0.1086 -2.1330 -1.6739
26841SOL     OW82196   4.761   4.202   9.646  0.4099 -0.2490  0.5757
26841SOL    HW182197   4.844   4.156   9.658  0.9178  0.7475  0.9982
26841SOL    HW282198   4.782   4.294   9.659 -0.7533  0.0297  0.6279
26842SOL     OW82199   2.345   8.446   9.490  0.6184 -0.0289  0.3588
26842SOL    HW182200   2.398   8.399   9.554  2.0511  1.1170  0.0805
26842SOL    HW282201   2.389   8.531   9.480 -0.0180  0.1306 -1.5218
26843SOL     OW82202   7.635   0.385   4.644 -0.1748  0.8197  0.0479
26843SOL    HW182203   7.618   0.440   4.568  0.6703 -0.7777 -1.3537
26843SOL    HW282204   7.579   0.308   4.631 -1.6779  1.4439  2.1862
26844SOL     OW82205   6.725   5.769   4.469  0.0150 -0.3805 -0.4934
26844SOL    HW182206   6.762   5.804   4.550  1.5028 -0.0543 -1.2596
26844SOL    HW282207   6.747   5.676   4.471 -0.0398 -0.3935 -0.4788
26845SOL     OW82208   0.563   8.978   7.508 -0.6251  0.8078  0.4724
26845SOL    HW182209   0.639   8.924   7.529 -1.2346 -0.3438 -0.1705
26845SOL    HW282210   0.515   8.985   7.590 -1.6817 -1.5277  0.1395
26846SOL     OW82211   3.514   8.626   8.176 -0.0228  0.0211  0.1601
26846SOL    HW182212   3.437   8.609   8.122 -0.1303 -0.3691  0.4346
26846SOL    HW282213   3.486   8.608   8.265 -0.3262  2.2226  0.5769
26847SOL     OW82214   0.335   6.324   4.681 -0.0888 -0.4040 -1.0814
26847SOL    HW182215   0.291   6.244   4.653 -0.0224 -0.3005 -1.4893
26847SOL    HW282216   0.307   6.390   4.617  1.1273 -0.4664 -1.7225
26848SOL     OW82217   3.712   1.270   4.242  0.1193 -0.5140  0.6160
26848SOL    HW182218   3.672   1.340   4.191  0.0805  1.1811  2.8370
26848SOL    HW282219   3.805   1.274   4.221  0.1218  0.2415  0.7435
26849SOL     OW82220   9.184   6.356   7.853 -0.2221 -0.4441 -0.4298
26849SOL    HW182221   9.115   6.392   7.908  0.0214 -0.6316 -0.0049
26849SOL    HW282222   9.142   6.286   7.804 -0.4856 -0.1524 -0.6314
26850SOL     OW82223   2.730   6.846   8.663  0.0435  0.0976  0.4080
26850SOL    HW182224   2.813   6.888   8.644  0.5451 -1.6912 -1.8979
26850SOL    HW282225   2.671   6.879   8.595 -0.4415 -0.4700  0.5454
26851SOL     OW82226   2.645   3.114   4.959 -0.1201 -0.1744 -0.5034
26851SOL    HW182227   2.681   3.040   4.912 -0.9560 -1.7119  1.1567
26851SOL    HW282228   2.719   3.151   5.007 -0.1047 -1.4244  0.4913
26852SOL     OW82229   9.436   3.591   5.056  0.3178 -0.1991 -0.0049
26852SOL    HW182230   9.523   3.585   5.015  1.1465  0.7553  1.5133
26852SOL    HW282231   9.436   3.677   5.099 -1.3916 -0.1873  0.0185
26853SOL     OW82232   5.392   5.448   6.592 -0.1743 -0.2736 -0.2987
26853SOL    HW182233   5.469   5.504   6.579 -1.2306  1.2675 -0.2073
26853SOL    HW282234   5.375   5.410   6.506  0.1719  0.0801 -0.5252
26854SOL     OW82235   5.839   9.664   5.723  0.7281  0.0976 -0.1279
26854SOL    HW182236   5.769   9.711   5.678  0.0194  0.4651  1.2979
26854SOL    HW282237   5.804   9.645   5.810  2.0210 -0.6378  0.2677
26855SOL     OW82238   8.802   9.189   3.422  0.0609  0.2227 -0.2487
26855SOL    HW182239   8.897   9.200   3.429  0.2604 -1.5613  0.4226
26855SOL    HW282240   8.773   9.172   3.512 -1.1388  2.1777 -0.2150
26856SOL     OW82241   5.586   5.508   9.531  0.2796  0.1685 -0.4104
26856SOL    HW182242   5.551   5.449   9.598 -2.1625  0.4021 -1.4079
26856SOL    HW282243   5.662   5.548   9.573  0.3964 -1.6463  1.2553
26857SOL     OW82244   5.513   7.450   2.093  0.2798  0.0027 -0.2847
26857SOL    HW182245   5.568   7.521   2.061 -0.3201  0.9372  0.6906
26857SOL    HW282246   5.536   7.442   2.186 -1.3284  0.5451  0.1889
26858SOL     OW82247   3.315   6.190   1.483 -0.1195 -0.1202 -0.4850
26858SOL    HW182248   3.276   6.138   1.554 -0.4254 -0.7229 -1.0809
26858SOL    HW282249   3.252   6.260   1.467 -0.3266 -0.3154 -0.5378
26859SOL     OW82250   8.383   0.193   7.921 -0.0248  0.0890  0.5730
26859SOL    HW182251   8.321   0.123   7.940  0.6772 -0.6093  0.3648
26859SOL    HW282252   8.466   0.162   7.957 -0.0882  1.6804  2.2476
26860SOL     OW82253   1.926   8.964   6.787 -0.1044 -0.4034  0.4580
26860SOL    HW182254   1.999   9.025   6.782 -0.1109 -0.2988 -5.2884
26860SOL    HW282255   1.853   9.017   6.820  0.8573  1.5822 -0.4109
26861SOL     OW82256   2.788   6.775   3.386 -0.2104 -0.2952 -0.6522
26861SOL    HW182257   2.855   6.842   3.376 -1.2449  0.7363 -0.9769
26861SOL    HW282258   2.803   6.737   3.473 -0.7630  1.7276  0.3864
26862SOL     OW82259   6.848   6.066   2.906 -0.2917 -0.4295 -0.1885
26862SOL    HW182260   6.833   6.131   2.837  0.3817 -0.9964 -0.8731
26862SOL    HW282261   6.902   6.112   2.970  2.9743 -1.1860 -2.1690
26863SOL     OW82262   6.184   1.782   3.280  0.2424  0.6825 -0.4367
26863SOL    HW182263   6.185   1.754   3.372 -0.2689  0.5818 -0.4552
26863SOL    HW282264   6.264   1.745   3.242 -0.8874 -1.7272 -0.7254
26864SOL     OW82265   8.827   2.508   0.885 -0.0200  0.1584  1.2662
26864SOL    HW182266   8.824   2.432   0.943  2.2963 -2.2571 -1.4700
26864SOL    HW282267   8.919   2.533   0.882  0.1553 -0.4505 -1.9441
26865SOL     OW82268   6.751   3.760   8.579 -0.1057  0.4561 -0.3801
26865SOL    HW182269   6.784   3.684   8.531 -0.2440  0.5378 -0.6091
26865SOL    HW282270   6.790   3.753   8.666 -1.3916 -0.7534  0.1250
26866SOL     OW82271   9.029   8.712   2.902 -0.2830  0.3520 -0.0841
26866SOL    HW182272   8.950   8.752   2.867  0.5120  0.7028 -1.5793
26866SOL    HW282273   9.021   8.619   2.881 -1.2808 -0.0404  1.7628
26867SOL     OW82274   7.493   4.380   5.677 -0.3467 -0.4109  0.0630
26867SOL    HW182275   7.589   4.376   5.680 -0.2605  0.8879 -0.3781
26867SOL    HW282276   7.468   4.416   5.761 -0.2699  1.5128 -0.6964
26868SOL     OW82277   5.639   4.822   3.642  0.5015 -0.0018 -0.4577
26868SOL    HW182278   5.581   4.848   3.571  2.2146  3.3238 -0.8465
26868SOL    HW282279   5.592   4.849   3.722  0.2795 -0.0357 -0.5758
26869SOL     OW82280   4.630   1.052   0.924 -0.6377 -0.4731  0.0754
26869SOL    HW182281   4.696   1.090   0.865 -1.5201  1.4549  0.2351
26869SOL    HW282282   4.675   1.045   1.008 -0.2914 -0.2392 -0.0848
26870SOL     OW82283   6.642   3.556   7.771  0.1614  0.2695  0.2170
26870SOL    HW182284   6.575   3.611   7.730 -0.0679 -0.2267 -0.0919
26870SOL    HW282285   6.647   3.586   7.861  0.6285  1.3497 -0.1475
26871SOL     OW82286   2.322   0.444   8.789  0.3700 -0.3269  0.7631
26871SOL    HW182287   2.281   0.481   8.868  2.6366  0.5492  1.6120
26871SOL    HW282288   2.357   0.359   8.819 -1.0740 -1.2480 -0.0527
26872SOL     OW82289   0.739   4.689   9.619  0.6428 -0.0703  0.1996
26872SOL    HW182290   0.768   4.755   9.556  1.8287  0.4020  1.1962
26872SOL    HW282291   0.820   4.650   9.652 -0.0035 -2.9273 -1.2188
26873SOL     OW82292   6.613   1.749   9.018  0.1909  0.0303  0.5982
26873SOL    HW182293   6.675   1.752   9.091 -1.1979 -1.5639  1.9289
26873SOL    HW282294   6.617   1.659   8.986  1.2877  0.8611 -1.8434
26874SOL     OW82295   6.873   4.987   1.819  0.0249  0.5948  0.0824
26874SOL    HW182296   6.846   5.019   1.733 -0.1410  1.1331  0.3315
26874SOL    HW282297   6.865   4.892   1.813 -0.2804  0.6493 -0.3976
26875SOL     OW82298   7.285   2.749   1.594  0.2193 -0.1786  0.2909
26875SOL    HW182299   7.343   2.743   1.518  0.4523  1.4773  0.3076
26875SOL    HW282300   7.238   2.831   1.582  1.3810  0.9373  2.6920
26876SOL     OW82301   5.576   8.951   1.942 -0.5830  0.4799  0.0952
26876SOL    HW182302   5.664   8.982   1.921 -0.5849  0.1560 -0.4081
26876SOL    HW282303   5.590   8.861   1.973 -0.8061  0.1571 -0.7190
26877SOL     OW82304   0.508   6.277   4.886 -0.5525  0.1957  0.1300
26877SOL    HW182305   0.548   6.363   4.895 -2.5456  1.0738  1.3723
26877SOL    HW282306   0.447   6.287   4.813  0.0834 -0.5397 -0.5094
26878SOL     OW82307   4.738   6.107   8.652  0.3471  0.3971 -0.4329
26878SOL    HW182308   4.645   6.086   8.664  0.6267 -1.4626 -1.1327
26878SOL    HW282309   4.746   6.197   8.681 -1.5369  0.3621  0.3611
26879SOL     OW82310   6.936   8.609   6.514 -0.3289 -0.0057 -0.0485
26879SOL    HW182311   7.001   8.561   6.462  0.0224  1.7734 -1.3315
26879SOL    HW282312   6.868   8.544   6.533  0.4229 -1.1770 -1.1833
26880SOL     OW82313   7.367   6.453   7.793 -0.2050  0.4501 -0.0514
26880SOL    HW182314   7.382   6.374   7.742 -1.2478  0.3812 -0.2702
26880SOL    HW282315   7.430   6.447   7.865 -0.4596 -0.7151  0.0934
26881SOL     OW82316   9.582   0.561   0.390  0.2708  0.0130  0.5156
26881SOL    HW182317   9.570   0.586   0.298  0.8850  0.3306  0.5128
26881SOL    HW282318   9.659   0.611   0.418  1.2970 -1.5501  0.6254
26882SOL     OW82319   3.548   5.492   4.499  0.2021 -0.2916  0.1672
26882SOL    HW182320   3.558   5.510   4.406  3.0195  0.4041  0.5151
26882SOL    HW282321   3.464   5.531   4.522  0.5057  1.6046 -1.6307
26883SOL     OW82322   8.620   4.605   3.248  0.4969 -0.0442  0.2713
26883SOL    HW182323   8.625   4.522   3.200 -0.1693 -0.0698  0.2272
26883SOL    HW282324   8.611   4.578   3.340 -0.2408 -0.0365  0.2063
26884SOL     OW82325   1.392   2.358   5.500  0.2812  0.0039  0.1864
26884SOL    HW182326   1.483   2.332   5.488  0.4822 -0.2330  1.9347
26884SOL    HW282327   1.344   2.310   5.433  1.0967 -2.1426  1.0688
26885SOL     OW82328   5.672   6.251   3.958 -0.2034 -0.3252 -0.0745
26885SOL    HW182329   5.761   6.259   3.992 -0.4230 -1.4686  0.8526
26885SOL    HW282330   5.629   6.332   3.985  0.5618  0.2767 -0.6046
26886SOL     OW82331   2.454   5.302   6.451 -0.1607  0.3725 -0.3624
26886SOL    HW182332   2.441   5.273   6.541  0.0288  2.9347  0.5810
26886SOL    HW282333   2.367   5.302   6.412 -0.4220  0.4130  0.2193
26887SOL     OW82334   2.628   8.629   7.907 -0.1682  0.1370 -0.1123
26887SOL    HW182335   2.682   8.685   7.853 -0.6701 -0.1523 -0.9302
26887SOL    HW282336   2.554   8.604   7.851 -0.9641  0.2337  0.8575
26888SOL     OW82337   0.147   8.604   0.117  0.0571 -0.3485  0.1921
26888SOL    HW182338   0.206   8.601   0.041  1.5541  1.5237  1.1569
26888SOL    HW282339   0.151   8.696   0.146 -0.9764 -0.8585  2.1356
26889SOL     OW82340   0.462   9.380   2.847  0.0175 -0.1563 -0.1740
26889SOL    HW182341   0.420   9.454   2.802  1.4560  0.9868  0.2701
26889SOL    HW282342   0.415   9.373   2.930  0.2996  0.7524  0.0825
26890SOL     OW82343   7.490   3.444   4.754  0.2653  0.0359  0.2245
26890SOL    HW182344   7.450   3.524   4.718  0.8480 -0.0827 -0.7128
26890SOL    HW282345   7.564   3.475   4.806  1.3027  0.0673 -1.2113
26891SOL     OW82346   8.698   1.809   5.175  0.3856 -0.2891 -0.2048
26891SOL    HW182347   8.620   1.755   5.186 -0.4725  0.8519 -0.5378
26891SOL    HW282348   8.740   1.808   5.261 -1.8728  1.8734  1.0686
26892SOL     OW82349   2.091   6.225   9.164  0.6473  0.2547 -0.4056
26892SOL    HW182350   2.143   6.263   9.235  0.2261  0.4228 -0.1831
26892SOL    HW282351   2.002   6.220   9.199  0.6037 -0.4932 -0.6044
26893SOL     OW82352   6.748   5.959   6.845 -0.0501  0.3679 -0.5797
26893SOL    HW182353   6.775   6.028   6.906  0.1651 -1.9924  2.2178
26893SOL    HW282354   6.668   5.993   6.806  0.1156  2.2749  0.5727
26894SOL     OW82355   6.255   8.887   6.812  0.2862  0.4884  0.2993
26894SOL    HW182356   6.273   8.919   6.723  1.9255 -0.6857  0.1514
26894SOL    HW282357   6.300   8.803   6.816  0.2479  0.5203  2.2517
26895SOL     OW82358   9.150   7.968   4.006 -0.2665  0.3022 -0.1731
26895SOL    HW182359   9.208   8.002   3.938  0.2602 -0.8759 -0.3395
26895SOL    HW282360   9.198   7.982   4.087 -0.3555  0.5684 -0.1634
26896SOL     OW82361   2.878   0.770   4.126 -0.0668 -0.7668  0.2638
26896SOL    HW182362   2.870   0.683   4.165 -0.0906 -1.3060 -0.8920
26896SOL    HW282363   2.971   0.791   4.133 -0.3257 -0.0658  2.1796
26897SOL     OW82364   5.047   3.783   7.533  0.9968  0.5040 -0.7142
26897SOL    HW182365   5.114   3.741   7.587  2.0626  1.5047 -1.2306
26897SOL    HW282366   5.064   3.751   7.444 -1.1299 -1.6266 -0.4742
26898SOL     OW82367   2.530   6.773   6.386 -0.5005  0.1980 -0.1148
26898SOL    HW182368   2.603   6.712   6.389 -1.2078 -0.6383  0.9182
26898SOL    HW282369   2.570   6.858   6.370  0.6159 -0.3604 -0.3794
26899SOL     OW82370   9.387   9.364   6.309 -1.1771 -0.0124 -0.5512
26899SOL    HW182371   9.303   9.393   6.274 -2.0515 -1.2761  0.3903
26899SOL    HW282372   9.367   9.281   6.352  0.3383  0.2167  0.6704
26900SOL     OW82373   5.459   4.790   4.465 -0.4087  0.3099  0.0729
26900SOL    HW182374   5.380   4.753   4.504 -0.3022  2.1105  2.2272
26900SOL    HW282375   5.430   4.830   4.383 -1.3099 -0.8398 -0.1796
26901SOL     OW82376   0.409   2.627   5.509 -0.1609 -0.2357  0.2190
26901SOL    HW182377   0.473   2.681   5.555 -0.0592  0.9242 -1.2228
26901SOL    HW282378   0.347   2.600   5.576  1.4889 -0.8937  1.5435
26902SOL     OW82379   8.652   3.515   8.006 -0.1631  0.3743 -0.3259
26902SOL    HW182380   8.707   3.586   8.039  0.0011 -0.5688  1.5663
26902SOL    HW282381   8.673   3.509   7.913  1.3493  1.4372 -0.0828
26903SOL     OW82382   1.423   0.272   0.917 -0.1295 -0.2705  0.2475
26903SOL    HW182383   1.470   0.191   0.937  1.2967  0.6120  0.6065
26903SOL    HW282384   1.412   0.270   0.821  0.2496 -0.6929  0.2108
26904SOL     OW82385   3.162   5.639   1.873 -0.1977 -0.0155  0.3337
26904SOL    HW182386   3.077   5.594   1.875  0.9368 -2.4252  3.9113
26904SOL    HW282387   3.224   5.572   1.844  0.7962  1.1745 -0.4106
26905SOL     OW82388   8.256   9.161   2.505 -0.2198  0.0852 -0.5031
26905SOL    HW182389   8.229   9.201   2.588 -0.5242  0.6524 -0.8648
26905SOL    HW282390   8.241   9.067   2.517 -1.1510  0.2579 -0.2301
26906SOL     OW82391   7.752   1.413   1.955  0.0762 -0.0859  0.2839
26906SOL    HW182392   7.797   1.479   1.902  0.0404 -1.1042 -1.0619
26906SOL    HW282393   7.733   1.342   1.894  0.7301 -1.6620  1.8371
26907SOL     OW82394   9.555   6.915   4.791 -0.0321  0.1302  0.1654
26907SOL    HW182395   9.575   6.840   4.846 -0.2652  0.2034  0.3485
26907SOL    HW282396   9.561   6.881   4.701  2.1726  0.4347  0.1522
26908SOL     OW82397   6.118   5.389   9.225 -0.0317  0.9554 -0.1826
26908SOL    HW182398   6.030   5.400   9.190 -1.0694 -0.6873  1.6921
26908SOL    HW282399   6.154   5.314   9.177  0.6292  1.9981 -1.3735
26909SOL     OW82400   1.556   8.583   7.551 -0.4630 -0.3871 -0.0186
26909SOL    HW182401   1.525   8.497   7.579  0.1476 -0.2656  1.0747
26909SOL    HW282402   1.613   8.613   7.622 -0.7785  0.9863 -0.3179
26910SOL     OW82403   4.361   4.376   5.469 -0.4247  0.6790 -0.1730
26910SOL    HW182404   4.434   4.417   5.516 -2.9939  3.8454  1.4662
26910SOL    HW282405   4.360   4.419   5.384 -0.1218  0.2632 -0.3918
26911SOL     OW82406   5.741   2.593   4.809 -0.1674  0.3779 -0.4344
26911SOL    HW182407   5.829   2.630   4.798  1.2020 -2.4817  0.1844
26911SOL    HW282408   5.754   2.499   4.805 -3.6395 -0.1689 -3.2347
26912SOL     OW82409   7.434   5.487   8.345 -0.3998 -0.0903  0.0078
26912SOL    HW182410   7.484   5.477   8.426  2.0328  0.6657 -1.2666
26912SOL    HW282411   7.497   5.463   8.276 -2.2304 -0.2739 -1.6721
26913SOL     OW82412   0.828   0.238   0.553 -0.2240  0.1896  0.1613
26913SOL    HW182413   0.871   0.298   0.614  2.1451  0.8726 -2.0458
26913SOL    HW282414   0.754   0.289   0.518 -0.8014  0.2529  1.3974
26914SOL     OW82415   8.872   7.567   7.465  0.0577  0.1811  0.0364
26914SOL    HW182416   8.841   7.486   7.503 -0.9828 -0.9842 -2.9873
26914SOL    HW282417   8.957   7.582   7.507  0.1894 -2.3450  0.8389
26915SOL     OW82418   5.486   9.134   7.103  0.0981  0.8928 -0.0549
26915SOL    HW182419   5.457   9.210   7.054 -1.7130 -0.3889 -1.1059
26915SOL    HW282420   5.559   9.099   7.053 -0.4405  0.7432 -0.7506
26916SOL     OW82421   2.184   2.343   1.446  0.2085 -0.5856  0.1951
26916SOL    HW182422   2.189   2.250   1.470  1.4323 -0.3418  1.0146
26916SOL    HW282423   2.251   2.354   1.379  0.8745 -0.0776  0.9264
26917SOL     OW82424   8.370   5.038   0.142 -0.3003  0.3470 -0.2376
26917SOL    HW182425   8.337   5.006   0.226 -0.0960  0.2330 -0.2019
26917SOL    HW282426   8.455   4.996   0.131 -0.6416 -0.2083 -0.8465
26918SOL     OW82427   2.358   4.494   5.997 -0.0336  0.5564 -0.5780
26918SOL    HW182428   2.268   4.465   5.981  0.7301 -1.6894 -1.0592
26918SOL    HW282429   2.411   4.415   5.990  2.3583  2.2031 -3.0812
26919SOL     OW82430   5.971   6.600   3.306  0.3427 -0.5041  0.1925
26919SOL    HW182431   5.929   6.558   3.382 -0.8514  0.4561  0.0942
26919SOL    HW282432   5.979   6.692   3.331  0.8642 -0.3628 -0.4730
26920SOL     OW82433   6.740   1.186   0.832  0.1304 -0.0731 -0.0814
26920SOL    HW182434   6.697   1.186   0.917 -0.1635  0.7195 -0.2183
26920SOL    HW282435   6.723   1.273   0.796 -0.6880 -0.7397 -1.4165
26921SOL     OW82436   4.363   4.310   9.533  0.6896  0.6149  0.4306
26921SOL    HW182437   4.293   4.254   9.499  0.0839  1.9506 -0.5611
26921SOL    HW282438   4.401   4.258   9.604  0.3065 -1.1560 -0.5947
26922SOL     OW82439   5.472   5.229   4.301 -0.0230  0.0681 -0.3754
26922SOL    HW182440   5.521   5.311   4.300 -0.0792  0.0945 -0.7931
26922SOL    HW282441   5.476   5.201   4.393 -1.0459  1.1479  0.0239
26923SOL     OW82442   6.191   3.911   3.964 -0.4402  0.0509  0.0901
26923SOL    HW182443   6.151   3.857   3.895 -2.0040 -0.4961  1.3544
26923SOL    HW282444   6.246   3.850   4.013 -2.9324 -0.7538  2.0953
26924SOL     OW82445   0.898   3.979   2.557 -0.0023  0.7521  0.1092
26924SOL    HW182446   0.854   3.994   2.474 -1.3521  0.5384  0.7558
26924SOL    HW282447   0.955   4.055   2.568  0.2164  0.7673 -1.0088
26925SOL     OW82448   7.990   1.143   7.550  0.0529 -0.9105 -0.0986
26925SOL    HW182449   7.977   1.167   7.458 -1.5310  0.2249  0.3809
26925SOL    HW282450   7.990   1.226   7.597 -4.4044 -1.5612  1.4902
26926SOL     OW82451   2.469   4.722   7.703 -0.9774  0.4722  0.4260
26926SOL    HW182452   2.538   4.737   7.638 -0.1845 -1.9761  0.5750
26926SOL    HW282453   2.403   4.670   7.657 -2.3363  2.0031  0.5515
26927SOL     OW82454   2.990   2.767   7.161  0.5295 -0.4694  0.1140
26927SOL    HW182455   3.060   2.736   7.103 -0.0888 -0.3888 -0.7043
26927SOL    HW282456   2.910   2.748   7.112  0.0504  0.6654  0.4421
26928SOL     OW82457   3.738   2.581   7.810  0.2555 -0.3622 -0.3182
26928SOL    HW182458   3.716   2.669   7.841  3.5099  0.5471 -0.2028
26928SOL    HW282459   3.778   2.538   7.886 -0.2952 -1.5733 -0.6921
26929SOL     OW82460   6.592   0.574   5.822  0.1577 -0.5269  0.0512
26929SOL    HW182461   6.582   0.502   5.884  0.0417 -0.8522 -0.3382
26929SOL    HW282462   6.564   0.652   5.871 -3.5276 -1.2386 -0.6602
26930SOL     OW82463   2.377   8.083   4.832 -0.2451  0.2461  0.0366
26930SOL    HW182464   2.289   8.069   4.868 -0.7999  1.8164 -0.5889
26930SOL    HW282465   2.435   8.079   4.908 -0.7319 -1.6604  0.3378
26931SOL     OW82466   4.655   0.568   3.133  0.1198  0.4064  0.7435
26931SOL    HW182467   4.686   0.486   3.094  0.8544  0.9013  0.2650
26931SOL    HW282468   4.565   0.577   3.102  1.1088  1.5478 -2.1938
26932SOL     OW82469   7.910   8.370   1.361 -0.4291 -0.4328 -0.1296
26932SOL    HW182470   7.928   8.333   1.448 -1.5025 -0.4283  0.1001
26932SOL    HW282471   7.983   8.430   1.345 -0.6511  0.2079  1.1320
26933SOL     OW82472   3.971   1.247   8.183 -0.2451 -0.2026  0.1471
26933SOL    HW182473   3.894   1.229   8.237 -0.9899 -0.0565 -0.8249
26933SOL    HW282474   3.991   1.164   8.140  1.6314 -0.8742  2.1836
26934SOL     OW82475   0.233   2.038   0.741  0.5240 -0.0394 -0.5858
26934SOL    HW182476   0.296   1.990   0.687  0.1962  1.7389 -2.6772
26934SOL    HW282477   0.158   1.979   0.748  0.9148 -0.6487 -1.3631
26935SOL     OW82478   7.580   7.124   3.802 -0.5707  0.1763  0.5478
26935SOL    HW182479   7.499   7.176   3.810 -0.0435  1.1230 -0.0028
26935SOL    HW282480   7.613   7.146   3.714  0.2829 -0.2037  0.7670
26936SOL     OW82481   2.214   8.159   5.206  0.1634  0.2201  0.8152
26936SOL    HW182482   2.239   8.230   5.265 -1.8536  0.4391  1.4981
26936SOL    HW282483   2.198   8.203   5.122 -0.6532  0.5376  1.1240
26937SOL     OW82484   6.227   3.479   1.156  0.1710 -0.0335  0.3565
26937SOL    HW182485   6.151   3.522   1.195  0.1008  0.3180 -0.1507
26937SOL    HW282486   6.258   3.541   1.089 -1.4019 -1.7591 -2.1614
26938SOL     OW82487   6.708   2.306   0.452 -0.2950 -0.1829 -0.0471
26938SOL    HW182488   6.703   2.232   0.391 -2.2060  1.6103 -2.2000
26938SOL    HW282489   6.661   2.275   0.530  1.2066 -2.1068  0.1767
26939SOL     OW82490   1.715   3.914   1.841 -0.4938 -0.2188  0.0985
26939SOL    HW182491   1.632   3.899   1.798 -0.0032 -0.9607 -0.6282
26939SOL    HW282492   1.739   3.828   1.878  0.2639 -0.1839 -0.2846
26940SOL     OW82493   6.874   6.732   6.673 -0.3899 -0.6693 -0.3621
26940SOL    HW182494   6.908   6.784   6.746  1.1167 -1.9734 -0.0948
26940SOL    HW282495   6.789   6.700   6.704 -0.0297 -0.7203  0.5874
26941SOL     OW82496   3.194   8.862   8.078  0.1104  0.1114  0.4987
26941SOL    HW182497   3.169   8.820   8.160 -0.0658 -0.3297  0.2246
26941SOL    HW282498   3.114   8.861   8.025  0.7707 -1.6352 -0.5234
26942SOL     OW82499   6.649   6.976   3.587  0.5261  0.1089 -0.2882
26942SOL    HW182500   6.621   6.991   3.677  0.2633 -1.6850 -0.0323
26942SOL    HW282501   6.732   7.022   3.580  2.1332 -2.1692  1.8675
26943SOL     OW82502   2.946   0.115   0.381  0.6818 -0.1527 -0.1312
26943SOL    HW182503   2.904   0.090   0.299 -0.3873 -0.5320  0.5001
26943SOL    HW282504   3.040   0.109   0.364  0.4661 -1.0035 -1.0855
26944SOL     OW82505   2.448   2.193   6.488 -0.0979 -0.4593 -0.1446
26944SOL    HW182506   2.455   2.099   6.501  2.8377 -0.5667 -1.7862
26944SOL    HW282507   2.537   2.222   6.470 -0.8383  2.7339  0.6995
26945SOL     OW82508   7.674   5.516   3.590 -0.5258 -0.8565 -0.4644
26945SOL    HW182509   7.597   5.486   3.637 -0.7063 -0.6757 -0.6382
26945SOL    HW282510   7.742   5.525   3.657 -1.3528  1.4474  0.1651
26946SOL     OW82511   1.322   4.069   3.531  0.5622 -0.2359 -0.2585
26946SOL    HW182512   1.354   4.040   3.446 -1.9631  0.0408 -1.3922
26946SOL    HW282513   1.322   4.165   3.526 -0.2908 -0.2263 -0.2540
26947SOL     OW82514   3.795   6.306   3.010  0.4800 -0.2179 -0.2683
26947SOL    HW182515   3.703   6.328   3.026 -0.0365 -2.5355  0.3424
26947SOL    HW282516   3.845   6.376   3.052 -1.0007  0.3990  0.5168
26948SOL     OW82517   3.334   7.366   8.334 -0.2461  0.1613 -0.3845
26948SOL    HW182518   3.260   7.420   8.360  0.0631  0.0395  0.8138
26948SOL    HW282519   3.398   7.429   8.298 -0.3942  0.4339 -0.1740
26949SOL     OW82520   9.117   4.420   8.353 -0.0508 -0.0266  0.3922
26949SOL    HW182521   9.022   4.423   8.359 -0.3001 -2.8878 -0.5933
26949SOL    HW282522   9.140   4.491   8.293 -1.7456 -0.2641 -0.5898
26950SOL     OW82523   4.698   2.579   1.527  0.2340 -0.3779  0.1449
26950SOL    HW182524   4.702   2.674   1.519  1.9898 -0.5203 -1.5116
26950SOL    HW282525   4.757   2.558   1.600 -1.9462 -0.1316  2.0944
26951SOL     OW82526   4.789   0.230   3.931 -0.7481  0.3312  0.5695
26951SOL    HW182527   4.830   0.174   3.865 -1.6885  0.2060  0.0722
26951SOL    HW282528   4.850   0.304   3.940 -0.5835  0.3342 -0.4192
26952SOL     OW82529   7.892   2.728   5.729 -0.1898 -0.2636  0.5173
26952SOL    HW182530   7.817   2.787   5.731 -1.5684 -1.8629  3.8332
26952SOL    HW282531   7.960   2.776   5.682 -1.8816  3.1010  1.2401
26953SOL     OW82532   7.568   6.485   6.106 -0.0488  0.0352 -0.0547
26953SOL    HW182533   7.654   6.463   6.068  0.6783 -0.1740  1.6222
26953SOL    HW282534   7.553   6.418   6.172  0.0262  1.8734  1.9220
26954SOL     OW82535   5.291   1.186   5.866 -0.1139 -0.0539  0.0324
26954SOL    HW182536   5.217   1.217   5.813 -0.4735  1.6831  1.4547
26954SOL    HW282537   5.266   1.097   5.893 -1.3922  0.2632 -0.0482
26955SOL     OW82538   1.202   6.006   2.879  1.2121 -0.5436  0.6904
26955SOL    HW182539   1.138   6.021   2.809  1.4392 -1.3462  0.2994
26955SOL    HW282540   1.185   5.917   2.909 -0.0079  0.3367  2.8566
26956SOL     OW82541   6.264   4.358   3.984  0.0454 -0.0549  0.1656
26956SOL    HW182542   6.218   4.397   4.058  0.4204 -0.0164  0.3830
26956SOL    HW282543   6.205   4.370   3.909 -0.7680 -0.9627  0.6378
26957SOL     OW82544   3.919   7.867   1.063  0.3573 -0.1538 -0.3628
26957SOL    HW182545   3.875   7.888   0.980  1.3636 -2.3087 -1.5245
26957SOL    HW282546   4.012   7.879   1.044  0.5131  1.9205  1.3211
26958SOL     OW82547   0.865   2.695   0.229 -0.4371  0.4405  0.1025
26958SOL    HW182548   0.818   2.775   0.207  0.0042  0.7508  0.2790
26958SOL    HW282549   0.895   2.661   0.144 -2.5724 -0.7859 -0.2309
26959SOL     OW82550   3.207   9.608   0.910  0.0644 -0.2567 -0.1165
26959SOL    HW182551   3.168   9.693   0.889  0.3172 -0.1088  0.0138
26959SOL    HW282552   3.226   9.570   0.824  1.4818  0.5277 -0.1851
26960SOL     OW82553   2.446   1.049   8.809  0.3423 -0.2802 -0.0446
26960SOL    HW182554   2.415   1.098   8.732  1.7969 -1.1289 -1.2333
26960SOL    HW282555   2.414   0.960   8.795  1.9617 -0.8264 -0.5555
26961SOL     OW82556   9.027   3.616   6.446  0.0780 -0.2630 -0.0709
26961SOL    HW182557   8.995   3.599   6.358  1.4172  0.1184 -0.6579
26961SOL    HW282558   9.078   3.697   6.437  1.5159 -1.0443  0.7145
26962SOL     OW82559   1.653   1.463   7.853 -0.3080  0.1048  0.3563
26962SOL    HW182560   1.648   1.504   7.940  1.3789  0.2560  0.4218
26962SOL    HW282561   1.732   1.501   7.814 -0.8612 -0.2063 -1.1304
26963SOL     OW82562   2.728   0.450   4.225 -0.5387  0.1312  0.8736
26963SOL    HW182563   2.644   0.404   4.230 -1.5493  1.1453 -3.2134
26963SOL    HW282564   2.777   0.403   4.158  1.2870  0.8707  1.6361
26964SOL     OW82565   8.774   1.197   0.312  0.6660  0.1983 -0.0863
26964SOL    HW182566   8.772   1.284   0.351 -1.6523 -0.1491  0.7470
26964SOL    HW282567   8.738   1.140   0.380 -0.8546 -0.8903 -1.7201
26965SOL     OW82568   5.795   0.489   7.994 -0.1248 -0.9473  0.3217
26965SOL    HW182569   5.842   0.563   7.956 -0.1186  0.7068  3.2730
26965SOL    HW282570   5.710   0.489   7.950  0.7390 -0.7783 -1.4365
26966SOL     OW82571   8.399   9.102   3.669  0.1958  0.1622 -0.1914
26966SOL    HW182572   8.492   9.109   3.647  0.3175 -0.5675  0.0782
26966SOL    HW282573   8.374   9.192   3.692  1.1266  0.1574  0.9297
26967SOL     OW82574   4.789   3.866   2.560 -0.2686  0.5943 -0.3906
26967SOL    HW182575   4.883   3.875   2.573 -0.0435 -1.2795 -0.4076
26967SOL    HW282576   4.765   3.941   2.505  0.8421  2.1521  1.1354
26968SOL     OW82577   3.418   1.748   2.554 -0.0157 -0.0134  0.3499
26968SOL    HW182578   3.482   1.796   2.501 -0.6813  0.9262  0.3571
26968SOL    HW282579   3.391   1.675   2.499 -1.1874  1.3135 -0.9412
26969SOL     OW82580   8.723   8.800   6.750  0.3974 -0.0198  0.0604
26969SOL    HW182581   8.700   8.781   6.841  0.8679  0.4097  0.2755
26969SOL    HW282582   8.665   8.744   6.699  0.2486 -0.3995  0.6271
26970SOL     OW82583   0.911   3.564   5.447 -0.1035 -0.0975 -0.2047
26970SOL    HW182584   0.916   3.615   5.366  1.8271 -1.1274 -0.7928
26970SOL    HW282585   0.907   3.473   5.418 -2.2231 -0.4056  0.8553
26971SOL     OW82586   0.888   4.158   3.671 -0.5787  0.3674  0.5863
26971SOL    HW182587   0.805   4.167   3.624  0.5468  1.7147 -1.3149
26971SOL    HW282588   0.884   4.224   3.740 -1.6090 -0.5195  1.4003
26972SOL     OW82589   7.739   3.671   7.928 -0.2108  0.3330  0.2956
26972SOL    HW182590   7.758   3.762   7.906  0.7701 -0.1258 -0.9405
26972SOL    HW282591   7.666   3.675   7.989 -0.8919  1.8974 -0.5748
26973SOL     OW82592   3.501   8.585   0.068 -0.4006  0.1609  0.3093
26973SOL    HW182593   3.475   8.496   0.092  0.6749 -0.1094  0.5156
26973SOL    HW282594   3.512   8.582  -0.027  1.9580 -0.6100  0.5279
26974SOL     OW82595   8.475   6.470   4.982  0.1629 -0.0613  0.4103
26974SOL    HW182596   8.498   6.519   4.903  0.7363 -2.9307 -1.3574
26974SOL    HW282597   8.384   6.493   5.000  0.7984  2.6671  0.5897
26975SOL     OW82598   8.150   1.970   0.932  0.1133 -0.3278 -0.1236
26975SOL    HW182599   8.126   2.052   0.977  0.7802 -0.2388  0.0802
26975SOL    HW282600   8.069   1.942   0.890 -0.4827 -0.3059  0.9686
26976SOL     OW82601   9.106   4.379   1.903 -1.0423 -0.8297 -0.1059
26976SOL    HW182602   9.155   4.453   1.939  0.1515 -1.7486  0.2322
26976SOL    HW282603   9.014   4.400   1.921 -0.6171 -0.2266  1.5261
26977SOL     OW82604   2.804   7.504   1.731 -0.8927  0.2933  0.6789
26977SOL    HW182605   2.853   7.451   1.794  0.3634  0.0217 -0.4879
26977SOL    HW282606   2.845   7.486   1.647 -2.7300  0.4004 -0.2976
26978SOL     OW82607   1.714   8.836   5.475  0.0819 -0.1665  0.5559
26978SOL    HW182608   1.739   8.920   5.436 -1.0896  0.0791  0.2940
26978SOL    HW282609   1.655   8.796   5.410 -0.8927 -0.3284  1.5160
26979SOL     OW82610   7.830   2.171   4.097 -0.4534  0.3000 -0.2777
26979SOL    HW182611   7.799   2.087   4.063  1.1920 -1.2933  1.8259
26979SOL    HW282612   7.925   2.165   4.093 -0.2321  3.2099 -2.4887
26980SOL     OW82613   4.848   2.668   5.832  0.1989  0.0534 -0.8525
26980SOL    HW182614   4.921   2.679   5.772  0.3905  0.5464 -0.5360
26980SOL    HW282615   4.890   2.643   5.915 -0.1003 -1.3023 -1.0780
26981SOL     OW82616   6.360   6.574   3.553  0.4676  0.2682  0.6519
26981SOL    HW182617   6.315   6.634   3.613 -1.3991  0.2480 -0.6509
26981SOL    HW282618   6.328   6.598   3.467  2.5302 -0.2018 -0.3036
26982SOL     OW82619   3.947   3.434   4.406 -0.3224 -0.4484 -0.4264
26982SOL    HW182620   3.915   3.368   4.345 -2.3584 -0.2614  0.3638
26982SOL    HW282621   3.932   3.517   4.361  0.5002 -0.4085 -0.6513
26983SOL     OW82622   7.576   3.980   4.649  0.5177 -0.3339  0.2880
26983SOL    HW182623   7.514   3.933   4.705  1.2763 -0.8547  0.7199
26983SOL    HW282624   7.616   4.044   4.707  1.3922 -0.9542  0.3944
26984SOL     OW82625   5.144   7.541   5.295  0.0768  0.0354 -0.4352
26984SOL    HW182626   5.124   7.448   5.284 -0.6850  0.1826 -0.3770
26984SOL    HW282627   5.239   7.547   5.284  0.0549 -0.6541 -1.1029
26985SOL     OW82628   5.328   7.369   5.675  0.1714  0.0585  0.2005
26985SOL    HW182629   5.362   7.377   5.586 -1.6266 -1.5145 -0.6937
26985SOL    HW282630   5.272   7.445   5.686  0.6396  0.4196  0.0983
26986SOL     OW82631   0.314   6.665   1.296 -0.2147 -0.5484  0.8433
26986SOL    HW182632   0.286   6.663   1.388  0.1264  1.1513  1.0134
26986SOL    HW282633   0.407   6.645   1.299 -0.0582  0.1669  0.9529
26987SOL     OW82634   9.054   0.599   3.718  0.2212 -0.2836 -0.4957
26987SOL    HW182635   9.033   0.692   3.706 -1.6425 -0.5411  0.3327
26987SOL    HW282636   8.969   0.559   3.738  1.0195 -2.1494 -0.7315
26988SOL     OW82637   6.708   8.668   1.269 -0.1332 -0.1852 -0.0465
26988SOL    HW182638   6.686   8.653   1.177  1.6011 -1.9523 -0.2397
26988SOL    HW282639   6.756   8.750   1.269  1.6216 -1.1388 -1.1042
26989SOL     OW82640   5.712   3.811   0.183 -0.6352  0.0869  0.7530
26989SOL    HW182641   5.783   3.871   0.206 -0.9156  0.0233  1.8312
26989SOL    HW282642   5.689   3.835   0.093  1.4019 -0.5638 -0.0003
26990SOL     OW82643   6.960   9.222   9.195  0.1086 -0.0033 -0.2704
26990SOL    HW182644   6.865   9.216   9.202  0.1890 -2.0270 -0.1893
26990SOL    HW282645   6.993   9.165   9.265  1.3762  0.5255 -0.4081
26991SOL     OW82646   0.312   8.961   5.534 -0.2544  0.3729 -0.0275
26991SOL    HW182647   0.343   8.873   5.553  0.7172  0.6415 -0.3325
26991SOL    HW282648   0.296   9.001   5.620 -0.0041  0.1445  0.1238
26992SOL     OW82649   7.902   0.947   8.504  0.0449 -0.5726 -0.1038
26992SOL    HW182650   7.977   0.934   8.561 -0.1981  1.8940  0.9012
26992SOL    HW282651   7.830   0.969   8.563 -0.0939  2.6471 -1.2803
26993SOL     OW82652   6.820   2.412   7.998 -0.4559  0.0435  0.1871
26993SOL    HW182653   6.783   2.341   8.050  0.2610 -0.0807  0.5302
26993SOL    HW282654   6.853   2.370   7.919  1.2756 -0.2491  1.0201
26994SOL     OW82655   8.361   7.830   7.286  0.2815 -0.5910  0.2111
26994SOL    HW182656   8.437   7.881   7.314  0.5023 -0.4680 -0.5758
26994SOL    HW282657   8.377   7.742   7.319  1.3751 -0.8666 -0.9782
26995SOL     OW82658   3.317   9.569   4.239  1.0407  0.2841  0.1801
26995SOL    HW182659   3.264   9.534   4.311  1.9643  0.5558  1.0238
26995SOL    HW282660   3.254   9.591   4.171  0.1687 -0.2575  0.7928
26996SOL     OW82661   8.092   7.393   6.935 -0.4543  0.1453 -0.3820
26996SOL    HW182662   8.060   7.357   6.853  0.2174  0.4603 -0.7944
26996SOL    HW282663   8.044   7.346   7.003 -0.0862 -1.0371 -0.9142
26997SOL     OW82664   3.863   5.013   2.955  0.1731 -0.1367  0.0361
26997SOL    HW182665   3.921   4.988   3.026 -1.0451  0.7684  1.4082
26997SOL    HW282666   3.922   5.027   2.880  1.8371  1.3209  1.4972
26998SOL     OW82667   8.422   4.809   7.616 -0.4028 -0.4869 -0.2722
26998SOL    HW182668   8.394   4.883   7.671 -0.1335 -0.7444  0.2158
26998SOL    HW282669   8.512   4.791   7.644 -0.1087 -0.3381 -1.1079
26999SOL     OW82670   7.330   3.487   3.898  0.0559 -0.0207 -0.2135
26999SOL    HW182671   7.335   3.583   3.905 -0.6690  0.0812 -0.9572
26999SOL    HW282672   7.351   3.468   3.806 -1.2466 -0.4483 -0.4427
27000SOL     OW82673   1.596   3.885   1.213 -0.3103  0.1701  0.1389
27000SOL    HW182674   1.654   3.960   1.200 -1.0249  0.3223 -2.8246
27000SOL    HW282675   1.595   3.872   1.308  2.2229  1.9709  0.5165
27001SOL     OW82676   2.431   3.617   6.664  0.0411 -0.0170  0.0499
27001SOL    HW182677   2.487   3.679   6.617  0.7269 -1.8336 -1.6974
27001SOL    HW282678   2.492   3.556   6.706 -0.5160 -1.8459 -1.6332
27002SOL     OW82679   0.690   3.625   3.881  0.1982  0.0791 -0.1572
27002SOL    HW182680   0.753   3.674   3.934 -0.8141  1.9953 -0.6129
27002SOL    HW282681   0.738   3.602   3.802  1.0225 -0.6815  0.5484
27003SOL     OW82682   8.517   1.333   0.661 -0.4093 -0.1405 -0.1947
27003SOL    HW182683   8.470   1.416   0.669 -1.7826 -0.9042  0.0017
27003SOL    HW282684   8.469   1.273   0.718  2.2154 -0.4014  1.9456
27004SOL     OW82685   4.654   9.117   9.199  0.3127 -0.6142  0.2368
27004SOL    HW182686   4.669   9.158   9.285  0.8481 -2.0512  0.8643
27004SOL    HW282687   4.559   9.122   9.186 -0.0413 -2.0470  1.8312
27005SOL     OW82688   4.189   6.967   3.660 -0.2272  0.9386  0.2260
27005SOL    HW182689   4.232   6.923   3.587 -1.4473  1.1525 -0.6573
27005SOL    HW282690   4.153   6.896   3.713  1.5582  0.7352  1.2417
27006SOL     OW82691   1.265   0.375   5.783  0.3591 -0.3430  0.3358
27006SOL    HW182692   1.228   0.414   5.863  0.8666 -1.5681  1.1921
27006SOL    HW282693   1.356   0.403   5.784  0.7363 -1.5458  0.9756
27007SOL     OW82694   5.407   1.925   8.965 -0.1974  0.2703  0.0814
27007SOL    HW182695   5.345   1.870   8.917 -0.5955 -0.5850  1.4957
27007SOL    HW282696   5.482   1.935   8.906 -0.7204 -0.6067 -0.7619
27008SOL     OW82697   8.397   5.435   5.069 -0.0278  0.4115 -0.7609
27008SOL    HW182698   8.421   5.437   4.976 -2.0561 -0.0433 -1.3626
27008SOL    HW282699   8.375   5.343   5.085 -1.1525  0.7597 -0.2552
27009SOL     OW82700   8.493   0.791   0.209  0.3261  0.2224  0.0263
27009SOL    HW182701   8.456   0.862   0.261 -1.8536 -2.3179  2.2455
27009SOL    HW282702   8.445   0.794   0.126  0.7460  1.6708 -0.1989
27010SOL     OW82703   3.344   1.071   8.300 -0.2900 -0.2105  0.3197
27010SOL    HW182704   3.417   1.125   8.269 -1.1037  1.3812  1.0410
27010SOL    HW282705   3.290   1.057   8.222 -0.7591  1.2017  0.3543
27011SOL     OW82706   8.889   4.207   1.674  0.0963  0.0996 -0.0838
27011SOL    HW182707   8.856   4.260   1.746  0.1335 -2.3588  1.9073
27011SOL    HW282708   8.973   4.172   1.706  1.0096  0.3435 -2.0676
27012SOL     OW82709   2.746   9.361   0.668 -0.3453  0.2342  0.4817
27012SOL    HW182710   2.806   9.409   0.725 -0.1938 -2.2442  2.5572
27012SOL    HW282711   2.801   9.295   0.625 -0.9813  0.2469 -0.3882
27013SOL     OW82712   5.675   4.632   6.493 -0.2889 -0.5159 -0.0302
27013SOL    HW182713   5.639   4.717   6.469  1.0441  0.1035  0.0326
27013SOL    HW282714   5.705   4.595   6.410  1.9388  0.4775  0.2469
27014SOL     OW82715   0.589   5.273   2.546  0.5458  0.8488 -0.5117
27014SOL    HW182716   0.494   5.283   2.541  0.4566  1.5065  1.4628
27014SOL    HW282717   0.605   5.183   2.521 -0.4320  1.1261 -2.3076
27015SOL     OW82718   6.919   9.527   6.236  0.0178 -0.0514 -0.5525
27015SOL    HW182719   6.857   9.503   6.167 -0.3584 -0.7830  0.0311
27015SOL    HW282720   6.923   9.450   6.292  2.4495 -0.5464 -1.2802
27016SOL     OW82721   0.110   5.975   0.972  0.3896  0.5089 -0.0445
27016SOL    HW182722   0.167   6.046   1.003  0.0003  0.9808 -0.3790
27016SOL    HW282723   0.047   6.019   0.914 -0.4846  0.0400  0.5317
27017SOL     OW82724   5.115   9.384   2.285  0.2252  0.5829  0.4573
27017SOL    HW182725   5.173   9.372   2.360 -0.1542  0.2136  0.6914
27017SOL    HW282726   5.029   9.359   2.316 -0.5685  3.3947  0.8366
27018SOL     OW82727   6.710   3.848   5.040 -0.1982 -0.6484  0.4056
27018SOL    HW182728   6.701   3.835   5.134  1.4995 -0.7772  0.5861
27018SOL    HW282729   6.633   3.898   5.015 -1.2335 -1.5593  1.6588
27019SOL     OW82730   3.304   2.138   3.752 -0.2552  0.2466 -0.3677
27019SOL    HW182731   3.215   2.155   3.721 -0.9265 -3.1436 -0.6313
27019SOL    HW282732   3.292   2.083   3.830  1.6223  1.5586  0.9325
27020SOL     OW82733   7.947   8.236   9.083 -0.2246  0.0813  0.6768
27020SOL    HW182734   7.898   8.288   9.019 -0.6950  1.1293  1.8298
27020SOL    HW282735   7.943   8.289   9.163  3.2815  0.5088  0.6999
27021SOL     OW82736   9.433   3.975   5.370  0.5312  0.4901  0.1874
27021SOL    HW182737   9.376   3.926   5.310 -1.7192  1.6387  1.2648
27021SOL    HW282738   9.386   3.975   5.453  1.3080  2.9290  0.6899
27022SOL     OW82739   8.961   8.096   4.304 -0.4974 -0.0228  0.0893
27022SOL    HW182740   8.868   8.092   4.327 -0.2076  2.8655  2.3410
27022SOL    HW282741   8.964   8.147   4.224 -0.8169  0.2325  0.2390
27023SOL     OW82742   8.403   1.080   2.717 -0.8166  0.2069  0.0119
27023SOL    HW182743   8.325   1.066   2.770 -2.3621 -1.6807 -2.5261
27023SOL    HW282744   8.404   1.007   2.655  2.6172  0.5273 -0.5399
27024SOL     OW82745   5.672   5.448   4.002 -0.0483 -0.2746  0.2426
27024SOL    HW182746   5.601   5.486   4.054 -0.1259  1.1424 -0.8343
27024SOL    HW282747   5.752   5.479   4.046 -0.0122 -2.4112  1.8473
27025SOL     OW82748   3.178   2.715   3.012  0.1432 -0.1419 -0.2830
27025SOL    HW182749   3.242   2.785   3.024  1.7375 -1.2786 -1.6872
27025SOL    HW282750   3.187   2.662   3.091 -0.4314  0.7135  0.3749
27026SOL     OW82751   1.461   6.056   3.407 -0.1259 -0.1463 -0.1452
27026SOL    HW182752   1.374   6.091   3.391  0.1445  2.3011  2.7213
27026SOL    HW282753   1.519   6.110   3.354 -0.1559 -0.0099 -0.0394
27027SOL     OW82754   1.081   4.254   8.443  0.3670  0.3913 -0.0136
27027SOL    HW182755   1.101   4.255   8.349 -1.4851  0.2849 -0.4545
27027SOL    HW282756   1.004   4.199   8.450  0.1765  0.8145  1.5166
27028SOL     OW82757   6.004   8.898   6.502 -0.8294 -0.0748  0.5665
27028SOL    HW182758   5.980   8.898   6.595 -1.1391  1.2259  0.4989
27028SOL    HW282759   6.063   8.973   6.493 -1.7672  0.5419 -0.5377
27029SOL     OW82760   3.228   1.759   5.014 -0.5446 -0.6457 -0.1783
27029SOL    HW182761   3.282   1.797   4.945 -0.0645  0.3579  0.7292
27029SOL    HW282762   3.291   1.732   5.081 -1.1073 -0.0382  0.6125
27030SOL     OW82763   5.854   5.420   3.035 -0.3793  0.8443 -0.4227
27030SOL    HW182764   5.790   5.350   3.051 -1.5156  1.9396  0.0152
27030SOL    HW282765   5.811   5.500   3.066  0.8592  1.7620 -0.9538
27031SOL     OW82766   5.554   5.990   4.454  0.2761 -0.0415  0.2311
27031SOL    HW182767   5.484   5.929   4.429  0.5555  0.0334 -0.7665
27031SOL    HW282768   5.526   6.025   4.539 -0.3531 -0.8393  0.3655
27032SOL     OW82769   0.772   1.140   0.171 -0.1410 -0.1240 -0.4595
27032SOL    HW182770   0.867   1.149   0.186 -0.4699  0.8663  1.2265
27032SOL    HW282771   0.732   1.183   0.245 -1.9530 -2.5912  0.1234
27033SOL     OW82772   9.606   7.414   4.582  0.5222  0.0971  0.5262
27033SOL    HW182773   9.589   7.320   4.591  0.3091  0.1561  0.7444
27033SOL    HW282774   9.699   7.423   4.602  0.5103 -0.0480  0.6546
27034SOL     OW82775   6.318   8.486   5.015  0.3164 -0.1948  0.3538
27034SOL    HW182776   6.231   8.490   5.054  0.5556  0.9924  0.8428
27034SOL    HW282777   6.376   8.463   5.088  0.3965 -1.1329 -0.0010
27035SOL     OW82778   7.270   6.643   8.130 -0.2680  0.0907 -0.4596
27035SOL    HW182779   7.343   6.687   8.086  1.0184 -0.3364  1.1287
27035SOL    HW282780   7.196   6.654   8.070  1.0253  0.7436 -2.0365
27036SOL     OW82781   6.584   2.184   7.211  0.3550 -0.3744  0.0877
27036SOL    HW182782   6.540   2.190   7.126  0.1753  0.6924  0.2436
27036SOL    HW282783   6.537   2.246   7.267  1.4945  0.1549  0.4941
27037SOL     OW82784   3.780   7.275   3.185 -0.0452 -0.1096 -0.3708
27037SOL    HW182785   3.836   7.224   3.243 -1.3567 -0.3939  0.6902
27037SOL    HW282786   3.773   7.221   3.106  0.2121 -0.6285 -0.0503
27038SOL     OW82787   1.162   5.522   8.992 -0.3600 -0.3701 -0.0384
27038SOL    HW182788   1.111   5.602   9.004 -0.1929 -0.3176  0.3384
27038SOL    HW282789   1.208   5.510   9.075  1.7202  0.6341 -0.9769
27039SOL     OW82790   5.273   4.642   2.819  0.2462 -0.3914  0.2079
27039SOL    HW182791   5.241   4.721   2.863  0.8438 -0.7009  1.2412
27039SOL    HW282792   5.358   4.625   2.859  0.4603 -1.1396 -0.5360
27040SOL     OW82793   5.836   9.292   5.407  0.1937 -0.2757  0.7040
27040SOL    HW182794   5.917   9.273   5.455 -0.0708  0.8803  1.6560
27040SOL    HW282795   5.772   9.232   5.443  0.3949 -0.5432  0.6197
27041SOL     OW82796   6.788   3.709   2.859  0.2867 -0.0399  0.3202
27041SOL    HW182797   6.856   3.694   2.794  1.1210 -1.6089  1.5026
27041SOL    HW282798   6.724   3.765   2.814  0.6482 -1.3348 -1.9457
27042SOL     OW82799   9.445   2.832   1.363  0.0048 -0.0936 -0.0700
27042SOL    HW182800   9.433   2.802   1.273 -2.6415  1.8589 -0.5063
27042SOL    HW282801   9.393   2.771   1.416  0.5598 -0.5183 -0.0081
27043SOL     OW82802   2.007   4.414   0.124  0.3801  0.2605  0.5794
27043SOL    HW182803   2.035   4.326   0.099 -0.2780 -0.0839  0.9987
27043SOL    HW282804   1.915   4.403   0.150  0.7271  0.7730  2.1223
27044SOL     OW82805   5.622   8.536   3.166 -0.6498 -0.1617 -0.0273
27044SOL    HW182806   5.632   8.629   3.144 -1.7513  0.3958  1.6030
27044SOL    HW282807   5.705   8.513   3.208  0.0660 -0.2625 -1.4296
27045SOL     OW82808   1.438   9.581   5.651 -0.1586  0.8063 -0.0328
27045SOL    HW182809   1.489   9.607   5.574 -0.8896  0.7926 -0.5290
27045SOL    HW282810   1.437   9.485   5.647 -1.8548  0.8410 -1.1238
27046SOL     OW82811   0.348   1.072   2.122  0.5644 -0.2523 -0.0931
27046SOL    HW182812   0.395   1.149   2.154 -0.5153  1.3688 -2.2107
27046SOL    HW282813   0.367   1.069   2.029  0.8650 -2.8256 -0.0166
27047SOL     OW82814   0.589   6.598   4.787  0.5812 -1.0696 -0.2683
27047SOL    HW182815   0.626   6.686   4.795 -1.7531  0.0369 -0.7493
27047SOL    HW282816   0.613   6.569   4.699 -0.5379  0.0833 -0.9912
27048SOL     OW82817   4.460   9.229   1.615 -0.0504 -0.0845  0.3537
27048SOL    HW182818   4.494   9.164   1.553 -0.7659 -0.6999  0.5791
27048SOL    HW282819   4.426   9.299   1.560  0.9417  0.2207  0.1113
27049SOL     OW82820   1.606   6.146   1.332  0.5242  0.5856  0.1787
27049SOL    HW182821   1.598   6.240   1.350 -2.5287 -0.0251  2.7806
27049SOL    HW282822   1.532   6.127   1.274 -0.0517 -0.4808  1.2232
27050SOL     OW82823   3.134   7.844   3.328 -0.6409  0.1755 -0.1886
27050SOL    HW182824   3.091   7.893   3.398 -1.2171 -0.6430  0.0545
27050SOL    HW282825   3.096   7.756   3.335 -0.1798 -0.0991 -1.0804
27051SOL     OW82826   7.428   3.866   9.067 -0.0692 -0.0219 -0.0142
27051SOL    HW182827   7.387   3.951   9.051 -0.1412 -0.3827 -1.9307
27051SOL    HW282828   7.517   3.876   9.035  0.5940 -0.0491  1.7230
27052SOL     OW82829   1.757   8.005   8.967  0.0913 -0.1521 -0.3264
27052SOL    HW182830   1.793   7.926   9.009 -1.3071 -1.0919 -0.8266
27052SOL    HW282831   1.792   8.002   8.878 -0.5242 -0.6035 -0.5578
27053SOL     OW82832   6.176   1.302   4.909  0.1639 -0.0708 -0.2447
27053SOL    HW182833   6.243   1.265   4.852  0.5784  0.4069 -0.0781
27053SOL    HW282834   6.093   1.272   4.872  0.4942 -2.2367  0.6045
27054SOL     OW82835   8.748   8.619   5.192  0.5279 -0.1282  0.4008
27054SOL    HW182836   8.837   8.641   5.166  0.0717  0.2459 -0.9089
27054SOL    HW282837   8.717   8.559   5.124  0.7742 -2.7200  2.3941
27055SOL     OW82838   7.981   9.179   6.174  0.2073  0.3533  0.3041
27055SOL    HW182839   8.026   9.112   6.124  1.5661  1.5764 -0.1857
27055SOL    HW282840   7.896   9.189   6.130  0.8740  0.5125 -1.0010
27056SOL     OW82841   8.312   8.062   3.481 -0.2801  0.5705  0.2279
27056SOL    HW182842   8.393   8.041   3.527 -0.3584 -0.0356  0.1041
27056SOL    HW282843   8.244   8.058   3.549 -0.4098 -0.4268  0.0541
27057SOL     OW82844   0.920   4.390   9.507  0.2262 -0.3698  0.6993
27057SOL    HW182845   0.931   4.449   9.582  0.9695 -1.2820  1.3233
27057SOL    HW282846   0.865   4.319   9.540 -1.8914  0.6277 -0.4461
27058SOL     OW82847   9.500   2.012   4.488  0.4644 -0.2768 -0.7833
27058SOL    HW182848   9.421   1.964   4.464 -0.1049 -0.0684  0.5503
27058SOL    HW282849   9.471   2.103   4.494  0.8112 -0.1919 -0.3424
27059SOL     OW82850   7.345   6.112   4.337  0.3877 -0.2102 -0.2556
27059SOL    HW182851   7.250   6.102   4.338  0.3435  0.0675  1.3001
27059SOL    HW282852   7.365   6.144   4.250 -0.9326 -0.4096 -0.6535
27060SOL     OW82853   2.237   6.840   1.795  0.0122 -0.5438 -0.0904
27060SOL    HW182854   2.152   6.824   1.753 -1.3570 -1.5313  2.7499
27060SOL    HW282855   2.298   6.784   1.749 -1.6944 -2.6714  0.0889
27061SOL     OW82856   8.222   4.071   0.728 -0.1463 -0.6629 -0.4740
27061SOL    HW182857   8.226   4.073   0.824  0.3191 -1.2164 -0.4747
27061SOL    HW282858   8.257   4.156   0.701  0.3361 -0.7514 -0.1604
27062SOL     OW82859   2.102   1.984   1.781  0.0911  0.3502  0.1860
27062SOL    HW182860   2.105   2.073   1.745 -0.0965  0.2260 -0.1408
27062SOL    HW282861   2.038   1.989   1.852  0.8330  0.7164  0.8500
27063SOL     OW82862   2.821   6.382   9.581 -0.2751  0.0671  0.2944
27063SOL    HW182863   2.853   6.375   9.491 -1.7372  1.4577 -0.3882
27063SOL    HW282864   2.848   6.469   9.610 -0.9503  0.1431  0.7244
27064SOL     OW82865   4.338   2.770   6.219  0.2016  0.3036  0.2840
27064SOL    HW182866   4.370   2.852   6.255  0.6848  1.4481 -2.4629
27064SOL    HW282867   4.417   2.726   6.186 -0.2744 -0.2952 -0.0889
27065SOL     OW82868   9.533   2.925   1.759  0.0271  0.1032 -0.6178
27065SOL    HW182869   9.471   2.892   1.825  2.6259 -0.5219  1.7121
27065SOL    HW282870   9.528   3.020   1.767  0.0118  0.0439  0.2272
27066SOL     OW82871   5.032   5.138   9.298  0.3568  0.2478 -0.1626
27066SOL    HW182872   5.038   5.044   9.283  0.4939  0.4966 -1.9074
27066SOL    HW282873   5.091   5.176   9.233 -1.0540  1.6226 -0.7040
27067SOL     OW82874   7.864   6.495   6.543 -0.5062  0.2049 -0.4817
27067SOL    HW182875   7.879   6.416   6.594  0.7987  1.0025  0.4533
27067SOL    HW282876   7.952   6.525   6.518 -0.8958  1.7091 -0.1991
27068SOL     OW82877   9.135   3.962   1.458  0.3522 -0.4038  0.0891
27068SOL    HW182878   9.085   3.884   1.437  0.7514 -0.9054  0.9358
27068SOL    HW282879   9.098   4.030   1.402  0.6068 -1.3915 -1.3292
27069SOL     OW82880   8.816   8.029   8.324 -0.6114 -0.0482 -0.6699
27069SOL    HW182881   8.783   8.113   8.354 -0.4753 -0.2929  0.1945
27069SOL    HW282882   8.869   7.996   8.397  2.4305  0.7769 -2.3364
27070SOL     OW82883   5.271   8.335   8.575 -0.1298 -0.1906  0.1943
27070SOL    HW182884   5.298   8.381   8.496  0.0404  0.9387  0.8817
27070SOL    HW282885   5.297   8.244   8.561 -0.8050 -0.1756 -1.3623
27071SOL     OW82886   8.548   5.458   1.751 -0.3050 -0.1330 -0.3272
27071SOL    HW182887   8.524   5.474   1.842  0.1774  0.5568 -0.3151
27071SOL    HW282888   8.466   5.468   1.702 -0.4353  0.1653 -0.0492
27072SOL     OW82889   6.435   9.075   8.379  0.0152  0.0318 -0.3425
27072SOL    HW182890   6.365   9.113   8.432  0.4725  1.6575 -0.8340
27072SOL    HW282891   6.495   9.149   8.362  1.2584 -1.0532 -0.8720
27073SOL     OW82892   4.379   9.508   7.716  0.5419  0.0002 -0.0935
27073SOL    HW182893   4.439   9.477   7.784  1.2287  3.1601  0.9042
27073SOL    HW282894   4.433   9.565   7.660 -0.8908  0.6103 -0.9283
27074SOL     OW82895   8.363   2.755   8.927 -0.4390 -1.1144 -0.1817
27074SOL    HW182896   8.410   2.737   9.008  2.4567  1.7803 -0.9954
27074SOL    HW282897   8.357   2.670   8.884  1.6984 -2.1061  1.2625
27075SOL     OW82898   3.989   7.102   1.550 -0.0425 -0.2035 -0.0328
27075SOL    HW182899   4.013   7.036   1.485  1.1537  0.0935  0.0867
27075SOL    HW282900   4.067   7.110   1.605 -0.1140  1.4065 -0.1281
27076SOL     OW82901   0.584   3.288   5.185 -0.0464  0.1067  0.4044
27076SOL    HW182902   0.671   3.302   5.222 -0.0766  0.6980  0.2498
27076SOL    HW282903   0.525   3.291   5.260 -0.0506  0.7945  0.3796
27077SOL     OW82904   9.348   6.553   3.343 -0.6897  0.1796  0.2870
27077SOL    HW182905   9.360   6.477   3.401  3.3602  0.3232 -0.0948
27077SOL    HW282906   9.352   6.517   3.255 -3.9215  0.3497 -0.0626
27078SOL     OW82907   6.266   8.086   2.862  0.5264  0.1294 -0.0385
27078SOL    HW182908   6.354   8.090   2.823  1.1699 -0.5926  1.2574
27078SOL    HW282909   6.282   8.089   2.957 -0.8551  0.0018  0.2189
27079SOL     OW82910   7.421   6.322   8.451 -0.5675 -0.0286 -0.9803
27079SOL    HW182911   7.503   6.338   8.497 -1.1797  0.5960 -0.0614
27079SOL    HW282912   7.391   6.237   8.483 -0.7117  0.1513 -0.6221
27080SOL     OW82913   0.337   8.041   1.097  0.1385 -0.5684 -0.4006
27080SOL    HW182914   0.394   7.967   1.119  0.0593 -0.9244 -1.3290
27080SOL    HW282915   0.249   8.002   1.091 -0.0216 -0.2509 -0.1517
27081SOL     OW82916   9.441   1.263   9.545  0.4463 -0.2639 -1.2048
27081SOL    HW182917   9.520   1.230   9.587 -0.2074 -0.6447 -0.2528
27081SOL    HW282918   9.406   1.188   9.497  1.4470  0.2852 -2.9043
27082SOL     OW82919   8.347   9.587   0.525 -0.1068 -0.2261 -0.1827
27082SOL    HW182920   8.432   9.631   0.531  0.6251 -1.7267  1.2079
27082SOL    HW282921   8.335   9.571   0.431  0.9002  0.4557 -0.4456
27083SOL     OW82922   2.556   7.089   3.876 -0.0522  0.0089 -0.2038
27083SOL    HW182923   2.588   7.178   3.891 -1.2553  0.1234  2.2060
27083SOL    HW282924   2.464   7.099   3.854 -0.2808 -0.6312  0.4035
27084SOL     OW82925   0.776   1.394   1.648 -0.1084  0.6520 -0.3148
27084SOL    HW182926   0.764   1.448   1.726 -0.1562 -1.7896  1.4964
27084SOL    HW282927   0.701   1.334   1.648  0.7675 -0.5040 -1.2732
27085SOL     OW82928   9.565   0.323   1.462 -0.1277  0.2105  0.1322
27085SOL    HW182929   9.484   0.278   1.487  0.1804 -0.4894 -0.1144
27085SOL    HW282930   9.540   0.373   1.385 -0.8853  1.7735  1.3334
27086SOL     OW82931   5.770   7.439   7.126 -0.2370 -0.2993  0.1692
27086SOL    HW182932   5.828   7.456   7.052 -0.7215 -0.5373 -0.2683
27086SOL    HW282933   5.770   7.521   7.175  0.6541 -0.3711  0.3093
27087SOL     OW82934   0.727   5.345   1.911  0.8082 -0.4503  0.1817
27087SOL    HW182935   0.713   5.385   1.997  0.2070  0.8964 -0.5026
27087SOL    HW282936   0.732   5.420   1.851  0.4955 -1.3853 -1.0473
27088SOL     OW82937   4.319   4.547   1.338 -0.1096  0.0794 -0.0107
27088SOL    HW182938   4.338   4.503   1.255  0.9077 -0.9783  0.7548
27088SOL    HW282939   4.388   4.612   1.347  1.4387 -1.6374  1.2596
27089SOL     OW82940   5.190   4.966   8.391  0.0436 -0.0052  0.2402
27089SOL    HW182941   5.102   4.962   8.428 -0.1719 -4.1418 -0.2319
27089SOL    HW282942   5.186   5.038   8.327 -2.1020  1.6664  2.0778
27090SOL     OW82943   4.031   8.610   3.611  0.2126 -0.6623 -0.5704
27090SOL    HW182944   4.090   8.640   3.542 -0.5048  1.5262 -0.3002
27090SOL    HW282945   3.947   8.651   3.590 -0.0408  0.0155  1.5678
27091SOL     OW82946   6.086   0.319   3.079 -0.2959 -0.3784 -0.5481
27091SOL    HW182947   6.056   0.402   3.040  1.1557  0.6743  0.4876
27091SOL    HW282948   6.179   0.333   3.097 -0.3340 -1.7376  0.9130
27092SOL     OW82949   4.173   4.960   2.272 -0.5500  0.0362 -0.2834
27092SOL    HW182950   4.134   4.954   2.185 -0.0423 -0.1272 -0.5008
27092SOL    HW282951   4.257   5.002   2.258  0.5773 -2.0558 -0.2168
27093SOL     OW82952   7.849   9.202   0.978 -0.3743  0.4816  0.4744
27093SOL    HW182953   7.913   9.212   1.048 -0.7575  1.2047  0.7234
27093SOL    HW282954   7.835   9.291   0.945  1.1245 -0.0176 -1.7220
27094SOL     OW82955   0.470   9.140   3.150  0.3104  0.4499  0.2620
27094SOL    HW182956   0.420   9.212   3.189 -1.7397 -0.3382 -0.7670
27094SOL    HW282957   0.559   9.152   3.183  0.0654  3.4623  0.1124
27095SOL     OW82958   9.310   6.440   2.653 -0.2883  0.0960 -0.3926
27095SOL    HW182959   9.293   6.394   2.570 -0.6981 -1.7445  0.6600
27095SOL    HW282960   9.306   6.371   2.720  2.0774  1.1645  0.9683
27096SOL     OW82961   3.329   3.668   1.940  0.3249  0.0256  0.2436
27096SOL    HW182962   3.372   3.658   1.856 -1.1999  1.1274 -0.7306
27096SOL    HW282963   3.312   3.762   1.947 -1.6165 -0.3028  0.6720
27097SOL     OW82964   0.612   7.317   1.325  0.4115 -0.0061  0.3732
27097SOL    HW182965   0.694   7.268   1.331 -0.4229 -1.8644 -1.7495
27097SOL    HW282966   0.549   7.263   1.373 -0.3449 -0.7349 -1.3197
27098SOL     OW82967   1.568   6.861   0.081  0.0025  0.2736 -0.1670
27098SOL    HW182968   1.595   6.881  -0.008  1.5510  1.7090  0.5926
27098SOL    HW282969   1.487   6.910   0.093  0.0156  0.4125 -0.6326
27099SOL     OW82970   9.410   6.362   7.988 -0.1314  0.4980 -0.0439
27099SOL    HW182971   9.321   6.370   7.954 -0.1900  2.8033  0.4630
27099SOL    HW282972   9.462   6.420   7.932  0.8624 -0.0329  0.3066
27100SOL     OW82973   6.323   0.932   0.875 -0.5603  0.2386 -0.0724
27100SOL    HW182974   6.274   0.851   0.892 -0.5399  0.5711  1.7506
27100SOL    HW282975   6.410   0.916   0.913  0.0844  0.4282 -1.4167
27101SOL     OW82976   3.858   6.720   7.726  0.2122  0.4559 -0.0493
27101SOL    HW182977   3.802   6.668   7.784  1.3983 -1.1422 -0.2583
27101SOL    HW282978   3.855   6.808   7.762 -2.2264  0.3902  0.0751
27102SOL     OW82979   3.600   9.242   4.796  0.4994  0.0734 -0.3644
27102SOL    HW182980   3.651   9.284   4.727  1.2735  0.0241  0.1693
27102SOL    HW282981   3.542   9.182   4.749  1.4616 -0.4334 -0.9541
27103SOL     OW82982   3.615   4.291   2.351  0.4845 -0.3717 -0.2378
27103SOL    HW182983   3.548   4.230   2.324 -0.3199  1.0715 -1.6572
27103SOL    HW282984   3.617   4.358   2.283  1.1459  1.3227  1.3398
27104SOL     OW82985   3.369   4.581   6.107  0.3732 -0.0706  0.0295
27104SOL    HW182986   3.336   4.524   6.037  0.3776  1.1391 -0.9974
27104SOL    HW282987   3.400   4.521   6.175  0.2922 -1.2775 -0.9703
27105SOL     OW82988   6.620   8.453   0.454  0.8111 -0.4632 -0.9228
27105SOL    HW182989   6.666   8.509   0.517  0.0124  0.3781 -1.0642
27105SOL    HW282990   6.653   8.483   0.369 -0.7417  0.9103 -1.1004
27106SOL     OW82991   1.146   0.454   6.022 -0.7992  0.0173 -0.1572
27106SOL    HW182992   1.179   0.531   6.068 -0.2246  0.1356 -0.7541
27106SOL    HW282993   1.051   0.467   6.016 -0.7442  0.5082  0.0436
27107SOL     OW82994   9.566   1.227   1.565 -0.6945 -0.5650  0.2673
27107SOL    HW182995   9.529   1.260   1.646  0.1521 -1.6287  1.1157
27107SOL    HW282996   9.490   1.212   1.508 -1.1723  1.8669  0.1629
27108SOL     OW82997   4.734   2.191   5.322  0.1405 -0.0444  0.2874
27108SOL    HW182998   4.721   2.205   5.416 -2.4700  0.1927 -0.0311
27108SOL    HW282999   4.811   2.244   5.301 -0.2980  1.3945  1.9746
27109SOL     OW83000   1.926   4.623   8.048 -0.4202  0.1943 -0.2927
27109SOL    HW183001   1.956   4.708   8.082  0.0490 -0.3728  0.7690
27109SOL    HW283002   1.851   4.600   8.103 -0.3309 -0.2412 -0.3502
27110SOL     OW83003   3.147   3.903   0.831  0.2378  0.2273 -0.2432
27110SOL    HW183004   3.185   3.903   0.743  0.0247 -4.0507 -0.5160
27110SOL    HW283005   3.074   3.841   0.826  0.6412 -0.7057  3.1220
27111SOL     OW83006   6.815   4.216   7.802 -0.2245  0.6510  0.2796
27111SOL    HW183007   6.784   4.197   7.713  0.0906  0.3708  0.2269
27111SOL    HW283008   6.771   4.152   7.857 -0.1581  0.6028  0.2770
27112SOL     OW83009   3.362   1.994   4.003  0.5053 -0.0625  0.1704
27112SOL    HW183010   3.382   2.084   4.030  0.8005 -0.5873  1.7980
27112SOL    HW283011   3.447   1.958   3.978  0.5522 -0.1996  0.5211
27113SOL     OW83012   4.468   0.101   8.894  0.9453 -0.0917 -0.1016
27113SOL    HW183013   4.518   0.131   8.970  0.2681 -1.2045  0.8142
27113SOL    HW283014   4.406   0.038   8.930 -2.0699  2.1843 -0.9662
27114SOL     OW83015   2.423   7.033   7.300  0.4011 -0.1508 -0.2711
27114SOL    HW183016   2.438   6.957   7.243  1.5949 -0.0969 -0.0525
27114SOL    HW283017   2.426   7.108   7.241  1.2274 -0.1280 -0.2108
27115SOL     OW83018   4.033   2.887   7.035  0.2202 -0.3609 -0.1621
27115SOL    HW183019   4.117   2.913   6.999  0.4127 -0.7381  0.0159
27115SOL    HW283020   4.053   2.845   7.118 -0.2630  1.0434  0.7046
27116SOL     OW83021   3.322   9.658   3.328  0.4916  1.0665 -0.0439
27116SOL    HW183022   3.266   9.598   3.280 -0.9268  0.9407  1.6903
27116SOL    HW283023   3.374   9.702   3.260  1.2239 -1.6825 -1.4188
27117SOL     OW83024   6.058   0.094   0.362 -0.0074 -0.5316 -0.4625
27117SOL    HW183025   5.970   0.058   0.350  0.1295 -1.3691  0.9190
27117SOL    HW283026   6.116   0.025   0.330  0.1705  0.8915 -3.5445
27118SOL     OW83027   9.490   7.851   2.381 -0.4682  0.1535 -0.0078
27118SOL    HW183028   9.419   7.895   2.426  0.1572  2.3491 -1.0457
27118SOL    HW283029   9.569   7.895   2.411  0.0808  0.6634 -2.0099
27119SOL     OW83030   7.880   2.718   3.491  0.3429  0.1823  0.2439
27119SOL    HW183031   7.853   2.700   3.401  0.3498  0.8876  0.0902
27119SOL    HW283032   7.951   2.782   3.481  0.9677 -0.4279  0.7132
27120SOL     OW83033   0.900   9.507   2.505 -0.2126  0.7741 -0.0439
27120SOL    HW183034   0.890   9.592   2.462 -0.0693  0.4862 -0.6658
27120SOL    HW283035   0.822   9.458   2.478  1.8483 -0.9496 -3.6417
27121SOL     OW83036   9.012   0.979   1.224 -0.1625  0.2245 -0.3512
27121SOL    HW183037   9.077   1.045   1.201  0.5593 -0.1459  0.5598
27121SOL    HW283038   8.996   0.931   1.142  0.7510  0.2860 -0.5688
27122SOL     OW83039   8.919   5.089   4.407 -0.1269 -0.0204 -0.8746
27122SOL    HW183040   8.933   5.133   4.491  0.3222 -0.2332 -0.8334
27122SOL    HW283041   8.827   5.106   4.386 -0.2517  0.0057 -0.3249
27123SOL     OW83042   5.139   2.502   3.760  0.6465 -0.1412 -0.4704
27123SOL    HW183043   5.074   2.440   3.726  1.0753 -0.6945 -0.2981
27123SOL    HW283044   5.110   2.587   3.727 -0.5056 -0.2939  0.1058
27124SOL     OW83045   3.315   6.302   1.824  0.3265 -0.2491  0.3901
27124SOL    HW183046   3.409   6.314   1.833  0.4931 -1.6068  0.6877
27124SOL    HW283047   3.304   6.210   1.802 -0.8514  0.2597 -1.3495
27125SOL     OW83048   3.147   0.803   4.213 -0.1601 -0.2431  0.0699
27125SOL    HW183049   3.232   0.821   4.172 -0.0804 -0.5626  0.0927
27125SOL    HW283050   3.149   0.851   4.296 -0.0410 -0.1719  0.0260
27126SOL     OW83051   7.229   7.086   6.572 -0.4156  0.2790  0.2750
27126SOL    HW183052   7.271   7.041   6.645  1.8404  0.5899 -0.7635
27126SOL    HW283053   7.301   7.123   6.521 -1.7651 -1.0028 -2.8425
27127SOL     OW83054   5.719   2.309   3.623 -0.3315  0.3737 -0.5535
27127SOL    HW183055   5.760   2.254   3.690  0.1217  0.6529 -0.6022
27127SOL    HW283056   5.791   2.352   3.579 -0.6093 -0.1186 -1.5096
27128SOL     OW83057   0.896   5.932   2.174 -0.6316 -0.6995 -0.2035
27128SOL    HW183058   0.928   5.849   2.210  1.2170 -0.0689 -0.3024
27128SOL    HW283059   0.942   5.942   2.091  1.6890  1.9145  1.2339
27129SOL     OW83060   9.056   9.514   4.350 -0.4159 -0.9040 -0.1849
27129SOL    HW183061   9.125   9.506   4.417  0.3789  1.4445 -0.6303
27129SOL    HW283062   9.065   9.435   4.297  0.6368 -1.5782  0.9354
27130SOL     OW83063   7.680   9.268   3.082  0.3498  0.3741  0.1060
27130SOL    HW183064   7.670   9.299   2.992 -0.1118  0.5535  0.2172
27130SOL    HW283065   7.663   9.345   3.136  1.8961  0.5926  0.3302
27131SOL     OW83066   4.535   4.404   8.289  0.3732  0.2025 -0.4289
27131SOL    HW183067   4.539   4.313   8.318  0.2467  0.8561  1.8504
27131SOL    HW283068   4.441   4.422   8.277  0.2290  0.5442  1.0369
27132SOL     OW83069   3.194   5.083   2.005 -0.0695  0.3369  0.3965
27132SOL    HW183070   3.247   5.038   2.070 -0.0115 -0.6613 -0.3309
27132SOL    HW283071   3.164   5.163   2.050 -0.6623 -0.6874  1.9027
27133SOL     OW83072   5.920   6.002   2.515  0.2020 -0.0947  0.2897
27133SOL    HW183073   5.891   6.077   2.463  1.4738 -0.9018 -1.7088
27133SOL    HW283074   5.988   6.036   2.572 -0.5151  0.6223  0.7290
27134SOL     OW83075   3.590   1.114   1.009 -0.3092 -0.0981  0.4830
27134SOL    HW183076   3.612   1.029   0.971  1.5690 -0.3102  1.9269
27134SOL    HW283077   3.600   1.102   1.103  0.3602  1.8265  0.6935
27135SOL     OW83078   0.412   0.132   1.667  0.1303 -0.1597  0.3406
27135SOL    HW183079   0.335   0.108   1.719  0.6315 -0.8420  0.7902
27135SOL    HW283080   0.428   0.056   1.612 -1.4583  1.2130 -2.1923
27136SOL     OW83081   3.412   6.524   3.539 -0.1881 -0.0521 -0.1724
27136SOL    HW183082   3.455   6.540   3.455 -2.3628  2.1156 -0.9794
27136SOL    HW283083   3.350   6.597   3.549 -0.8123 -0.8639  2.7848
27137SOL     OW83084   7.951   0.291   1.243  0.3336 -0.2054  0.1924
27137SOL    HW183085   7.939   0.257   1.332  2.9796 -1.8629  0.0196
27137SOL    HW283086   8.045   0.309   1.238 -0.1658  2.4404 -1.4431
27138SOL     OW83087   2.429   3.507   2.202 -0.1064  0.7474 -0.2247
27138SOL    HW183088   2.490   3.547   2.141 -0.4248  1.9428  0.2207
27138SOL    HW283089   2.345   3.508   2.157  0.0407 -0.2552 -0.5577
27139SOL     OW83090   0.700   6.760   5.500 -0.8511  0.1529  0.6688
27139SOL    HW183091   0.704   6.676   5.454 -1.1928  0.2472  0.4672
27139SOL    HW283092   0.614   6.795   5.479 -0.2635  1.1191 -0.2415
27140SOL     OW83093   7.435   0.875   8.819  0.2067  0.0449 -0.1263
27140SOL    HW183094   7.468   0.963   8.838 -0.3988  0.2116  0.1594
27140SOL    HW283095   7.360   0.864   8.878  0.7634 -0.9748  0.4097
27141SOL     OW83096   9.138   4.660   8.220  0.2776 -0.3587 -0.3173
27141SOL    HW183097   9.195   4.671   8.144 -0.8742  1.2276 -1.0344
27141SOL    HW283098   9.158   4.735   8.276 -0.0423 -0.5973  0.1178
27142SOL     OW83099   7.372   6.357   0.707 -0.3055  0.6186 -0.3002
27142SOL    HW183100   7.414   6.273   0.730 -2.6613 -0.3202  0.8847
27142SOL    HW283101   7.282   6.333   0.687 -0.6858  2.7466 -1.3093
27143SOL     OW83102   3.236   6.713   6.272  0.9719  0.0934 -0.3514
27143SOL    HW183103   3.265   6.639   6.324  0.0569 -0.0332  0.0087
27143SOL    HW283104   3.152   6.684   6.235  0.0937  1.2903  0.6166
27144SOL     OW83105   2.562   8.029   8.607  0.5724 -0.0026  0.1077
27144SOL    HW183106   2.609   8.097   8.558  0.8843  0.7423  1.4024
27144SOL    HW283107   2.474   8.064   8.617  0.3650 -0.3821 -0.3336
27145SOL     OW83108   7.379   7.470   5.721 -0.0574  0.3990  0.2292
27145SOL    HW183109   7.349   7.559   5.737  0.7410  0.6264  0.4633
27145SOL    HW283110   7.316   7.435   5.657 -0.2779  1.1757  0.0163
27146SOL     OW83111   2.907   1.670   6.722 -0.2531 -0.1820  0.9228
27146SOL    HW183112   2.977   1.695   6.661  0.1754 -0.6011  1.2375
27146SOL    HW283113   2.872   1.588   6.687 -1.3511  0.5804  0.1477
27147SOL     OW83114   1.020   6.912   2.492  0.3600 -0.0459 -0.3588
27147SOL    HW183115   1.088   6.852   2.461  0.6173  0.1851 -0.2378
27147SOL    HW283116   1.060   6.959   2.565  0.2678  0.4966 -0.6513
27148SOL     OW83117   7.957   7.202   4.512 -0.0089 -0.4106 -0.6895
27148SOL    HW183118   7.961   7.264   4.585 -0.1631 -1.1142 -0.0704
27148SOL    HW283119   8.036   7.218   4.461  0.1004  0.0788 -0.3655
27149SOL     OW83120   1.940   9.036   3.806 -0.1152 -0.3076  0.8657
27149SOL    HW183121   1.918   8.954   3.762 -0.4723 -0.3238  1.0713
27149SOL    HW283122   1.905   9.026   3.894 -0.3835  0.1690  0.8146
27150SOL     OW83123   6.811   5.516   4.566 -0.0058  0.0717  0.3746
27150SOL    HW183124   6.785   5.429   4.536  0.0542 -0.1562  0.9599
27150SOL    HW283125   6.907   5.517   4.558 -0.0396  0.2304 -0.0117
27151SOL     OW83126   6.658   3.327   2.578  0.2486 -0.3111 -0.1926
27151SOL    HW183127   6.596   3.295   2.644 -0.5060  0.1901 -0.6466
27151SOL    HW283128   6.739   3.341   2.626 -0.9123  2.3275  1.1823
27152SOL     OW83129   7.842   1.260   9.608 -0.6057  0.8352 -0.5064
27152SOL    HW183130   7.871   1.191   9.549 -1.5485 -1.1427  1.1810
27152SOL    HW283131   7.923   1.300   9.641  0.0690 -0.8437 -0.0215
27153SOL     OW83132   8.096   6.030   8.332  0.6432  0.6809  0.7343
27153SOL    HW183133   8.116   5.980   8.253 -0.7170 -0.5388  1.1269
27153SOL    HW283134   8.003   6.049   8.326  0.6585  1.1257  1.7443
27154SOL     OW83135   0.680   4.563   3.888  0.1039  0.1648  0.2524
27154SOL    HW183136   0.592   4.600   3.884 -0.2748 -0.6945  0.5713
27154SOL    HW283137   0.724   4.597   3.809 -0.4862  0.6403  0.1227
27155SOL     OW83138   4.361   8.266   4.640  0.4400  0.0440  0.2838
27155SOL    HW183139   4.358   8.349   4.688 -1.2072 -0.1728  0.6239
27155SOL    HW283140   4.304   8.281   4.564  0.9628 -0.4552 -0.2127
27156SOL     OW83141   5.544   2.937   3.050 -0.3265 -0.3258  0.3739
27156SOL    HW183142   5.453   2.920   3.024 -0.4733  0.8802  0.0586
27156SOL    HW283143   5.596   2.910   2.975 -0.5134  0.0093  0.1181
27157SOL     OW83144   1.646   2.766   9.024 -0.3046 -0.0079 -0.4790
27157SOL    HW183145   1.648   2.671   9.020  0.7242  0.0282 -1.5141
27157SOL    HW283146   1.642   2.794   8.932  0.7650  0.9405 -0.2635
27158SOL     OW83147   7.617   5.103   5.561  0.2418 -0.2169 -0.0011
27158SOL    HW183148   7.702   5.112   5.517  0.1885  1.8478  0.2216
27158SOL    HW283149   7.576   5.189   5.552 -1.8185 -1.1427 -0.0285
27159SOL     OW83150   5.478   8.530   8.859  0.3706  0.0404  0.4036
27159SOL    HW183151   5.563   8.522   8.903 -0.1679  1.0986  1.7075
27159SOL    HW283152   5.414   8.511   8.927 -0.4577 -0.8236 -0.5877
27160SOL     OW83153   5.511   3.023   9.561  0.0119 -0.4715  0.1130
27160SOL    HW183154   5.536   2.996   9.650  2.8442  2.6650  0.4946
27160SOL    HW283155   5.478   3.112   9.572 -1.3301 -0.6780 -1.8238
27161SOL     OW83156   6.454   6.671   8.276  0.4582 -0.1233  0.0152
27161SOL    HW183157   6.429   6.579   8.283 -0.2913  0.0362 -0.4942
27161SOL    HW283158   6.382   6.719   8.317  0.4962  0.2765 -0.3737
27162SOL     OW83159   7.437   3.046   4.806 -0.5574 -0.1711  0.7841
27162SOL    HW183160   7.368   3.062   4.871 -0.5657 -0.5458  0.8687
27162SOL    HW283161   7.389   3.028   4.725 -0.5427  0.8645  0.5282
27163SOL     OW83162   5.397   9.099   2.914 -0.6741 -0.1430 -0.1396
27163SOL    HW183163   5.450   9.138   2.844  0.2977 -1.3560 -0.1156
27163SOL    HW283164   5.421   9.148   2.993  0.6756 -0.8743 -0.0710
27164SOL     OW83165   2.756   9.163   8.684 -0.3515  0.6941 -0.3412
27164SOL    HW183166   2.825   9.132   8.742 -0.5565  0.9993  0.0662
27164SOL    HW283167   2.687   9.097   8.691 -0.4953  0.8753 -0.0125
27165SOL     OW83168   5.023   8.544   8.356 -0.2871 -0.2055 -0.1315
27165SOL    HW183169   4.986   8.483   8.420 -1.0994 -0.8312 -1.1506
27165SOL    HW283170   4.971   8.624   8.366 -0.1739 -0.1762  0.2266
27166SOL     OW83171   8.695   0.384   1.970  0.3780  0.2163 -0.3412
27166SOL    HW183172   8.610   0.352   1.938 -0.2263  0.4219  0.9938
27166SOL    HW283173   8.747   0.305   1.983  0.3610  0.0809 -1.0531
27167SOL     OW83174   4.813   6.062   3.897  0.3448 -0.0135  0.1032
27167SOL    HW183175   4.869   6.085   3.822  0.2834  0.9460  0.3308
27167SOL    HW283176   4.763   6.142   3.914 -1.0834 -0.8390 -0.0699
27168SOL     OW83177   9.093   0.229   5.733  0.1414  0.5319 -0.1932
27168SOL    HW183178   9.059   0.256   5.818 -0.4560 -0.9685  0.0811
27168SOL    HW283179   9.157   0.160   5.754  0.0621  0.2184 -0.9389
27169SOL     OW83180   7.642   8.988   4.752 -0.4088 -0.4562  0.2072
27169SOL    HW183181   7.632   9.079   4.783  0.0619 -0.2585 -0.2160
27169SOL    HW283182   7.703   8.949   4.814  0.6328 -0.0239 -0.5289
27170SOL     OW83183   9.126   7.363   3.166 -0.4724  0.1143  0.5628
27170SOL    HW183184   9.047   7.323   3.132 -0.7077  0.5393  0.6100
27170SOL    HW283185   9.096   7.432   3.225 -0.1567  2.4763 -1.8190
27171SOL     OW83186   3.842   6.554   7.473 -0.8115 -0.5438 -0.0477
27171SOL    HW183187   3.771   6.505   7.515  1.3599 -1.0689  3.4455
27171SOL    HW283188   3.877   6.610   7.543  3.0954 -1.4281 -1.0565
27172SOL     OW83189   2.843   5.871   0.829  0.0947 -0.2580  0.2994
27172SOL    HW183190   2.835   5.790   0.880 -0.3334 -0.1317  0.4375
27172SOL    HW283191   2.772   5.866   0.765  2.7507 -2.1609 -2.8228
27173SOL     OW83192   5.966   8.482   9.145 -0.1357 -0.1636  0.0760
27173SOL    HW183193   5.998   8.408   9.196 -1.3918  0.5336  1.9616
27173SOL    HW283194   6.043   8.513   9.097  0.5527 -2.2521 -0.2533
27174SOL     OW83195   2.567   7.478   1.272 -0.9281  0.5338 -0.7373
27174SOL    HW183196   2.660   7.458   1.276 -1.0273  0.1540 -0.2095
27174SOL    HW283197   2.537   7.473   1.363 -1.3501  1.2167 -0.8265
27175SOL     OW83198   5.393   5.802   0.213  0.0900  0.4472  0.7313
27175SOL    HW183199   5.479   5.823   0.176  0.5764 -0.7867  1.0918
27175SOL    HW283200   5.377   5.871   0.277  1.4455 -0.0053  1.6145
27176SOL     OW83201   8.222   1.350   3.405 -0.0807  0.0213 -0.7621
27176SOL    HW183202   8.246   1.279   3.464  1.4321  2.1872  1.4362
27176SOL    HW283203   8.295   1.355   3.343  0.5790  0.5781  0.0347
27177SOL     OW83204   4.010   0.391   2.473  0.0367  0.1632  0.4013
27177SOL    HW183205   4.098   0.354   2.459 -0.8379 -1.7929 -0.2202
27177SOL    HW283206   3.987   0.430   2.389 -0.2699 -0.6796  0.0786
27178SOL     OW83207   5.186   8.161   2.763  0.0019  0.4132  0.7094
27178SOL    HW183208   5.123   8.232   2.749  1.9287  1.8057 -1.7871
27178SOL    HW283209   5.263   8.204   2.799  0.0396 -1.0503  2.4998
27179SOL     OW83210   2.131   6.542   6.299  0.4796  0.1368 -0.5357
27179SOL    HW183211   2.221   6.518   6.319  0.4967  0.6236 -0.0097
27179SOL    HW283212   2.092   6.562   6.384  0.0509  0.5338 -0.8235
27180SOL     OW83213   2.217   8.000   9.219 -0.8620 -0.5914  0.1089
27180SOL    HW183214   2.214   7.932   9.152  2.8621  1.3476 -2.3459
27180SOL    HW283215   2.184   8.079   9.175  0.4065  0.4369  0.9196
27181SOL     OW83216   5.002   0.650   3.076 -0.2395  0.4131 -0.1163
27181SOL    HW183217   5.070   0.598   3.033 -0.9897  0.7191 -1.7466
27181SOL    HW283218   5.027   0.741   3.060 -1.2683  0.5331 -1.1920
27182SOL     OW83219   1.815   9.297   7.469 -0.4948 -0.3011  0.1101
27182SOL    HW183220   1.828   9.376   7.416 -1.2767  0.2985  0.7696
27182SOL    HW283221   1.870   9.311   7.546  0.4693 -1.0662 -0.4274
27183SOL     OW83222   1.500   1.671   0.792 -0.1306 -0.3762 -0.6882
27183SOL    HW183223   1.509   1.765   0.805 -1.3281  0.2413 -3.5745
27183SOL    HW283224   1.581   1.645   0.749  1.9372 -1.5742  3.3971
27184SOL     OW83225   7.912   1.143   0.556  0.1344  0.2571 -0.4992
27184SOL    HW183226   7.859   1.209   0.512 -1.5294 -2.3159 -2.7066
27184SOL    HW283227   7.997   1.185   0.568 -0.7542  2.7036 -1.9342
27185SOL     OW83228   4.191   4.240   7.512  0.5544 -0.1757  0.2701
27185SOL    HW183229   4.257   4.173   7.497 -0.0047 -0.1304 -3.5707
27185SOL    HW283230   4.123   4.197   7.564  0.7428 -2.2924 -1.1214
27186SOL     OW83231   9.347   9.033   3.947  0.5624  0.1598 -0.3728
27186SOL    HW183232   9.266   9.062   3.989 -0.8045 -0.7602 -2.2293
27186SOL    HW283233   9.387   9.113   3.914  0.6833  0.6732  0.9577
27187SOL     OW83234   3.774   0.538   3.744 -0.4819  0.4551 -0.7054
27187SOL    HW183235   3.854   0.570   3.785 -2.0780  1.2929  2.1114
27187SOL    HW283236   3.762   0.450   3.781 -1.0208  0.4732 -0.8289
27188SOL     OW83237   3.325   6.868   2.239 -0.3243  0.2871 -0.5494
27188SOL    HW183238   3.394   6.889   2.176 -0.2159  0.1569 -0.4761
27188SOL    HW283239   3.267   6.807   2.192  0.0620 -0.2531 -0.3449
27189SOL     OW83240   8.027   6.131   5.604 -0.3343 -0.1594  0.6915
27189SOL    HW183241   8.114   6.167   5.624  0.2453 -0.2108 -1.5157
27189SOL    HW283242   8.008   6.073   5.678  1.5396 -0.1963  1.1890
27190SOL     OW83243   2.957   9.187   7.957 -0.5916  0.0300  0.4866
27190SOL    HW183244   2.929   9.204   7.867  0.4937  0.1682  0.1623
27190SOL    HW283245   2.981   9.274   7.991  1.8422 -0.3405 -0.0993
27191SOL     OW83246   9.535   5.044   1.299  0.4098  0.1969 -0.5308
27191SOL    HW183247   9.586   4.967   1.325  3.8115  2.1317 -0.7957
27191SOL    HW283248   9.509   5.026   1.209  0.4066 -0.9626 -0.3200
27192SOL     OW83249   1.821   7.523   1.806 -0.1585 -0.5215  0.0602
27192SOL    HW183250   1.753   7.545   1.742 -0.6126 -0.2198  0.6449
27192SOL    HW283251   1.859   7.442   1.772 -0.6691 -0.5851 -0.3799
27193SOL     OW83252   7.460   7.302   7.275 -0.5871  0.4209 -0.4034
27193SOL    HW183253   7.392   7.301   7.343 -0.5003 -0.1010 -0.3168
27193SOL    HW283254   7.542   7.308   7.324 -0.4614 -1.0516 -0.3886
27194SOL     OW83255   2.926   3.434   0.968  0.6153  0.7494  0.2482
27194SOL    HW183256   3.003   3.432   1.025  1.4798  1.8039 -0.8446
27194SOL    HW283257   2.868   3.500   1.007  0.7414  0.7295  0.4672
27195SOL     OW83258   3.439   7.102   6.319  0.0534  0.5102  0.2256
27195SOL    HW183259   3.387   7.037   6.366  2.5902 -2.0726 -0.2544
27195SOL    HW283260   3.379   7.142   6.257 -1.1948 -3.1635 -1.1631
27196SOL     OW83261   9.148   5.643   5.808 -0.2840  0.5237 -0.0142
27196SOL    HW183262   9.147   5.636   5.904 -1.0037 -1.2120 -0.1007
27196SOL    HW283263   9.145   5.737   5.790  1.1450  0.9423  1.6581
27197SOL     OW83264   7.933   5.674   3.533  0.3142 -0.1148 -0.2936
27197SOL    HW183265   8.014   5.629   3.558  0.1370 -1.1185 -1.4304
27197SOL    HW283266   7.900   5.624   3.458 -1.1038  0.5711 -0.1591
27198SOL     OW83267   0.857   8.970   6.012 -0.0194  0.2288 -0.6159
27198SOL    HW183268   0.882   9.062   6.000 -1.4454  1.0135  1.6541
27198SOL    HW283269   0.939   8.924   6.028  0.6162  1.3928 -0.4631
27199SOL     OW83270   5.120   8.674   5.206  0.5744  0.6637  0.2865
27199SOL    HW183271   5.072   8.649   5.285 -0.7729  0.8025 -0.4786
27199SOL    HW283272   5.111   8.600   5.147  2.6198  0.0376  0.6712
27200SOL     OW83273   6.291   8.268   0.762  0.0270  0.2822 -0.2605
27200SOL    HW183274   6.203   8.248   0.731 -0.0900  0.2474  0.0937
27200SOL    HW283275   6.333   8.311   0.688 -0.3787  0.5446 -0.3402
27201SOL     OW83276   6.718   5.187   7.021  0.3296  0.4775 -0.0312
27201SOL    HW183277   6.657   5.139   7.078  1.2958 -0.6844  0.0722
27201SOL    HW283278   6.726   5.133   6.943  1.5529  0.3567  0.1457
27202SOL     OW83279   4.192   0.592   9.244 -0.0332 -0.6809 -0.0618
27202SOL    HW183280   4.202   0.650   9.321 -0.8543 -1.5506  0.7229
27202SOL    HW283281   4.282   0.572   9.218  0.2657  0.3920  0.0691
27203SOL     OW83282   6.932   8.111   8.226  0.4840 -0.7180  0.2189
27203SOL    HW183283   6.988   8.044   8.266 -0.5764 -1.2333  0.8727
27203SOL    HW283284   6.857   8.062   8.192  0.3360 -0.0128 -0.4908
27204SOL     OW83285   5.928   5.548   2.054 -0.0248 -0.2459 -0.1716
27204SOL    HW183286   5.916   5.459   2.088 -1.2182 -0.2578 -0.5901
27204SOL    HW283287   5.849   5.594   2.079  0.3534  0.5584 -0.4258
27205SOL     OW83288   6.391   2.778   0.224  0.3264 -0.0499  0.4347
27205SOL    HW183289   6.394   2.723   0.146  0.1158 -0.2932  0.5945
27205SOL    HW283290   6.338   2.853   0.198  0.3764 -0.0607  0.3000
27206SOL     OW83291   7.884   5.363   7.497  0.2650  0.1249  0.9186
27206SOL    HW183292   7.917   5.276   7.520 -1.4348 -0.6210  0.6466
27206SOL    HW283293   7.798   5.369   7.538 -1.1944  0.2794 -1.8971
27207SOL     OW83294   0.121   2.209   6.468  0.1594 -0.3571 -1.0453
27207SOL    HW183295   0.168   2.227   6.387  0.0446 -1.0241 -1.2634
27207SOL    HW283296   0.059   2.282   6.476  3.4131  2.5476  1.0079
27208SOL     OW83297   5.285   5.966   3.668 -0.6905  0.1016  0.3809
27208SOL    HW183298   5.307   6.014   3.588 -1.9604 -0.2716 -0.2131
27208SOL    HW283299   5.353   5.992   3.731 -1.3818  2.8181  0.1458
27209SOL     OW83300   3.665   2.810   5.015 -0.4526  0.3567  1.0818
27209SOL    HW183301   3.718   2.889   5.032  0.8239 -0.4927  1.1810
27209SOL    HW283302   3.691   2.749   5.084 -0.1432 -0.7674  0.0016
27210SOL     OW83303   7.330   9.606   5.452 -0.2269  0.0454  0.7839
27210SOL    HW183304   7.248   9.577   5.411 -0.2975  1.2332  0.0484
27210SOL    HW283305   7.396   9.547   5.418 -0.1741  1.3654 -1.6078
27211SOL     OW83306   5.341   3.159   0.272  0.4057 -0.0901  0.3742
27211SOL    HW183307   5.276   3.229   0.267 -0.2724 -0.8261 -2.0870
27211SOL    HW283308   5.291   3.081   0.296  0.8068 -0.1958  0.8949
27212SOL     OW83309   3.249   3.338   1.322 -0.0200 -0.0812 -0.0225
27212SOL    HW183310   3.289   3.385   1.396 -1.3039  0.2345  0.5046
27212SOL    HW283311   3.197   3.269   1.363 -1.1261  0.3881 -0.5898
27213SOL     OW83312   5.299   1.710   2.166  0.6710 -0.0833 -0.0668
27213SOL    HW183313   5.329   1.747   2.248 -2.4150  0.9415  0.7339
27213SOL    HW283314   5.307   1.781   2.103 -1.0290  0.6122  0.4356
27214SOL     OW83315   7.832   3.549   1.929 -0.5863 -0.0685 -0.2972
27214SOL    HW183316   7.863   3.586   2.011 -0.3465 -0.3946 -0.2379
27214SOL    HW283317   7.789   3.622   1.884  2.2139  1.0749 -1.4060
27215SOL     OW83318   2.970   4.805   6.721  0.2808 -0.5509  0.3708
27215SOL    HW183319   2.933   4.888   6.691  0.7420  0.0911  1.4633
27215SOL    HW283320   3.055   4.830   6.759  0.8152 -1.6525 -0.0640
27216SOL     OW83321   3.013   5.138   3.258  0.5076 -0.2449  0.1731
27216SOL    HW183322   3.001   5.171   3.347 -0.6388  0.3399 -0.1829
27216SOL    HW283323   3.017   5.042   3.268  0.3528 -0.1828  0.8447
27217SOL     OW83324   7.599   2.855   3.517  0.1033  0.2495 -0.3413
27217SOL    HW183325   7.693   2.847   3.534  0.3846 -2.1264 -2.4206
27217SOL    HW283326   7.557   2.821   3.597  1.0318  0.3376  0.1977
27218SOL     OW83327   4.673   3.779   4.096  0.0706 -0.7866 -0.3683
27218SOL    HW183328   4.691   3.685   4.089 -2.0293 -1.3343  0.9047
27218SOL    HW283329   4.692   3.800   4.187  2.8005  0.6414 -1.1295
27219SOL     OW83330   7.373   6.882   0.536 -0.0006  0.5107  0.0166
27219SOL    HW183331   7.449   6.936   0.557  1.2418 -0.4553 -1.7984
27219SOL    HW283332   7.389   6.800   0.582  1.2233 -0.5092 -2.1339
27220SOL     OW83333   5.591   7.621   1.302 -0.6052  0.1363  0.5417
27220SOL    HW183334   5.605   7.713   1.282 -2.4066  0.2000 -0.6619
27220SOL    HW283335   5.513   7.597   1.251 -1.2966 -1.5555  2.2889
27221SOL     OW83336   2.685   6.379   7.348 -0.0999  0.5199  0.1042
27221SOL    HW183337   2.748   6.327   7.399 -0.9438  0.5364  1.1920
27221SOL    HW283338   2.683   6.336   7.263  1.4861  0.6033 -0.0033
27222SOL     OW83339   1.762   1.539   6.316  0.0218 -0.0074  0.5054
27222SOL    HW183340   1.784   1.632   6.322 -1.1741  0.4316 -1.1664
27222SOL    HW283341   1.818   1.505   6.247 -0.7019 -0.1179 -0.0459
27223SOL     OW83342   8.068   2.576   7.868 -0.1270 -0.3600  0.5285
27223SOL    HW183343   8.009   2.520   7.818  0.5377  0.9241 -1.8514
27223SOL    HW283344   8.036   2.665   7.851  0.6487  0.1763  1.7489
27224SOL     OW83345   6.979   1.105   7.368  0.3954 -0.1479 -0.2651
27224SOL    HW183346   7.066   1.139   7.345 -0.5613  0.5334 -3.4653
27224SOL    HW283347   6.920   1.178   7.348 -1.0642 -1.1187  0.3632
27225SOL     OW83348   6.958   0.141   3.583  0.6806 -0.2927  0.1234
27225SOL    HW183349   6.959   0.228   3.623  1.1949 -1.1832  2.1933
27225SOL    HW283350   6.997   0.154   3.497 -0.5386  1.7516 -0.1902
27226SOL     OW83351   6.547   1.788   2.758 -0.1539  0.0140  0.6182
27226SOL    HW183352   6.595   1.807   2.838 -0.2618 -0.0788  0.7063
27226SOL    HW283353   6.582   1.849   2.693  0.5336 -0.4697  0.5122
27227SOL     OW83354   8.966   3.896   6.896 -0.0964  0.1675 -0.3450
27227SOL    HW183355   8.988   3.852   6.978 -0.5290  0.1033 -0.2584
27227SOL    HW283356   9.044   3.947   6.873  0.0918  0.0354  0.0067
27228SOL     OW83357   7.880   1.317   4.147 -0.4003  0.6570 -1.2041
27228SOL    HW183358   7.790   1.350   4.148 -0.3335  1.0613 -3.4867
27228SOL    HW283359   7.886   1.264   4.067  1.2007  0.0635 -0.7349
27229SOL     OW83360   1.102   3.647   0.738 -0.3170 -0.3011  0.0015
27229SOL    HW183361   1.060   3.733   0.740 -0.6234 -0.4253  2.9332
27229SOL    HW283362   1.195   3.665   0.727 -0.4503  0.3568 -0.0467
27230SOL     OW83363   2.594   4.418   5.325  0.0185  0.2505  0.1179
27230SOL    HW183364   2.589   4.501   5.373  2.2399  0.7384 -0.4079
27230SOL    HW283365   2.507   4.380   5.336 -0.9539  2.4554  0.6959
27231SOL     OW83366   1.800   5.133   8.916  0.2850 -0.3134  0.0000
27231SOL    HW183367   1.831   5.087   8.994 -0.1692 -0.2098  0.2451
27231SOL    HW283368   1.830   5.223   8.926 -0.2760 -0.1581  0.3494
27232SOL     OW83369   7.495   7.801   1.450  0.1043 -0.7082  0.0339
27232SOL    HW183370   7.571   7.822   1.396 -1.5017 -0.8669 -2.4129
27232SOL    HW283371   7.472   7.711   1.425 -0.6143 -0.8406  1.1061
27233SOL     OW83372   8.920   7.241   0.383 -0.3754 -0.2283 -0.3300
27233SOL    HW183373   9.001   7.193   0.397 -0.7069 -0.5557  0.4764
27233SOL    HW283374   8.949   7.327   0.350  0.4203  0.3803  1.8269
27234SOL     OW83375   3.408   6.250   7.919  0.2929 -0.4424 -0.2292
27234SOL    HW183376   3.329   6.199   7.939  0.9091 -1.1502  0.4727
27234SOL    HW283377   3.430   6.225   7.829 -1.4497  1.3586 -1.2287
27235SOL     OW83378   9.372   0.739   3.508  0.2321  0.4483  0.2138
27235SOL    HW183379   9.299   0.767   3.454  0.4769  2.0877  0.6657
27235SOL    HW283380   9.450   0.765   3.459  0.6007 -2.2759 -0.7880
27236SOL     OW83381   6.462   0.909   6.483  0.0663  0.0709 -0.0130
27236SOL    HW183382   6.399   0.976   6.456  1.8614  1.8233 -0.1361
27236SOL    HW283383   6.490   0.868   6.402 -2.0590 -1.9066  0.1645
27237SOL     OW83384   2.696   4.537   3.456 -0.6310  0.3429  0.5895
27237SOL    HW183385   2.787   4.537   3.424 -1.0165  0.8896 -0.5446
27237SOL    HW283386   2.646   4.580   3.387 -1.7230  0.3013  1.3301
27238SOL     OW83387   0.129   5.404   0.490  0.0338  0.0984  0.3585
27238SOL    HW183388   0.128   5.407   0.395  1.0683 -1.0744  0.2853
27238SOL    HW283389   0.165   5.489   0.516 -0.0454  0.3402 -0.3059
27239SOL     OW83390   3.307   1.100   7.562 -0.0385  0.4402 -0.3020
27239SOL    HW183391   3.321   1.193   7.582  0.1436 -0.1116  2.5138
27239SOL    HW283392   3.389   1.058   7.587 -0.5343 -0.6242 -0.4195
27240SOL     OW83393   0.554   9.478   6.967 -0.7159 -0.4346  0.2603
27240SOL    HW183394   0.589   9.431   7.044 -0.2030 -0.9904 -0.3021
27240SOL    HW283395   0.589   9.566   6.975  1.0936 -1.0476 -0.4283
27241SOL     OW83396   4.265   4.167   5.621 -0.3186  0.1071 -0.6167
27241SOL    HW183397   4.234   4.240   5.675 -0.9624 -0.5283 -0.1040
27241SOL    HW283398   4.297   4.208   5.541  2.0282  1.2451  0.7756
27242SOL     OW83399   1.005   2.745   2.878  0.5549  0.2795 -0.9633
27242SOL    HW183400   1.029   2.725   2.968  1.7578  2.1965 -0.8010
27242SOL    HW283401   0.916   2.712   2.869 -0.1726  1.4021  1.4245
27243SOL     OW83402   4.648   1.578   7.398  0.0110 -0.4971  0.7560
27243SOL    HW183403   4.721   1.639   7.407 -0.1003 -0.1653 -0.4111
27243SOL    HW283404   4.639   1.565   7.304 -2.7470  1.0805  0.7024
27244SOL     OW83405   4.543   8.130   4.268 -0.0133 -0.3031 -0.2406
27244SOL    HW183406   4.576   8.179   4.343 -0.0652 -0.6522  0.0100
27244SOL    HW283407   4.452   8.159   4.259  0.0097 -0.2194 -0.2069
27245SOL     OW83408   4.199   9.483   8.137  0.4812  1.0186 -0.3150
27245SOL    HW183409   4.157   9.484   8.051 -0.1427  0.4485 -0.0265
27245SOL    HW283410   4.138   9.531   8.193  1.3671  2.2855 -0.3911
27246SOL     OW83411   0.432   0.341   9.225  0.6432  0.7481 -0.1669
27246SOL    HW183412   0.522   0.348   9.256  1.0795 -1.3492 -0.7883
27246SOL    HW283413   0.386   0.292   9.293  0.8684 -1.2050 -1.3346
27247SOL     OW83414   3.999   5.638   2.343  0.1469  0.1098  0.4809
27247SOL    HW183415   3.968   5.685   2.265 -0.5643 -1.2620 -0.0985
27247SOL    HW283416   4.093   5.656   2.346 -0.3025  2.8265  1.2013
27248SOL     OW83417   0.653   3.922   6.522  0.1387 -0.7794  0.4847
27248SOL    HW183418   0.730   3.890   6.569  0.5928  0.2370  0.4583
27248SOL    HW283419   0.687   3.986   6.461 -0.5571 -1.4407 -0.6355
27249SOL     OW83420   6.727   6.354   8.703  0.4625 -0.0399  0.1187
27249SOL    HW183421   6.821   6.368   8.707  0.5498 -0.9159  1.9927
27249SOL    HW283422   6.705   6.310   8.785 -1.5607 -0.0063 -0.3440
27250SOL     OW83423   1.230   9.549   6.433 -0.1230  0.3620 -0.0775
27250SOL    HW183424   1.235   9.570   6.526  1.6181 -0.3260  0.0261
27250SOL    HW283425   1.238   9.453   6.430  1.3468  0.4863 -0.9873
27251SOL     OW83426   7.887   4.831   7.513 -0.0220  0.6094 -0.4955
27251SOL    HW183427   7.937   4.909   7.535  0.4014  0.6112 -1.4165
27251SOL    HW283428   7.916   4.765   7.575  1.3410  0.5305 -1.1874
27252SOL     OW83429   1.080   5.520   2.052 -0.6175  0.0700 -0.4901
27252SOL    HW183430   1.094   5.445   1.994 -0.1442 -0.6007  0.4606
27252SOL    HW283431   1.043   5.588   1.995  1.2448 -0.0332 -1.9051
27253SOL     OW83432   3.724   5.005   0.324 -0.0810  0.4494  0.4189
27253SOL    HW183433   3.679   5.031   0.404 -0.5233 -0.1499  0.3736
27253SOL    HW283434   3.816   4.994   0.350 -0.1147  0.8507  0.7063
27254SOL     OW83435   5.276   4.448   7.187  0.0267 -0.7774 -0.6384
27254SOL    HW183436   5.271   4.419   7.096 -0.2884 -0.4592 -0.7259
27254SOL    HW283437   5.348   4.511   7.188 -0.8755  0.3181 -0.9915
27255SOL     OW83438   1.925   5.455   5.346  0.5966  0.1203 -0.1628
27255SOL    HW183439   1.980   5.392   5.393  0.9041 -1.5616 -2.5969
27255SOL    HW283440   1.869   5.492   5.414  0.3930 -2.7997  1.4594
27256SOL     OW83441   2.431   0.171   5.052 -0.4330  0.5760  0.3361
27256SOL    HW183442   2.442   0.223   5.132 -2.5876  0.1482  0.9806
27256SOL    HW283443   2.469   0.086   5.074 -0.7683  0.5479  0.8318
27257SOL     OW83444   5.546   7.453   5.963 -0.3457 -0.0072 -0.0745
27257SOL    HW183445   5.450   7.461   5.958 -0.3471  0.2510  0.3393
27257SOL    HW283446   5.576   7.541   5.982  0.1253  0.3254 -2.1738
27258SOL     OW83447   8.001   2.476   8.504  0.1560  0.3279 -0.2827
27258SOL    HW183448   8.050   2.548   8.543  1.2568 -0.5170 -0.0731
27258SOL    HW283449   7.981   2.507   8.415 -2.0060  2.0828  0.6923
27259SOL     OW83450   1.499   0.807   3.536  0.5082 -0.1455 -0.2552
27259SOL    HW183451   1.521   0.801   3.629  1.8010 -0.8935 -0.5960
27259SOL    HW283452   1.442   0.884   3.531 -0.1237 -0.4675  1.2385
27260SOL     OW83453   7.908   6.056   3.658 -0.3786  1.0377 -0.0108
27260SOL    HW183454   7.935   6.086   3.571  0.8098 -0.7848 -0.3234
27260SOL    HW283455   7.822   6.096   3.672 -1.6724 -0.3874 -3.0013
27261SOL     OW83456   4.750   4.276   3.549  0.2287  0.1479  0.4030
27261SOL    HW183457   4.710   4.192   3.529 -0.3537  0.5360 -0.0652
27261SOL    HW283458   4.799   4.299   3.470 -0.0703  0.5119  0.3203
27262SOL     OW83459   3.412   2.898   3.793 -0.2801 -0.2588 -0.2064
27262SOL    HW183460   3.340   2.928   3.737  1.1802  1.1402 -1.4326
27262SOL    HW283461   3.490   2.938   3.755  1.1200 -1.4220  1.3054
27263SOL     OW83462   7.865   7.052   6.073 -0.5948 -0.0162 -0.2008
27263SOL    HW183463   7.822   7.137   6.066 -2.3988 -1.0091 -2.4214
27263SOL    HW283464   7.952   7.072   6.109 -1.3999  2.5682  0.5335
27264SOL     OW83465   2.527   9.219   6.525  0.1815  0.1277 -0.4322
27264SOL    HW183466   2.498   9.244   6.437  1.5731  1.4028 -0.5687
27264SOL    HW283467   2.500   9.128   6.534 -0.3257  0.0861 -2.0326
27265SOL     OW83468   8.591   0.641   2.116  0.5598  0.2611 -0.1658
27265SOL    HW183469   8.637   0.572   2.068 -0.6917 -1.1005  0.5292
27265SOL    HW283470   8.512   0.659   2.064  0.7664  1.0486 -0.2320
27266SOL     OW83471   9.220   4.526   0.001 -0.0103  0.0419  0.3617
27266SOL    HW183472   9.296   4.470   0.017  0.0430 -0.0582 -0.2300
27266SOL    HW283473   9.189   4.502  -0.086 -0.2628  0.6106  0.2846
27267SOL     OW83474   0.621   5.422   3.096  0.4180  0.2781  0.2556
27267SOL    HW183475   0.619   5.399   3.003 -0.9758  1.3738 -0.0237
27267SOL    HW283476   0.650   5.342   3.140 -1.8385 -1.2783 -0.8845
27268SOL     OW83477   5.697   2.822   6.879  0.4145  0.2087 -0.3700
27268SOL    HW183478   5.673   2.914   6.885  1.3226  0.3805  0.9898
27268SOL    HW283479   5.793   2.822   6.869  0.3169 -0.5668 -1.5794
27269SOL     OW83480   0.622   4.662   4.916  0.0806  0.9713 -0.1069
27269SOL    HW183481   0.712   4.646   4.889  0.7123 -0.9855  2.6753
27269SOL    HW283482   0.630   4.711   4.998 -1.1893 -0.9369  1.2658
27270SOL     OW83483   7.734   7.520   1.200  0.7010 -0.2810 -0.6535
27270SOL    HW183484   7.711   7.525   1.107  2.3802 -0.5384 -1.1228
27270SOL    HW283485   7.729   7.610   1.231  0.4278 -0.1536 -1.0592
27271SOL     OW83486   4.837   6.401   6.054  0.2472 -0.0818 -0.0927
27271SOL    HW183487   4.913   6.359   6.014 -0.0064 -0.4283 -0.2206
27271SOL    HW283488   4.814   6.343   6.127  0.6927  0.5324  0.5472
27272SOL     OW83489   8.493   3.448   3.233 -0.0690 -0.0346 -0.2940
27272SOL    HW183490   8.581   3.483   3.221  0.3386 -0.9609 -0.0915
27272SOL    HW283491   8.461   3.433   3.144 -0.3009  0.9507 -0.3882
27273SOL     OW83492   8.427   6.317   6.227 -0.0212 -0.0154  0.2146
27273SOL    HW183493   8.428   6.221   6.225  0.1442 -0.0038 -0.4217
27273SOL    HW283494   8.341   6.339   6.262  0.1501 -0.4015  0.8923
27274SOL     OW83495   3.099   9.382   9.114  0.0711 -0.0212 -0.1581
27274SOL    HW183496   3.022   9.338   9.077 -0.6807  1.0185  0.1140
27274SOL    HW283497   3.086   9.474   9.092  0.4897  0.3726  1.1724
27275SOL     OW83498   5.978   8.001   9.133  0.2061 -0.0566  0.2444
27275SOL    HW183499   5.949   7.985   9.043  2.8348  0.1901 -0.7597
27275SOL    HW283500   6.052   7.941   9.144  0.4598  0.5267  1.9577
27276SOL     OW83501   0.941   9.637   6.572  0.4067 -0.0520 -0.4386
27276SOL    HW183502   0.899   9.585   6.504 -0.5446  0.0086  0.0823
27276SOL    HW283503   1.022   9.590   6.592  0.4923 -0.2901 -1.3080
27277SOL     OW83504   3.821   1.886   1.554  0.7197 -0.2638  0.0134
27277SOL    HW183505   3.907   1.846   1.570 -0.0277 -1.8164  0.3481
27277SOL    HW283506   3.796   1.853   1.468  1.0352  1.2846 -0.6893
27278SOL     OW83507   5.166   8.799   1.602  0.1809 -0.1164 -0.0458
27278SOL    HW183508   5.100   8.758   1.547 -0.0308 -0.3066  0.3391
27278SOL    HW283509   5.247   8.753   1.582 -0.1793 -1.1854  0.8536
27279SOL     OW83510   4.878   4.421   0.827  0.1738 -0.2335 -0.4009
27279SOL    HW183511   4.883   4.396   0.735  1.1412 -1.2473 -0.1013
27279SOL    HW283512   4.797   4.379   0.858 -0.1057  0.0320 -0.7499
27280SOL     OW83513   6.929   0.872   6.061 -0.6073 -0.2532 -0.0147
27280SOL    HW183514   7.016   0.869   6.022  0.5840 -1.3835  2.4530
27280SOL    HW283515   6.934   0.943   6.125 -2.2587  1.0897 -1.2755
27281SOL     OW83516   5.401   0.981   5.122  0.0243 -0.4796 -0.2205
27281SOL    HW183517   5.486   1.001   5.161  0.0074 -0.0299 -0.4019
27281SOL    HW283518   5.338   1.016   5.184  0.0063  1.0378 -1.0268
27282SOL     OW83519   0.001   6.539   5.077 -0.1274  0.8099 -0.1431
27282SOL    HW183520   0.087   6.506   5.052 -1.0988 -2.5152  0.3404
27282SOL    HW283521  -0.033   6.580   4.998  1.3178  0.8753 -0.7580
27283SOL     OW83522   8.022   8.457   2.767 -0.0155 -0.2194 -0.4049
27283SOL    HW183523   8.081   8.503   2.707 -0.7660 -0.7552 -1.5937
27283SOL    HW283524   7.970   8.527   2.807  1.1670  0.2255  0.3859
27284SOL     OW83525   0.238   4.169   6.349 -0.3459  0.5150  0.4233
27284SOL    HW183526   0.193   4.088   6.373  1.4812 -0.7018 -0.0590
27284SOL    HW283527   0.202   4.192   6.263  0.1155 -0.5821 -0.0777
27285SOL     OW83528   3.992   9.598   9.641  0.8101  0.3551 -0.2159
27285SOL    HW183529   3.933   9.619   9.714  1.6310 -0.9624  0.8777
27285SOL    HW283530   4.028   9.682   9.614 -2.4487  1.3960 -1.7622
27286SOL     OW83531   5.100   2.326   7.825  0.4082  0.0737  0.0325
27286SOL    HW183532   5.139   2.264   7.886 -0.3255 -1.0504 -0.5995
27286SOL    HW283533   5.020   2.282   7.794 -0.5855  1.6755  0.1870
27287SOL     OW83534   7.642   0.747   1.656 -0.0623 -0.3526  0.9463
27287SOL    HW183535   7.659   0.692   1.733 -0.4979 -1.1909  0.4537
27287SOL    HW283536   7.657   0.689   1.581 -0.7607  0.1362  0.4151
27288SOL     OW83537   2.079   4.733   9.124 -0.3750 -0.4781  0.6663
27288SOL    HW183538   2.066   4.703   9.034  2.5265  0.1816 -0.0699
27288SOL    HW283539   2.042   4.821   9.126 -0.2652 -0.4176  0.0402
27289SOL     OW83540   8.522   9.150   8.670 -0.1372  0.0356 -0.2450
27289SOL    HW183541   8.495   9.176   8.758 -0.8123  0.9284 -0.6906
27289SOL    HW283542   8.554   9.060   8.680  0.1487  0.2493  0.9667
27290SOL     OW83543   2.253   3.996   0.032  0.2151 -0.4194 -0.2085
27290SOL    HW183544   2.310   4.027  -0.038  1.6448 -2.2318  0.0816
27290SOL    HW283545   2.212   3.917  -0.003  1.2757 -1.6064  1.0587
27291SOL     OW83546   3.127   9.264   4.970  0.5092 -0.1118  0.0251
27291SOL    HW183547   3.190   9.278   5.041  0.5760  1.1500 -0.2738
27291SOL    HW283548   3.046   9.304   5.002 -0.3735 -2.2211  0.6549
27292SOL     OW83549   0.649   5.498   4.135 -0.8520  0.0004  0.4632
27292SOL    HW183550   0.671   5.437   4.064 -1.5595  0.5218 -0.2240
27292SOL    HW283551   0.728   5.501   4.189 -0.0306  0.1419 -0.7053
27293SOL     OW83552   3.057   5.315   5.073 -0.3343  0.2515  0.6643
27293SOL    HW183553   2.974   5.271   5.086 -0.3480 -0.2291 -0.9005
27293SOL    HW283554   3.120   5.262   5.121 -0.5731 -0.6959 -0.0567
27294SOL     OW83555   1.427   7.165   7.750 -0.0106 -0.4374  0.3860
27294SOL    HW183556   1.371   7.149   7.826  0.8929  0.5211  1.2890
27294SOL    HW283557   1.508   7.118   7.769  0.6099  0.6607  0.5230
27295SOL     OW83558   8.132   6.190   8.551  0.3656 -0.2163  0.3241
27295SOL    HW183559   8.129   6.135   8.473 -0.3822  0.8819 -0.4524
27295SOL    HW283560   8.225   6.201   8.569  0.5446 -0.5465 -0.3726
27296SOL     OW83561   5.626   5.368   3.237 -0.0848 -0.0023  0.1074
27296SOL    HW183562   5.664   5.414   3.312 -1.1670  1.5996 -0.2677
27296SOL    HW283563   5.555   5.425   3.207 -0.3771 -1.1171 -1.4776
27297SOL     OW83564   5.987   4.788   6.886 -0.6030  0.4167 -0.1060
27297SOL    HW183565   5.989   4.789   6.790  0.2174  0.8193 -0.0951
27297SOL    HW283566   5.939   4.867   6.911 -0.8646  0.2830 -0.1823
27298SOL     OW83567   7.652   0.033   1.366  0.3660 -0.1787  0.1508
27298SOL    HW183568   7.714   0.021   1.294  1.6146  3.6431  0.3967
27298SOL    HW283569   7.681  -0.029   1.433  1.2317 -1.4596 -1.3377
27299SOL     OW83570   6.291   3.248   2.579  0.0724  0.6126  0.3028
27299SOL    HW183571   6.245   3.217   2.656 -1.7827 -0.7726 -1.2557
27299SOL    HW283572   6.367   3.296   2.613 -1.7299  1.7813  2.9680
27300SOL     OW83573   9.536   6.789   6.561  0.4989 -0.7954  0.6184
27300SOL    HW183574   9.445   6.780   6.535  0.2969  0.7911  0.7153
27300SOL    HW283575   9.533   6.836   6.644  1.4533  0.5329 -0.0708
27301SOL     OW83576   7.377   7.103   9.474 -0.1695  0.2187 -0.4274
27301SOL    HW183577   7.338   7.021   9.503 -0.4866  0.5035 -0.0434
27301SOL    HW283578   7.466   7.100   9.509 -0.4459  0.4127  0.3025
27302SOL     OW83579   9.519   1.403   1.279 -0.0076 -0.3812 -0.1909
27302SOL    HW183580   9.596   1.419   1.224 -0.8874  2.9304 -0.7041
27302SOL    HW283581   9.513   1.308   1.285  2.1486 -0.8294 -2.8979
27303SOL     OW83582   8.654   6.981   9.671  0.1225  0.1681  0.5159
27303SOL    HW183583   8.584   7.029   9.628  0.0606 -0.8430 -0.5984
27303SOL    HW283584   8.724   7.045   9.684 -0.6856  0.9845  0.8636
27304SOL     OW83585   5.056   7.229   0.633  0.2008  0.0539  0.2073
27304SOL    HW183586   5.003   7.178   0.573 -1.0123 -0.0211  1.2982
27304SOL    HW283587   5.072   7.171   0.707  1.3780  0.2545  0.1267
27305SOL     OW83588   0.899   4.322   1.511  0.4050 -0.1367 -0.2977
27305SOL    HW183589   0.990   4.296   1.519  0.4470  0.0126 -0.2928
27305SOL    HW283590   0.899   4.417   1.526  0.4655  0.1448 -1.9124
27306SOL     OW83591   1.958   4.933   2.285  0.0429 -0.3109  0.5076
27306SOL    HW183592   1.974   4.939   2.379  0.3427 -1.0182  0.5117
27306SOL    HW283593   1.887   4.994   2.268 -3.0304 -3.1663  1.9366
27307SOL     OW83594   0.829   7.227   5.841 -0.2793 -0.4694 -0.1417
27307SOL    HW183595   0.814   7.300   5.901 -0.3370  0.7736 -1.6060
27307SOL    HW283596   0.925   7.222   5.834 -0.1431 -2.3013  1.9714
27308SOL     OW83597   8.444   9.573   0.976  0.5100  0.7736  0.2968
27308SOL    HW183598   8.445   9.505   0.909  1.2900 -0.4283  1.4928
27308SOL    HW283599   8.451   9.655   0.927  2.1597 -0.1110 -1.0409
27309SOL     OW83600   1.392   0.749   1.687  1.1321 -0.4598 -0.4654
27309SOL    HW183601   1.331   0.719   1.755  2.3346 -2.3087 -0.1466
27309SOL    HW283602   1.426   0.832   1.722  0.0726 -0.2661  0.1447
27310SOL     OW83603   7.380   8.043   6.763 -0.5604 -0.0347  0.1236
27310SOL    HW183604   7.362   8.099   6.838 -0.8389  0.0604 -0.0137
27310SOL    HW283605   7.305   8.055   6.705 -1.1554 -1.3589  0.5690
27311SOL     OW83606   1.972   5.485   2.382 -0.2017 -0.1116 -0.1787
27311SOL    HW183607   2.028   5.555   2.416  1.4176 -2.2057  1.7949
27311SOL    HW283608   2.029   5.439   2.320 -0.5666 -0.8115  0.0041
27312SOL     OW83609   6.569   1.326   0.270  0.4235  0.1528  0.2265
27312SOL    HW183610   6.575   1.411   0.227  2.5043 -0.6874 -1.2907
27312SOL    HW283611   6.503   1.339   0.338 -0.1866  2.6284 -0.7132
27313SOL     OW83612   6.972   3.585   1.442 -0.0791  0.2453 -0.1023
27313SOL    HW183613   6.897   3.530   1.418 -1.3822  2.3314 -1.1582
27313SOL    HW283614   6.949   3.672   1.409  2.8302  0.9945 -0.4364
27314SOL     OW83615   2.122   6.656   4.316 -0.6093  0.3187 -0.2970
27314SOL    HW183616   2.079   6.741   4.316  0.3791  0.8419  0.4121
27314SOL    HW283617   2.053   6.594   4.293 -1.1161  1.4141 -1.9202
27315SOL     OW83618   3.861   3.985   9.486 -0.2586 -0.5898  0.4867
27315SOL    HW183619   3.868   3.911   9.426 -0.6464 -2.2114  2.3276
27315SOL    HW283620   3.791   4.039   9.449 -0.1044 -1.2224 -0.7956
27316SOL     OW83621   2.303   6.069   8.065 -0.3735 -0.2669  0.0690
27316SOL    HW183622   2.312   6.030   7.978  0.5294 -0.8311  0.4036
27316SOL    HW283623   2.392   6.090   8.091 -0.7267  0.8227  0.4598
27317SOL     OW83624   7.411   5.304   7.467  0.3370 -0.3629 -0.3433
27317SOL    HW183625   7.380   5.379   7.416  1.4631 -0.5425 -1.3488
27317SOL    HW283626   7.426   5.338   7.555  1.3293  0.7534 -0.9158
27318SOL     OW83627   2.292   0.766   3.413  0.4292  0.4559  0.1220
27318SOL    HW183628   2.219   0.827   3.424  0.0149 -0.2763  1.6634
27318SOL    HW283629   2.262   0.684   3.453  1.3304 -0.5040 -1.0565
27319SOL     OW83630   3.361   1.299   5.742  0.4714 -0.5392 -0.2814
27319SOL    HW183631   3.340   1.258   5.658 -0.2932 -1.2921  0.2642
27319SOL    HW283632   3.451   1.330   5.731  1.5425 -3.3958 -0.3514
27320SOL     OW83633   0.268   0.038   6.576  0.2936 -0.4897  0.1398
27320SOL    HW183634   0.332  -0.006   6.633 -0.0674 -0.2882  0.7028
27320SOL    HW283635   0.238   0.113   6.627  0.6360  0.2098 -0.6757
27321SOL     OW83636   1.210   3.356   9.562  0.2846  0.1387 -0.4634
27321SOL    HW183637   1.138   3.413   9.589  1.9826  2.1468  0.0895
27321SOL    HW283638   1.236   3.311   9.643 -0.9817 -1.4518 -0.8775
27322SOL     OW83639   3.656   2.921   6.347 -0.1500  0.0785 -0.0300
27322SOL    HW183640   3.648   2.827   6.360 -1.3149 -0.0509 -1.3911
27322SOL    HW283641   3.716   2.930   6.273 -0.3969  0.3708 -0.1984
27323SOL     OW83642   6.550   9.147   0.268  0.2449 -0.2789 -0.5815
27323SOL    HW183643   6.514   9.145   0.357 -2.8399  2.8807 -1.5472
27323SOL    HW283644   6.635   9.103   0.276  0.4751  0.4728  4.0538
27324SOL     OW83645   2.452   9.377   0.169 -0.0047  0.4274  0.0458
27324SOL    HW183646   2.469   9.471   0.158 -3.3934  1.0751 -0.7786
27324SOL    HW283647   2.447   9.365   0.264 -1.1706  1.5123  0.1585
27325SOL     OW83648   1.876   2.488   4.303 -0.1147  0.2956  0.3510
27325SOL    HW183649   1.955   2.439   4.282  0.2111  0.3819  1.3101
27325SOL    HW283650   1.823   2.485   4.223  0.0480 -1.3238  0.2813
27326SOL     OW83651   6.423   2.185   0.899 -0.2114 -0.2687 -0.0521
27326SOL    HW183652   6.411   2.167   0.992  0.2569  0.8506  0.2423
27326SOL    HW283653   6.424   2.098   0.858  1.1810 -0.8984  1.1822
27327SOL     OW83654   3.704   3.114   0.806  0.2238  0.7572  0.3135
27327SOL    HW183655   3.626   3.145   0.762 -2.4913 -2.2960  2.4865
27327SOL    HW283656   3.717   3.176   0.878  0.6373  1.9733 -0.7704
27328SOL     OW83657   2.509   2.117   9.529 -0.0900  0.1617  0.3375
27328SOL    HW183658   2.570   2.060   9.577 -0.7688 -0.0041  1.0119
27328SOL    HW283659   2.432   2.062   9.514 -1.2894  1.2544  2.1448
27329SOL     OW83660   1.015   7.011   3.702 -0.7314 -0.2024  0.2983
27329SOL    HW183661   1.022   6.915   3.707 -3.0509 -0.5284 -1.0862
27329SOL    HW283662   1.008   7.029   3.608  1.1509  1.5205  0.4209
27330SOL     OW83663   5.381   7.143   4.383 -0.0346 -0.4208 -0.4013
27330SOL    HW183664   5.390   7.048   4.381 -1.8230 -0.6402 -0.2158
27330SOL    HW283665   5.471   7.177   4.381  0.6474 -2.1187  0.1106
27331SOL     OW83666   6.838   3.321   3.472  0.1846  0.4935  0.2294
27331SOL    HW183667   6.786   3.353   3.398  1.0527  2.3410  0.3396
27331SOL    HW283668   6.919   3.373   3.468  0.2054  0.7255  2.5130
27332SOL     OW83669   2.356   5.839   5.065  0.1450  0.1079 -0.2634
27332SOL    HW183670   2.437   5.831   5.115 -0.6735  1.3324  1.3436
27332SOL    HW283671   2.315   5.753   5.072 -0.2572  0.4031  1.8257
27333SOL     OW83672   3.481   6.060   0.615 -0.1567  0.2895  0.6317
27333SOL    HW183673   3.401   6.008   0.615  0.8246 -1.3426 -0.5105
27333SOL    HW283674   3.515   6.051   0.704 -0.1783 -0.8046  0.5470
27334SOL     OW83675   9.104   2.497   1.404  0.5032  0.3300  0.5683
27334SOL    HW183676   9.049   2.531   1.333 -0.6756  0.8063  1.6815
27334SOL    HW283677   9.155   2.427   1.363  1.0404  1.6372 -1.1456
27335SOL     OW83678   8.927   0.122   2.647  0.9221  0.3268  0.4403
27335SOL    HW183679   8.952   0.199   2.697  1.5860  0.8834 -0.7100
27335SOL    HW283680   8.855   0.083   2.696 -1.4573  3.2933 -0.4344
27336SOL     OW83681   7.909   5.693   1.804 -0.1818  0.0240 -0.2730
27336SOL    HW183682   7.824   5.688   1.761  1.2924 -0.9166 -3.3591
27336SOL    HW283683   7.969   5.651   1.742  3.0721  3.3671  0.3258
27337SOL     OW83684   0.878   0.372   1.287 -0.1393  0.3403 -0.2405
27337SOL    HW183685   0.884   0.296   1.346 -0.2395  0.1971 -0.4127
27337SOL    HW283686   0.951   0.428   1.313  0.4955 -0.2447 -0.7150
27338SOL     OW83687   2.770   5.536   1.609  0.0483 -0.8909  0.4449
27338SOL    HW183688   2.856   5.535   1.652  0.6415  4.1363 -0.0699
27338SOL    HW283689   2.712   5.577   1.672 -0.6463  0.5939 -1.1010
27339SOL     OW83690   0.644   7.794   5.807 -0.0846 -0.4087  0.8490
27339SOL    HW183691   0.553   7.780   5.834  0.1712 -1.6796  1.0917
27339SOL    HW283692   0.687   7.710   5.823  0.6671 -0.4590 -1.1451
27340SOL     OW83693   3.785   2.466   0.236  0.1546 -0.3474 -0.0821
27340SOL    HW183694   3.769   2.560   0.223 -1.0857 -0.5325  0.0109
27340SOL    HW283695   3.823   2.437   0.153 -1.6934 -0.2205 -1.0202
27341SOL     OW83696   2.939   7.019   8.688  0.5445  0.0470  0.7220
27341SOL    HW183697   3.008   7.079   8.660 -1.7133  2.3971 -0.2546
27341SOL    HW283698   2.895   7.065   8.760  0.2609 -1.6187  1.6780
27342SOL     OW83699   7.352   1.296   7.975 -0.8938  0.8173  0.4733
27342SOL    HW183700   7.445   1.292   7.951 -1.4188  3.0736 -2.5925
27342SOL    HW283701   7.317   1.212   7.947 -0.0534  0.6101 -0.0102
27343SOL     OW83702   8.039   7.053   1.968  0.4414 -0.5114 -0.1342
27343SOL    HW183703   8.058   7.125   2.027 -1.3292 -0.0978  0.0062
27343SOL    HW283704   8.085   6.978   2.004 -0.1392 -0.1315  1.4626
27344SOL     OW83705   7.145   0.557   8.596 -0.3852 -0.0925 -0.2983
27344SOL    HW183706   7.119   0.482   8.544  0.6082  0.9291 -2.3894
27344SOL    HW283707   7.132   0.633   8.539 -0.5433  1.2731  1.4247
27345SOL     OW83708   7.581   9.084   6.476  0.2396  0.5339 -0.7792
27345SOL    HW183709   7.607   9.009   6.529 -2.4138  1.0822  1.5631
27345SOL    HW283710   7.656   9.144   6.480  0.1388  0.6099  2.6296
27346SOL     OW83711   5.352   0.767   4.980 -0.3487  0.1870  0.3669
27346SOL    HW183712   5.288   0.791   4.914 -0.3644 -1.2087 -0.1492
27346SOL    HW283713   5.371   0.849   5.026  0.9976  1.6076 -2.4750
27347SOL     OW83714   8.448   2.160   5.219 -0.1853  0.1387 -0.1414
27347SOL    HW183715   8.410   2.240   5.255 -0.1735  0.6462 -1.2064
27347SOL    HW283716   8.404   2.089   5.265 -0.8067  0.7470  0.2238
27348SOL     OW83717   3.066   4.683   5.849 -0.6391  0.1825 -0.3014
27348SOL    HW183718   3.050   4.692   5.943 -2.1076 -1.2134 -0.3868
27348SOL    HW283719   2.987   4.717   5.808 -0.2381  0.2571 -1.0282
27349SOL     OW83720   1.001   5.554   9.623 -0.4785 -0.4890 -0.4680
27349SOL    HW183721   1.087   5.543   9.664 -0.6446  1.4098  0.5116
27349SOL    HW283722   0.987   5.472   9.576  1.0471 -1.5989  0.8573
27350SOL     OW83723   2.893   1.896   3.849 -0.0860 -0.5031 -0.4176
27350SOL    HW183724   2.983   1.876   3.876  0.4173  1.4914 -0.4543
27350SOL    HW283725   2.852   1.931   3.928 -0.2730  0.2427 -0.8335
27351SOL     OW83726   0.302   5.279   7.248  0.3110  0.0906  0.3998
27351SOL    HW183727   0.343   5.240   7.171  0.6549  0.8043  0.2170
27351SOL    HW283728   0.333   5.369   7.249 -1.1376  0.6160  0.3335
27352SOL     OW83729   2.564   4.131   0.672  0.0745 -0.5784 -0.1175
27352SOL    HW183730   2.607   4.212   0.644 -2.3491  0.8787  0.1019
27352SOL    HW283731   2.613   4.105   0.751  0.2711  1.2736  0.4194
27353SOL     OW83732   5.295   4.166   4.519 -0.5134  0.0831 -0.3359
27353SOL    HW183733   5.219   4.200   4.567 -0.2644 -0.5001  0.4890
27353SOL    HW283734   5.368   4.222   4.547 -0.6141  0.5755 -1.0458
27354SOL     OW83735   3.195   1.127   4.347 -0.4392 -0.3168 -0.4190
27354SOL    HW183736   3.139   1.166   4.414 -1.9836 -1.0705 -1.2134
27354SOL    HW283737   3.266   1.086   4.397 -0.8373  0.2566  0.6667
27355SOL     OW83738   8.361   3.198   9.454  0.4878 -0.0825  0.3972
27355SOL    HW183739   8.304   3.167   9.383  0.9796  1.6943 -0.8484
27355SOL    HW283740   8.332   3.149   9.531 -2.9808  0.9154 -0.0953
27356SOL     OW83741   9.059   3.511   9.636  0.1439 -0.0164  0.3477
27356SOL    HW183742   9.010   3.443   9.590 -0.1973 -0.0924  0.8243
27356SOL    HW283743   9.132   3.531   9.577 -1.8569  2.0120 -1.6863
27357SOL     OW83744   4.784   8.873   2.818  0.1416  0.1501 -0.0558
27357SOL    HW183745   4.863   8.830   2.783  1.0117  1.2611  0.4648
27357SOL    HW283746   4.751   8.926   2.746  1.3725  1.6768  0.4435
27358SOL     OW83747   6.849   5.718   6.593 -0.2441  0.1149 -0.9724
27358SOL    HW183748   6.814   5.757   6.513 -0.2945  0.7657 -0.6331
27358SOL    HW283749   6.937   5.753   6.601 -0.2935  0.1684 -0.6621
27359SOL     OW83750   8.806   1.907   2.276 -0.2770  0.0748 -0.3266
27359SOL    HW183751   8.880   1.851   2.251  1.1646  0.7348  2.1146
27359SOL    HW283752   8.756   1.853   2.338  1.5284  1.5271  2.6232
27360SOL     OW83753   2.373   9.462   4.037 -0.1381  0.4596  0.5283
27360SOL    HW183754   2.338   9.460   3.948 -0.1760  1.2322  0.5240
27360SOL    HW283755   2.323   9.395   4.084  1.0832 -1.2423 -0.4588
27361SOL     OW83756   4.647   7.728   2.102 -0.6593 -0.3233  0.1707
27361SOL    HW183757   4.633   7.669   2.028  0.6905  0.7103 -0.9672
27361SOL    HW283758   4.634   7.673   2.179  0.2861 -2.0737 -0.8377
27362SOL     OW83759   1.844   4.944   4.911  0.1848 -0.2751 -0.0837
27362SOL    HW183760   1.790   4.878   4.868  1.0371 -1.4246  0.5427
27362SOL    HW283761   1.838   4.923   5.004  0.3499  0.6378  0.1416
27363SOL     OW83762   3.306   8.923   0.699 -0.0668 -0.2889  0.1094
27363SOL    HW183763   3.364   8.848   0.689 -1.1769 -1.0045 -1.3923
27363SOL    HW283764   3.220   8.891   0.669 -1.3048  0.6902  2.3427
27364SOL     OW83765   3.878   7.877   8.519 -0.5979  0.2088  0.0322
27364SOL    HW183766   3.885   7.934   8.596 -0.9046 -1.1984  1.1356
27364SOL    HW283767   3.969   7.855   8.498 -0.5707 -0.9293  1.2042
27365SOL     OW83768   6.441   2.164   6.321 -0.0060  0.2431  0.5832
27365SOL    HW183769   6.452   2.247   6.275 -2.2447 -0.3991 -1.3028
27365SOL    HW283770   6.519   2.157   6.376  0.9343  2.9043 -0.2426
27366SOL     OW83771   7.394   9.139   2.450  0.5332  0.2220 -0.2249
27366SOL    HW183772   7.365   9.174   2.366 -1.2651  0.6227  0.4969
27366SOL    HW283773   7.418   9.048   2.432 -0.7323  0.0225 -1.0296
27367SOL     OW83774   8.805   8.094   0.362 -0.0444 -0.3878 -0.0017
27367SOL    HW183775   8.840   8.154   0.428 -0.6716 -2.2025  2.0870
27367SOL    HW283776   8.718   8.128   0.342  0.2703  0.3451 -0.1573
27368SOL     OW83777   1.518   5.808   2.638 -0.8607 -1.2897  0.7106
27368SOL    HW183778   1.551   5.756   2.565  1.6663  1.6639 -0.4764
27368SOL    HW283779   1.443   5.855   2.602 -1.2090 -1.7219  0.8519
27369SOL     OW83780   5.606   4.420   2.240  0.0125 -0.1331  0.1198
27369SOL    HW183781   5.583   4.330   2.263  1.3530 -0.7550 -0.8439
27369SOL    HW283782   5.665   4.449   2.309 -2.2717  0.9020  1.7346
27370SOL     OW83783   4.456   2.328   9.020 -0.6561  0.3084 -0.4544
27370SOL    HW183784   4.495   2.387   9.085  1.4297 -2.1450  0.6775
27370SOL    HW283785   4.365   2.357   9.013 -0.4689  1.8390  2.1939
27371SOL     OW83786   3.056   0.992   3.249 -0.3046 -0.5032 -0.1595
27371SOL    HW183787   3.068   1.071   3.301 -0.2148 -1.9664  2.1911
27371SOL    HW283788   2.968   1.001   3.211 -0.4844  0.4992  0.4704
27372SOL     OW83789   0.916   7.125   9.238  0.6028  1.0070  0.7324
27372SOL    HW183790   0.973   7.092   9.307  1.9598  0.8455 -0.4156
27372SOL    HW283791   0.902   7.050   9.180 -1.3387  0.8698  1.3115
27373SOL     OW83792   4.991   8.845   7.708 -0.3312  0.3601  0.4385
27373SOL    HW183793   5.032   8.852   7.794 -0.5628 -0.7994  0.6587
27373SOL    HW283794   4.917   8.905   7.712  0.3461  1.1984  0.6258
27374SOL     OW83795   5.832   1.962   2.721  0.3413  0.0186  0.6163
27374SOL    HW183796   5.738   1.981   2.712  0.3624 -0.1764 -0.0881
27374SOL    HW283797   5.836   1.891   2.784 -0.2245 -1.8491 -1.3198
27375SOL     OW83798   1.357   1.800   0.040 -0.0351  0.4603  0.0479
27375SOL    HW183799   1.381   1.717  -0.002  1.4504  1.0310 -0.3185
27375SOL    HW283800   1.299   1.843  -0.023  1.7602  1.0792 -1.2734
27376SOL     OW83801   0.340   5.886   7.172 -0.0260 -0.1217  0.0719
27376SOL    HW183802   0.420   5.842   7.202 -0.2739 -0.6329  0.0018
27376SOL    HW283803   0.357   5.910   7.082  0.3886  0.6034  0.3387
27377SOL     OW83804   6.252   5.640   6.738  0.4413  0.2242  0.0651
27377SOL    HW183805   6.310   5.597   6.800  0.7856  1.4560  0.6305
27377SOL    HW283806   6.171   5.654   6.787 -0.3062 -1.2886 -0.6529
27378SOL     OW83807   0.032   4.550   7.180 -0.2544  0.2726  0.2708
27378SOL    HW183808  -0.013   4.467   7.162 -0.1118  0.4225 -0.8435
27378SOL    HW283809  -0.038   4.614   7.189 -0.3231  0.2340  0.0139
27379SOL     OW83810   2.178   1.900   0.316 -0.4880  0.0010 -0.2298
27379SOL    HW183811   2.210   1.829   0.260 -0.4746 -0.5932  0.5160
27379SOL    HW283812   2.222   1.886   0.399  1.6054  2.4646 -0.8012
27380SOL     OW83813   6.631   7.642   5.495  0.1938  0.2808 -0.4068
27380SOL    HW183814   6.553   7.587   5.487  0.5891 -0.8871  2.3267
27380SOL    HW283815   6.654   7.635   5.588  1.7569  3.1010 -0.4992
27381SOL     OW83816   0.298   6.410   1.506 -0.3207  0.0123 -0.2493
27381SOL    HW183817   0.212   6.373   1.486 -0.6508 -0.2675  1.5207
27381SOL    HW283818   0.283   6.466   1.582  1.2655 -1.0698  0.9326
27382SOL     OW83819   2.543   8.380   6.313 -0.0695  0.0985  0.3280
27382SOL    HW183820   2.565   8.334   6.393  0.7012  0.3553  0.2786
27382SOL    HW283821   2.510   8.313   6.254 -4.1745  0.3865  2.0204
27383SOL     OW83822   5.322   3.567   8.599 -0.3186 -0.4021  0.4042
27383SOL    HW183823   5.330   3.560   8.694 -0.5804 -1.3367  0.3679
27383SOL    HW283824   5.290   3.655   8.584  0.6298  0.0863  1.1221
27384SOL     OW83825   2.093   2.129   0.184 -0.0840 -0.3295  0.3780
27384SOL    HW183826   2.031   2.100   0.117  0.2937  1.1475 -0.6575
27384SOL    HW283827   2.114   2.050   0.233 -2.6095 -0.9436  0.6439
27385SOL     OW83828   9.099   7.557   0.957 -0.3040 -0.3629  0.0903
27385SOL    HW183829   9.156   7.629   0.928  0.2938 -0.6794  0.4446
27385SOL    HW283830   9.095   7.498   0.882  0.2507 -0.5812  0.2219
27386SOL     OW83831   7.722   1.495   2.465  0.0868 -0.1224  0.0721
27386SOL    HW183832   7.631   1.511   2.440 -0.3700 -1.8547  0.5249
27386SOL    HW283833   7.751   1.579   2.502 -0.8773  0.8609 -1.2630
27387SOL     OW83834   9.357   1.925   1.413 -0.6790  0.4885  0.1911
27387SOL    HW183835   9.333   2.015   1.433 -0.2600  0.1791  2.3461
27387SOL    HW283836   9.403   1.894   1.491 -0.9925 -1.6657 -0.4043
27388SOL     OW83837   0.039   7.602   0.192  0.3776  0.4748  0.1345
27388SOL    HW183838   0.026   7.507   0.186 -2.0898  0.5926  2.0059
27388SOL    HW283839   0.133   7.612   0.210  0.9538 -1.4771 -1.3812
27389SOL     OW83840   1.068   5.769   8.244  0.4645 -0.1995 -0.4849
27389SOL    HW183841   1.023   5.690   8.275  0.4925 -0.0035  0.0620
27389SOL    HW283842   1.041   5.777   8.153 -0.6761 -0.0515 -0.1485
27390SOL     OW83843   3.978   1.287   4.182  0.1199 -0.5790  0.1616
27390SOL    HW183844   4.003   1.345   4.110 -1.0487  1.3078  1.1702
27390SOL    HW283845   4.031   1.209   4.171  3.5733  1.5862  0.0304
27391SOL     OW83846   0.424   6.162   5.113 -0.2948  0.1086 -0.0805
27391SOL    HW183847   0.474   6.083   5.133  0.5102  1.0081  1.6888
27391SOL    HW283848   0.454   6.188   5.026  2.3887  0.5836  0.8758
27392SOL     OW83849   9.302   5.959   0.489  0.2154 -0.3106 -0.0100
27392SOL    HW183850   9.299   5.984   0.582 -3.2056 -0.1051 -0.0677
27392SOL    HW283851   9.251   6.025   0.444 -2.8377 -3.1811 -1.1965
27393SOL     OW83852   6.358   3.221   8.328 -0.2685  0.2837  0.2755
27393SOL    HW183853   6.385   3.162   8.398 -0.7620 -0.7646 -0.3914
27393SOL    HW283854   6.439   3.260   8.296  0.2900 -1.4980 -0.5576
27394SOL     OW83855   3.463   9.413   3.947  0.3466  0.1923 -0.3045
27394SOL    HW183856   3.537   9.386   4.002 -0.6108  0.4833  1.1668
27394SOL    HW283857   3.472   9.508   3.938  1.1704  0.0206 -1.7132
27395SOL     OW83858   4.775   7.905   7.913 -0.2679 -0.1957  0.3848
27395SOL    HW183859   4.862   7.872   7.935 -0.4490  0.1218  1.6472
27395SOL    HW283860   4.761   7.979   7.973 -1.8488 -0.9399  1.0047
27396SOL     OW83861   8.837   9.320   4.002  0.2781  0.5301 -0.0151
27396SOL    HW183862   8.909   9.354   3.948  0.2374  1.2179  0.3588
27396SOL    HW283863   8.811   9.394   4.057 -1.6611  0.7403 -1.1244
27397SOL     OW83864   5.771   7.919   4.071 -0.1410  0.1815  0.2179
27397SOL    HW183865   5.710   7.852   4.039 -0.0970  0.5059 -0.5569
27397SOL    HW283866   5.720   7.969   4.135 -0.0867 -0.7642  1.0398
27398SOL     OW83867   9.629   0.645   2.052  0.3332 -0.0376 -0.0039
27398SOL    HW183868   9.553   0.678   2.101  0.4994 -0.3454  0.4702
27398SOL    HW283869   9.593   0.617   1.968 -0.3037 -1.2888  0.6481
27399SOL     OW83870   2.202   1.466   5.299 -0.1200 -0.2123  0.0987
27399SOL    HW183871   2.253   1.401   5.347  2.1877 -0.9419 -3.0795
27399SOL    HW283872   2.143   1.415   5.244  0.3675  0.4437 -1.0534
27400SOL     OW83873   3.153   6.760   6.676  0.2087  0.7591 -0.2325
27400SOL    HW183874   3.221   6.819   6.643  1.1594 -0.4143 -0.4269
27400SOL    HW283875   3.097   6.816   6.730 -0.0775  2.2565 -1.9605
27401SOL     OW83876   2.197   4.054   4.863 -0.4732  0.2374 -0.0791
27401SOL    HW183877   2.105   4.064   4.837 -0.2184  0.1400 -1.0502
27401SOL    HW283878   2.235   4.141   4.849 -0.0171 -0.1394 -1.3882
27402SOL     OW83879   2.794   4.294   2.401 -0.3212  0.0537 -0.0958
27402SOL    HW183880   2.851   4.305   2.324 -0.3209  0.8846  0.0182
27402SOL    HW283881   2.723   4.357   2.387 -1.2033 -0.9393 -0.2163
27403SOL     OW83882   7.731   6.583   2.727 -0.2353 -0.6668 -0.2400
27403SOL    HW183883   7.751   6.590   2.820  1.4725 -1.1774 -0.5265
27403SOL    HW283884   7.656   6.524   2.723 -0.1983 -0.8059  0.7979
27404SOL     OW83885   0.274   3.106   2.237 -0.1216  0.5878 -0.1976
27404SOL    HW183886   0.290   3.017   2.267  2.9558  0.9540 -0.4945
27404SOL    HW283887   0.181   3.106   2.214 -0.4922 -2.1960  0.8474
27405SOL     OW83888   5.487   1.116   2.846 -0.2498  0.4769  0.1178
27405SOL    HW183889   5.552   1.058   2.884 -0.3266  1.6250  2.1563
27405SOL    HW283890   5.538   1.180   2.796  0.0175  0.2118  0.0466
27406SOL     OW83891   9.222   6.681   8.477 -0.0903  0.3789  0.4918
27406SOL    HW183892   9.197   6.694   8.569 -1.6417  1.1493 -0.0067
27406SOL    HW283893   9.198   6.763   8.434 -0.5287 -0.4169 -0.8275
27407SOL     OW83894   7.232   0.665   4.214  0.2367  0.2841  0.1793
27407SOL    HW183895   7.286   0.666   4.294 -2.1223  1.5982  1.8974
27407SOL    HW283896   7.225   0.573   4.191  0.1955 -0.2440  2.1095
27408SOL     OW83897   5.038   5.233   1.132 -0.0484 -0.2301  0.7086
27408SOL    HW183898   5.117   5.199   1.091 -1.9065 -2.9900 -0.8442
27408SOL    HW283899   5.015   5.311   1.081  0.2443 -0.9387 -0.5221
27409SOL     OW83900   4.723   0.680   4.266  0.7873  0.3117  0.0063
27409SOL    HW183901   4.713   0.597   4.220  1.1871  0.1742  0.1713
27409SOL    HW283902   4.667   0.672   4.343  0.0931  0.5522 -0.4536
27410SOL     OW83903   6.287   9.597   6.611 -0.3686  0.7094  0.0437
27410SOL    HW183904   6.309   9.652   6.535  0.8781  1.1043  0.6641
27410SOL    HW283905   6.256   9.658   6.677 -0.1758  0.5210  0.3102
27411SOL     OW83906   5.889   5.974   4.094  0.2612  0.3424 -0.3760
27411SOL    HW183907   5.870   6.034   4.166 -1.0004 -1.7759  1.1850
27411SOL    HW283908   5.966   6.012   4.051  2.6073  0.6467  3.5168
27412SOL     OW83909   9.368   5.427   8.151 -0.2405 -0.1155  0.0664
27412SOL    HW183910   9.304   5.484   8.193  2.4269  1.0402  2.8989
27412SOL    HW283911   9.407   5.376   8.222  2.6572 -0.0488 -1.3075
27413SOL     OW83912   2.020   2.896   0.244  0.2357  0.2140  0.2060
27413SOL    HW183913   2.026   2.801   0.231 -0.7274  0.3038 -1.0201
27413SOL    HW283914   1.966   2.927   0.172 -1.8542  1.3341  2.1138
27414SOL     OW83915   7.424   6.509   5.117 -0.0577  0.5309  0.0761
27414SOL    HW183916   7.347   6.492   5.063  0.8770 -0.7660 -0.9083
27414SOL    HW283917   7.463   6.588   5.079  0.1571  0.0759 -0.6682
27415SOL     OW83918   2.542   8.737   0.676 -0.4493 -0.4081  0.2935
27415SOL    HW183919   2.480   8.716   0.747  1.2178 -1.7157  1.4568
27415SOL    HW283920   2.542   8.659   0.621 -0.0683 -0.2885  0.1252
27416SOL     OW83921   0.406   2.764   6.753 -0.1845  0.2812  0.1523
27416SOL    HW183922   0.357   2.838   6.717 -1.2206  0.0217  0.9647
27416SOL    HW283923   0.427   2.790   6.842  0.8365  0.2227 -0.0591
27417SOL     OW83924   0.561   4.551   6.929 -0.0674 -0.1498  0.3899
27417SOL    HW183925   0.474   4.587   6.942  0.7778  1.8539  0.8645
27417SOL    HW283926   0.546   4.465   6.889 -2.2329  0.1334  0.4918
27418SOL     OW83927   5.330   6.956   6.703  0.1600  0.1660  0.0141
27418SOL    HW183928   5.420   6.979   6.727 -0.2492  2.7393 -0.5419
27418SOL    HW283929   5.306   6.886   6.763  2.1639  0.1672  0.9006
27419SOL     OW83930   9.337   1.070   3.211  0.3906 -0.3911 -0.0374
27419SOL    HW183931   9.316   0.991   3.160  1.4758 -0.6824 -0.0506
27419SOL    HW283932   9.364   1.134   3.146  1.2734 -0.5971  0.1179
27420SOL     OW83933   2.358   8.613   3.678  0.0039  1.0579  0.5329
27420SOL    HW183934   2.332   8.578   3.593  0.8761  2.6196 -0.4332
27420SOL    HW283935   2.308   8.695   3.686 -0.3661  0.7282  1.7212
27421SOL     OW83936   0.672   9.124   0.356  0.4194  0.4926  0.3141
27421SOL    HW183937   0.676   9.029   0.346  0.1246  0.5667 -0.5424
27421SOL    HW283938   0.631   9.137   0.442  0.8774 -0.1489  0.6391
27422SOL     OW83939   0.937   7.829   2.090  0.1645  0.0421  0.1529
27422SOL    HW183940   0.978   7.866   2.168  0.9593  0.0611 -0.2662
27422SOL    HW283941   0.930   7.735   2.110  0.5501  0.0146  0.1703
27423SOL     OW83942   5.918   0.767   0.748  0.1272 -0.0195  0.0075
27423SOL    HW183943   5.905   0.709   0.673  1.8875  0.7398 -0.9737
27423SOL    HW283944   5.859   0.734   0.815 -1.6964 -0.5952 -1.7782
27424SOL     OW83945   3.721   3.692   7.852 -0.4909 -0.1575 -0.0016
27424SOL    HW183946   3.726   3.620   7.915  0.9663  1.9459  2.5407
27424SOL    HW283947   3.810   3.702   7.820 -0.4491  1.1087  0.4606
27425SOL     OW83948   2.942   6.981   0.631 -0.6639  0.3661 -0.1355
27425SOL    HW183949   2.947   7.067   0.672  0.3961  0.8103 -1.1499
27425SOL    HW283950   2.997   6.924   0.686  0.7282  0.9509 -0.8722
27426SOL     OW83951   3.668   4.776   5.283  0.4263 -0.0473  0.1374
27426SOL    HW183952   3.690   4.687   5.257 -0.6356  0.2529 -2.1188
27426SOL    HW283953   3.637   4.817   5.202 -0.8416  1.8193  1.4795
27427SOL     OW83954   8.148   1.461   5.122 -0.3421 -0.2109  0.4135
27427SOL    HW183955   8.139   1.531   5.188  0.0093  2.1124 -1.8304
27427SOL    HW283956   8.058   1.435   5.103 -0.4115 -2.3304  3.0730
27428SOL     OW83957   6.677   9.244   9.191 -0.7102  0.2704 -0.0296
27428SOL    HW183958   6.608   9.206   9.136 -1.2731  0.5227  0.4842
27428SOL    HW283959   6.629   9.289   9.261 -0.0193 -1.2317  1.4763
27429SOL     OW83960   1.656   1.722   5.215 -0.0409  0.2107 -0.6306
27429SOL    HW183961   1.725   1.680   5.163  0.4650  0.2762 -0.0217
27429SOL    HW283962   1.681   1.705   5.306 -1.7074 -1.2280 -0.3846
27430SOL     OW83963   1.643   6.398   6.882  0.5377 -0.5341 -0.9032
27430SOL    HW183964   1.682   6.486   6.879 -0.0718 -0.2202  0.0355
27430SOL    HW283965   1.621   6.385   6.974 -0.6429 -1.1120 -1.2599
27431SOL     OW83966   5.744   1.861   8.622 -0.1030  0.1456 -0.0437
27431SOL    HW183967   5.702   1.780   8.591 -1.8910  1.3668 -0.9555
27431SOL    HW283968   5.808   1.882   8.555 -0.7044  0.2843 -0.5820
27432SOL     OW83969   3.455   9.634   1.729  0.4294  0.3436  0.3726
27432SOL    HW183970   3.421   9.564   1.785  1.4260 -0.9646 -0.5735
27432SOL    HW283971   3.446   9.713   1.781  0.1605 -0.6359  1.8843
27433SOL     OW83972   3.304   6.882   3.919 -0.5182 -0.1763 -0.1242
27433SOL    HW183973   3.336   6.952   3.976 -0.4525 -0.1266 -0.2237
27433SOL    HW283974   3.281   6.811   3.980  1.4984 -0.9199 -0.1720
27434SOL     OW83975   1.838   3.859   2.710  0.6309  0.1234  0.3360
27434SOL    HW183976   1.923   3.902   2.718 -0.1807  1.9542 -0.2736
27434SOL    HW283977   1.806   3.885   2.623  0.1459 -1.8859 -0.1281
27435SOL     OW83978   8.942   4.678   7.533  0.4197  0.1793 -0.5286
27435SOL    HW183979   8.869   4.617   7.542  0.8855 -0.6234 -1.8675
27435SOL    HW283980   8.948   4.696   7.439  0.9030  1.5535 -0.2620
27436SOL     OW83981   5.062   5.559   6.418 -0.1673  0.3533  0.2774
27436SOL    HW183982   4.993   5.625   6.426  0.9007  1.3568  1.6653
27436SOL    HW283983   5.050   5.502   6.494 -0.7411 -0.7820 -0.6196
27437SOL     OW83984   1.100   2.081   7.570  0.5467  0.2855  0.2166
27437SOL    HW183985   1.026   2.051   7.518 -1.6423  1.2421  2.5828
27437SOL    HW283986   1.087   2.175   7.579  1.2941  0.2876  1.7256
27438SOL     OW83987   5.058   1.745   3.228  0.2066 -0.0483  0.5005
27438SOL    HW183988   5.053   1.722   3.135 -1.6216 -1.2869  0.8300
27438SOL    HW283989   5.144   1.713   3.256 -1.2578 -4.9960  0.3950
27439SOL     OW83990   1.812   8.315   4.990 -1.0759 -0.6882 -0.1202
27439SOL    HW183991   1.826   8.312   5.085 -1.6335  1.4229  0.0885
27439SOL    HW283992   1.789   8.407   4.973  1.0955 -0.5022 -2.5941
27440SOL     OW83993   1.676   8.353   2.575 -0.4286 -0.0214 -0.6219
27440SOL    HW183994   1.635   8.417   2.517  0.7050  1.6791  0.3587
27440SOL    HW283995   1.710   8.286   2.517  0.0727  1.2812 -1.8858
27441SOL     OW83996   7.592   1.718   2.283 -0.2449 -0.2666 -0.6504
27441SOL    HW183997   7.510   1.756   2.313  0.6916  1.5116 -0.2277
27441SOL    HW283998   7.650   1.793   2.269  0.7616 -1.3365 -2.6672
27442SOL     OW83999   3.830   2.013   5.413  0.1248 -0.4720 -0.4908
27442SOL    HW184000   3.886   2.087   5.391 -0.4862 -0.1931 -1.1540
27442SOL    HW284001   3.886   1.954   5.463  0.5117  0.6139  0.3990
27443SOL     OW84002   3.037   5.594   9.226 -0.9751  0.7249 -1.0733
27443SOL    HW184003   3.044   5.620   9.318 -1.0391 -0.6440 -0.6680
27443SOL    HW284004   2.953   5.629   9.198 -1.8585 -0.4899 -0.0402
27444SOL     OW84005   5.902   5.310   2.209 -0.2648 -0.0544 -0.7062
27444SOL    HW184006   5.992   5.283   2.230  0.2843  1.6122 -0.7587
27444SOL    HW284007   5.860   5.320   2.295  0.0002  0.4443 -0.6347
27445SOL     OW84008   2.527   9.155   0.585  0.0842 -0.1384  0.3244
27445SOL    HW184009   2.600   9.202   0.625 -1.0743  1.7456  0.3356
27445SOL    HW284010   2.557   9.064   0.581  1.6552  0.2271  2.1114
27446SOL     OW84011   2.719   0.003   3.550  0.0728 -0.2320  0.5296
27446SOL    HW184012   2.703  -0.005   3.456  0.3749 -0.9563  0.5351
27446SOL    HW284013   2.638   0.039   3.585 -0.5473 -1.2519  0.1745
27447SOL     OW84014   9.468   4.299   9.137 -0.0710  0.0263  0.3648
27447SOL    HW184015   9.483   4.390   9.162  0.5198  0.9680 -2.9306
27447SOL    HW284016   9.380   4.299   9.100 -0.2765 -0.8983  0.8176
27448SOL     OW84017   9.160   2.366   4.230 -0.2389  0.7976 -0.0375
27448SOL    HW184018   9.151   2.315   4.311 -1.3983  0.4449 -0.3695
27448SOL    HW284019   9.125   2.309   4.162  2.7968  0.1736 -1.2013
27449SOL     OW84020   7.722   5.409   2.276  0.5675  0.3486  0.0581
27449SOL    HW184021   7.717   5.503   2.295 -0.1171  0.4169 -0.4352
27449SOL    HW284022   7.771   5.372   2.350 -0.6606  0.8284  1.1502
27450SOL     OW84023   9.363   7.983   0.039 -0.4669 -0.0056  0.5849
27450SOL    HW184024   9.294   7.926   0.075 -1.3890 -0.2873 -1.4933
27450SOL    HW284025   9.444   7.950   0.078 -1.3027 -0.8467  1.6842
27451SOL     OW84026   6.745   1.726   2.422  0.1323  0.6356  0.5118
27451SOL    HW184027   6.740   1.684   2.336 -0.3708 -1.3008  1.4423
27451SOL    HW284028   6.834   1.761   2.426  0.7700 -0.8308 -0.1091
27452SOL     OW84029   6.547   8.055   1.245 -0.1309 -0.0462 -0.5404
27452SOL    HW184030   6.606   8.115   1.199 -0.1703  0.2172 -0.2455
27452SOL    HW284031   6.603   8.012   1.311 -0.4261  0.7242  0.2177
27453SOL     OW84032   8.999   6.173   0.653 -0.9199 -0.2830  0.0913
27453SOL    HW184033   8.966   6.102   0.597  0.4533 -0.6259 -0.3235
27453SOL    HW284034   9.000   6.250   0.597 -1.6351 -0.1057  0.3068
27454SOL     OW84035   2.375   2.295   9.213 -0.6556  0.1227  0.0361
27454SOL    HW184036   2.465   2.270   9.231 -0.3732  1.9988  1.5433
27454SOL    HW284037   2.323   2.251   9.280 -0.4029  1.7934  1.3818
27455SOL     OW84038   7.920   0.475   9.248 -0.0850 -0.2323 -0.5527
27455SOL    HW184039   7.842   0.460   9.194 -0.9039 -2.7533  1.1292
27455SOL    HW284040   7.966   0.392   9.247  1.3867  0.5291  0.3313
27456SOL     OW84041   4.157   2.063   5.686  0.7265  0.3981  0.0410
27456SOL    HW184042   4.176   2.077   5.593  1.4821  0.9274  0.2619
27456SOL    HW284043   4.149   2.151   5.722  0.5118  0.1941  0.4905
27457SOL     OW84044   0.813   5.695   2.911  0.2616  0.3772 -0.3253
27457SOL    HW184045   0.764   5.776   2.898 -1.3178 -0.5726 -0.5859
27457SOL    HW284046   0.811   5.681   3.006 -0.9574 -0.1997 -0.4116
27458SOL     OW84047   2.399   0.971   3.686  0.1666 -0.5732 -0.2887
27458SOL    HW184048   2.381   1.003   3.597 -1.7270  1.0612  0.6158
27458SOL    HW284049   2.490   0.998   3.702  0.0493  0.4465 -1.1901
27459SOL     OW84050   6.888   6.056   1.883  0.1274 -0.8285 -0.1253
27459SOL    HW184051   6.891   6.041   1.788 -1.2332  0.0245 -0.3373
27459SOL    HW284052   6.797   6.079   1.900  0.1609 -1.8044  1.5449
27460SOL     OW84053   1.452   8.353   5.928 -0.2527 -0.4764  0.2181
27460SOL    HW184054   1.393   8.369   5.855  1.7810 -0.8367 -1.6050
27460SOL    HW284055   1.500   8.274   5.904  2.4100  0.9040  0.5660
27461SOL     OW84056   4.853   9.676   5.844 -0.3360  0.3762  0.0526
27461SOL    HW184057   4.938   9.634   5.832 -0.3891  0.5455 -1.0718
27461SOL    HW284058   4.791   9.619   5.798 -1.1139 -0.5748  2.1613
27462SOL     OW84059   1.447   2.915   2.529  0.4132 -0.2878 -0.8697
27462SOL    HW184060   1.384   2.985   2.546 -0.4324 -1.3197  0.4323
27462SOL    HW284061   1.530   2.960   2.515 -0.1796  0.9889 -0.4306
27463SOL     OW84062   6.221   9.228   3.117  0.0483  0.1270 -0.4272
27463SOL    HW184063   6.290   9.162   3.108  1.5534  1.4167  1.0448
27463SOL    HW284064   6.144   9.178   3.144  0.3291 -1.3536 -2.1214
27464SOL     OW84065   8.923   8.504   7.990  0.7279  0.1593 -0.0529
27464SOL    HW184066   8.863   8.462   7.929  2.2031  1.4001 -2.5284
27464SOL    HW284067   8.933   8.441   8.062  0.9489 -2.6489 -2.3731
27465SOL     OW84068   3.300   2.139   7.510  0.6951  0.2605  0.4280
27465SOL    HW184069   3.269   2.150   7.600  3.0031  0.8582  1.2064
27465SOL    HW284070   3.301   2.044   7.496  2.2437  0.0415  1.7971
27466SOL     OW84071   1.818   1.864   3.408  0.2063  0.8914 -0.3567
27466SOL    HW184072   1.901   1.824   3.435 -0.6695 -0.7200  0.1332
27466SOL    HW284073   1.772   1.882   3.490 -0.9510 -0.6185 -0.6205
27467SOL     OW84074   5.547   0.743   1.219 -0.3076  0.4425  0.2576
27467SOL    HW184075   5.637   0.718   1.239 -0.9384 -0.8349  1.6883
27467SOL    HW284076   5.555   0.829   1.178  1.5833  0.1631 -0.0638
27468SOL     OW84077   0.089   2.629   1.133 -0.3403  0.4644  0.1801
27468SOL    HW184078   0.179   2.620   1.100 -0.2004  1.0788  0.3905
27468SOL    HW284079   0.050   2.698   1.080 -1.6786 -1.7917 -1.9792
27469SOL     OW84080   1.748   7.393   3.916  0.1910 -0.0342  0.4028
27469SOL    HW184081   1.657   7.416   3.929  0.4696  0.7227  1.1024
27469SOL    HW284082   1.759   7.310   3.962 -0.3418 -0.5765 -0.4306
27470SOL     OW84083   2.543   1.494   0.679  0.4698  0.0168  0.7891
27470SOL    HW184084   2.564   1.587   0.666  0.8604 -0.1930 -0.1901
27470SOL    HW284085   2.462   1.481   0.629 -0.4209  0.1519  2.1456
27471SOL     OW84086   3.356   6.262   4.547 -0.2631  0.3909 -0.9292
27471SOL    HW184087   3.408   6.310   4.612 -0.3388  1.2539 -1.4755
27471SOL    HW284088   3.266   6.291   4.562 -0.3422  0.2430 -1.1164
27472SOL     OW84089   8.583   7.828   7.918  0.4305  0.2817  0.1779
27472SOL    HW184090   8.530   7.877   7.854  0.5754 -0.1993 -0.3187
27472SOL    HW284091   8.630   7.763   7.865  0.8294  0.1143  0.7321
27473SOL     OW84092   8.078   5.737   0.733  0.8696 -0.1585  0.2541
27473SOL    HW184093   8.002   5.756   0.678  1.4058 -1.8931 -1.1877
27473SOL    HW284094   8.094   5.818   0.782 -0.3621  1.0675 -1.2845
27474SOL     OW84095   8.982   9.528   6.423 -0.2176  0.2958  0.5060
27474SOL    HW184096   8.998   9.608   6.373  0.1526  1.7524  2.8071
27474SOL    HW284097   8.943   9.559   6.505  1.0014 -1.7711  1.9381
27475SOL     OW84098   8.425   9.461   2.505 -0.0259  0.0040  0.2686
27475SOL    HW184099   8.404   9.383   2.454 -0.1513 -0.4124  0.9479
27475SOL    HW284100   8.349   9.473   2.563  0.1739  0.3919  0.4544
27476SOL     OW84101   2.507   2.509   8.796 -0.3860 -0.2878  0.0545
27476SOL    HW184102   2.551   2.451   8.858  1.1525  2.6825  1.9945
27476SOL    HW284103   2.483   2.452   8.723  3.2531 -2.9307  0.5943
27477SOL     OW84104   2.269   2.238   1.804  0.2092 -0.3123 -0.0444
27477SOL    HW184105   2.195   2.299   1.814  1.0600  0.7151  0.1786
27477SOL    HW284106   2.287   2.208   1.894  0.0831 -0.5369 -0.0942
27478SOL     OW84107   4.707   3.081   4.736  0.4454 -0.1929 -0.1924
27478SOL    HW184108   4.712   3.118   4.648  1.0324 -1.0671 -0.5444
27478SOL    HW284109   4.655   3.144   4.786 -0.8227 -0.1928 -1.4360
27479SOL     OW84110   1.631   1.673   8.874  0.4949 -0.2721  0.1680
27479SOL    HW184111   1.709   1.676   8.818  0.7400 -3.6759  0.1407
27479SOL    HW284112   1.666   1.672   8.964  0.3247  0.5123  0.2529
27480SOL     OW84113   2.134   6.595   4.685 -0.5782  0.6252  0.0767
27480SOL    HW184114   2.073   6.667   4.667 -0.0148  0.9491 -0.5940
27480SOL    HW284115   2.218   6.625   4.650 -0.2188 -0.1595  0.2331
27481SOL     OW84116   6.957   1.335   5.704  0.5994  0.3160 -0.0674
27481SOL    HW184117   6.945   1.250   5.746 -0.6265  0.5754  0.1453
27481SOL    HW284118   6.874   1.381   5.718  0.1785  0.4774 -2.6022
27482SOL     OW84119   0.191   9.189   7.054 -0.2189 -0.0461  0.3103
27482SOL    HW184120   0.234   9.223   7.133 -1.6762 -1.3995  1.7764
27482SOL    HW284121   0.107   9.236   7.051 -1.1837 -1.6158  0.9645
27483SOL     OW84122   6.341   0.159   9.504  0.8734  0.2943 -0.0180
27483SOL    HW184123   6.325   0.144   9.597  0.8999 -1.4029 -0.2535
27483SOL    HW284124   6.431   0.130   9.490  0.5032 -0.5362 -0.7709
27484SOL     OW84125   2.024   4.211   2.830  0.3100 -0.1380 -0.6626
27484SOL    HW184126   2.072   4.128   2.830  3.6411  1.5895 -2.3293
27484SOL    HW284127   1.988   4.218   2.742 -1.0230 -0.2896 -0.1543
27485SOL     OW84128   2.511   9.378   8.868 -0.1716 -0.6697  0.0710
27485SOL    HW184129   2.423   9.386   8.905  0.0202 -0.4796  0.4966
27485SOL    HW284130   2.553   9.311   8.922 -0.2977 -1.3058 -0.6104
27486SOL     OW84131   2.646   1.275   1.187 -0.1844 -0.5182 -0.0710
27486SOL    HW184132   2.695   1.352   1.157  0.9559 -1.4044 -0.5569
27486SOL    HW284133   2.599   1.245   1.110 -0.4284 -0.4654  0.0560
27487SOL     OW84134   3.209   6.049   1.724 -0.1157 -0.5135  0.3139
27487SOL    HW184135   3.128   6.072   1.769 -0.1315 -2.5861  1.4488
27487SOL    HW284136   3.195   5.961   1.690  1.7548 -1.1004  0.8897
27488SOL     OW84137   9.523   6.358   9.012 -0.0319 -0.5045 -0.0635
27488SOL    HW184138   9.618   6.359   9.009 -0.0050 -0.5791  0.5653
27488SOL    HW284139   9.502   6.313   9.094 -0.5991  0.2101  0.1981
27489SOL     OW84140   3.359   9.598   9.419  0.5409 -0.5741 -0.2779
27489SOL    HW184141   3.443   9.621   9.379  1.4449 -3.3798 -0.1683
27489SOL    HW284142   3.294   9.636   9.360  1.8274  1.7103 -0.3483
27490SOL     OW84143   1.406   5.645   3.131  0.8491  0.1458 -0.1267
27490SOL    HW184144   1.430   5.639   3.038  2.5230  0.5884  0.2546
27490SOL    HW284145   1.365   5.731   3.139 -4.0113 -1.7075 -1.3848
27491SOL     OW84146   9.330   6.040   9.432 -0.1222 -0.2287  0.2439
27491SOL    HW184147   9.362   6.129   9.423  1.9245 -0.9525 -0.2547
27491SOL    HW284148   9.263   6.031   9.364 -1.6157  1.4059  1.4277
27492SOL     OW84149   0.301   3.405   0.519  0.3745 -0.1748 -0.4552
27492SOL    HW184150   0.288   3.437   0.609  1.2059 -0.9731 -0.0347
27492SOL    HW284151   0.264   3.474   0.464 -0.1650  0.3290  0.4941
27493SOL     OW84152   8.227   8.712   9.392 -0.3905  0.5704 -0.2966
27493SOL    HW184153   8.183   8.762   9.460 -2.1518  0.6119 -1.3936
27493SOL    HW284154   8.303   8.765   9.368 -0.1767  0.9189  1.0615
27494SOL     OW84155   2.404   2.951   5.651 -0.0204  0.5342 -0.3056
27494SOL    HW184156   2.333   2.912   5.701  0.7725  0.2896  0.6633
27494SOL    HW284157   2.408   2.901   5.570  1.5878 -2.1305  1.2805
27495SOL     OW84158   6.484   8.626   0.801  0.1809  0.5067 -0.6871
27495SOL    HW184159   6.492   8.689   0.729  0.7309  1.0321 -0.1783
27495SOL    HW284160   6.521   8.545   0.765  1.1055  0.9531 -0.7780
27496SOL     OW84161   7.872   3.193   8.574  0.5331  0.2180  0.1441
27496SOL    HW184162   7.850   3.282   8.546  2.1770  1.2119  1.7550
27496SOL    HW284163   7.812   3.137   8.526 -1.4398  2.2795  0.0235
27497SOL     OW84164   1.107   0.095   4.648 -0.0837 -0.0015 -0.4555
27497SOL    HW184165   1.110   0.105   4.553  2.7565 -1.7150 -0.6487
27497SOL    HW284166   1.014   0.077   4.667 -0.8831  1.2651 -2.7258
27498SOL     OW84167   3.242   0.313   9.071  0.2439  0.0786 -0.0335
27498SOL    HW184168   3.309   0.371   9.107 -0.8980 -0.2672  2.9135
27498SOL    HW284169   3.173   0.372   9.040 -0.1775  0.3781  1.4153
27499SOL     OW84170   3.010   4.813   7.746  0.1368 -0.4372  0.4517
27499SOL    HW184171   3.070   4.803   7.820  0.0769 -0.0840  0.5492
27499SOL    HW284172   3.035   4.896   7.705 -0.9808  0.2612  1.1391
27500SOL     OW84173   1.662   0.653   8.130 -0.5910 -0.4924  0.0753
27500SOL    HW184174   1.610   0.715   8.182 -1.6263 -0.1763 -1.3016
27500SOL    HW284175   1.724   0.615   8.194 -1.8175 -0.1333  1.5414
27501SOL     OW84176   7.608   5.196   0.748  0.5119 -0.3536 -0.0818
27501SOL    HW184177   7.566   5.272   0.787  0.5296 -1.5680  2.5335
27501SOL    HW284178   7.551   5.122   0.772  0.9728 -1.2991 -1.7424
27502SOL     OW84179   5.805   2.236   8.972  0.0245  0.2364 -0.1340
27502SOL    HW184180   5.874   2.213   8.910  0.2098  0.4635 -0.0158
27502SOL    HW284181   5.776   2.153   9.007  2.2806  0.2166  2.0102
27503SOL     OW84182   1.222   1.920   4.979 -0.4446  0.2486  0.1723
27503SOL    HW184183   1.147   1.890   4.927  0.2549  0.0767 -0.7676
27503SOL    HW284184   1.298   1.886   4.933  0.2940  1.7604  0.2103
27504SOL     OW84185   6.153   5.385   1.980 -0.6715 -0.3576 -0.3069
27504SOL    HW184186   6.069   5.429   1.994 -0.3113  0.0840  0.4780
27504SOL    HW284187   6.148   5.306   2.032  0.0234  0.4741  1.0661
27505SOL     OW84188   8.804   3.987   7.102 -0.8255  0.7136  0.2048
27505SOL    HW184189   8.746   4.054   7.138 -1.2841  0.1928  0.4419
27505SOL    HW284190   8.851   4.032   7.031 -2.3801  0.8381 -0.7968
27506SOL     OW84191   5.583   6.053   7.210 -0.1493 -0.2392  0.5908
27506SOL    HW184192   5.588   6.146   7.231  0.6708 -0.0037 -0.5567
27506SOL    HW284193   5.528   6.048   7.132 -1.5376 -0.9037  1.5702
27507SOL     OW84194   0.331   8.647   8.235 -0.2635  0.1335  0.6355
27507SOL    HW184195   0.253   8.655   8.179 -0.3471  1.0581  0.8685
27507SOL    HW284196   0.360   8.737   8.247  0.0627 -0.1040  1.6571
27508SOL     OW84197   6.378   2.795   3.552  0.2565 -0.8469 -0.1969
27508SOL    HW184198   6.460   2.749   3.534  1.8092  0.8789  1.8723
27508SOL    HW284199   6.392   2.835   3.638 -2.0287  1.1735 -0.6708
27509SOL     OW84200   5.662   0.040   3.837 -0.7848  0.3729 -0.2929
27509SOL    HW184201   5.734   0.082   3.790 -0.1244 -1.1403 -0.7189
27509SOL    HW284202   5.699   0.017   3.922 -0.5094 -0.9692 -0.7360
27510SOL     OW84203   5.033   2.369   6.630  0.5439  0.1620 -0.2203
27510SOL    HW184204   5.079   2.293   6.666  1.4591  1.4204  1.4377
27510SOL    HW284205   4.978   2.400   6.702 -0.0609  0.8884 -0.9696
27511SOL     OW84206   3.716   9.150   8.403  0.0619  0.7983  0.1253
27511SOL    HW184207   3.658   9.213   8.446  0.2775 -0.1020  1.8004
27511SOL    HW284208   3.665   9.069   8.401  0.9770  0.1742  0.9940
27512SOL     OW84209   9.154   0.634   0.150 -0.5376 -0.2845 -0.2603
27512SOL    HW184210   9.148   0.609   0.242  0.3218  0.4526  0.0109
27512SOL    HW284211   9.176   0.553   0.104 -2.2292 -0.9310 -0.0097
27513SOL     OW84212   3.154   4.060   9.184 -0.4276 -0.3884  0.1378
27513SOL    HW184213   3.081   4.046   9.244 -0.9465 -0.1153 -0.4225
27513SOL    HW284214   3.161   4.155   9.175  0.9071 -0.3404  1.2698
27514SOL     OW84215   4.213   0.844   2.121  0.5602  0.4229 -0.0467
27514SOL    HW184216   4.132   0.828   2.073  1.2104 -3.9931 -0.0168
27514SOL    HW284217   4.271   0.885   2.056 -1.5086  3.8929 -0.0051
27515SOL     OW84218   3.118   8.399   3.808  0.0775 -0.5105 -0.2291
27515SOL    HW184219   3.167   8.404   3.726 -1.5560 -1.0741 -1.2979
27515SOL    HW284220   3.044   8.459   3.795  0.8551  0.9585  1.6489
27516SOL     OW84221   7.801   2.355   1.585  0.1452 -0.4607 -0.1125
27516SOL    HW184222   7.716   2.364   1.541 -0.0072  1.5506  0.4820
27516SOL    HW284223   7.863   2.341   1.513 -0.5494 -0.8590 -0.6515
27517SOL     OW84224   6.163   3.155   1.442  0.3233 -0.4505 -0.0216
27517SOL    HW184225   6.084   3.188   1.399  0.2383  0.2380  0.6461
27517SOL    HW284226   6.182   3.073   1.398 -0.5351 -0.4169 -0.4633
27518SOL     OW84227   9.665   3.110   6.760  0.2327 -0.5833 -0.1743
27518SOL    HW184228   9.570   3.114   6.768  0.0482  1.0413 -2.3161
27518SOL    HW284229   9.681   3.094   6.667  2.0794 -0.9479  0.1541
27519SOL     OW84230   4.306   6.786   0.449  0.4825 -0.0521  0.5210
27519SOL    HW184231   4.337   6.711   0.398 -0.1182  0.5785 -0.8174
27519SOL    HW284232   4.379   6.807   0.507  0.8597 -1.3315  0.5509
27520SOL     OW84233   6.291   0.850   8.735 -0.1607 -0.2913 -0.1006
27520SOL    HW184234   6.265   0.823   8.647 -0.8856 -1.0289  0.3237
27520SOL    HW284235   6.384   0.871   8.728 -0.9698  3.5486 -1.9264
27521SOL     OW84236   4.220   2.221   2.151  0.0225  0.0186 -0.4456
27521SOL    HW184237   4.293   2.215   2.213  0.2963 -0.3236 -0.7953
27521SOL    HW284238   4.245   2.291   2.091 -0.0183  0.0232 -0.4571
27522SOL     OW84239   7.362   4.392   1.251 -1.2012  0.3636 -0.4489
27522SOL    HW184240   7.419   4.443   1.192  0.3939  0.2843  0.9258
27522SOL    HW284241   7.420   4.366   1.323 -2.3997 -1.9213 -0.2213
27523SOL     OW84242   5.729   7.850   3.309  0.1501  0.0245  0.6346
27523SOL    HW184243   5.743   7.759   3.283 -0.4188  0.4046 -1.1098
27523SOL    HW284244   5.779   7.901   3.245 -0.4923  0.9736  0.8721
27524SOL     OW84245   0.234   2.580   3.096  0.1717 -0.6473  0.0192
27524SOL    HW184246   0.209   2.589   3.004  0.7022 -2.9462 -0.4146
27524SOL    HW284247   0.151   2.573   3.143 -0.1327  1.3114 -0.1179
27525SOL     OW84248   5.826   7.052   4.824  0.0252 -0.0829  0.6127
27525SOL    HW184249   5.887   7.107   4.774  2.5081 -1.2719  2.1016
27525SOL    HW284250   5.814   6.975   4.770  0.3709 -0.1143  0.5759
27526SOL     OW84251   2.356   7.450   8.934 -0.0530 -0.7110 -0.3161
27526SOL    HW184252   2.264   7.465   8.913  0.1864 -0.1512 -1.0158
27526SOL    HW284253   2.357   7.434   9.028 -0.7859 -0.0634 -0.1923
27527SOL     OW84254   0.137   7.283   9.273  0.1547 -0.4837 -0.0704
27527SOL    HW184255   0.114   7.194   9.244 -0.6971 -0.2300 -0.2072
27527SOL    HW284256   0.096   7.340   9.208  2.0796 -0.0155 -0.9294
27528SOL     OW84257   7.350   0.210   2.206 -0.0076 -0.5573 -0.0475
27528SOL    HW184258   7.381   0.120   2.200  1.1512 -0.1261 -1.2226
27528SOL    HW284259   7.312   0.217   2.293  1.1954 -1.7873  0.6161
27529SOL     OW84260   3.142   3.054   7.982 -0.2674 -0.2528  0.2915
27529SOL    HW184261   3.132   3.127   7.921  1.8715  0.5618  0.8240
27529SOL    HW284262   3.074   3.068   8.047  0.3470  1.5538  0.6149
27530SOL     OW84263   1.569   6.794   2.093  0.3612 -0.3051  0.0797
27530SOL    HW184264   1.575   6.700   2.079 -0.7129 -0.0971 -2.3567
27530SOL    HW284265   1.516   6.803   2.173  1.3747 -1.7217  0.9566
27531SOL     OW84266   0.896   7.330   6.257  0.0979  0.2486 -0.6294
27531SOL    HW184267   0.808   7.304   6.230 -0.3363  0.8457  0.1620
27531SOL    HW284268   0.923   7.395   6.192 -1.5641  2.8556  1.1149
27532SOL     OW84269   1.041   8.137   9.394 -0.1092  0.9675 -0.1503
27532SOL    HW184270   1.122   8.185   9.378 -0.2571  1.0751 -0.5857
27532SOL    HW284271   1.039   8.125   9.489  0.9898 -0.0224 -0.2183
27533SOL     OW84272   7.040   0.250   5.560 -0.0236 -0.1813  0.0844
27533SOL    HW184273   7.116   0.201   5.592 -0.1004 -0.8957 -0.7825
27533SOL    HW284274   7.006   0.294   5.638  1.1148 -0.0570  0.5369
27534SOL     OW84275   5.768   4.329   6.824  0.2296  0.3227 -0.1327
27534SOL    HW184276   5.797   4.414   6.855 -1.6229  0.7012  0.7245
27534SOL    HW284277   5.707   4.349   6.753  0.3655 -0.3168 -0.4360
27535SOL     OW84278   7.980   9.096   2.635  0.2736  0.3586  0.0730
27535SOL    HW184279   8.058   9.130   2.679  0.4095 -0.7144  0.6899
27535SOL    HW284280   7.908   9.149   2.669  0.5611  0.4527  0.5429
27536SOL     OW84281   4.196   0.887   1.029  0.1193  0.0845 -0.2553
27536SOL    HW184282   4.283   0.915   1.057  0.5781 -2.2857  0.9309
27536SOL    HW284283   4.153   0.859   1.110 -0.9082 -0.8836 -1.1025
27537SOL     OW84284   6.848   8.608   4.852  0.1245  0.3806  0.4750
27537SOL    HW184285   6.918   8.542   4.850 -1.3598 -1.2740 -0.3343
27537SOL    HW284286   6.888   8.686   4.813  1.7992 -0.1705  0.9773
27538SOL     OW84287   4.523   9.429   4.546  0.0672  0.3151  0.0153
27538SOL    HW184288   4.488   9.499   4.601  1.0815 -1.6132  3.4112
27538SOL    HW284289   4.593   9.471   4.496 -1.1243  2.2402 -0.1688
27539SOL     OW84290   9.619   1.486   3.321 -0.0205  0.1142  0.2453
27539SOL    HW184291   9.629   1.425   3.394  0.9596  0.1351  0.1313
27539SOL    HW284292   9.631   1.573   3.360  0.2544  0.1411  0.0983
27540SOL     OW84293   8.012   4.069   9.319  0.2057  0.4304  0.4339
27540SOL    HW184294   7.940   4.015   9.351 -0.6639  1.5778  0.5221
27540SOL    HW284295   8.091   4.017   9.333 -0.3719  0.0071  2.3904
27541SOL     OW84296   4.473   3.244   7.794 -0.2235 -0.1213 -0.0413
27541SOL    HW184297   4.564   3.274   7.796 -1.0925  2.8196  1.9312
27541SOL    HW284298   4.422   3.322   7.816 -3.0669 -2.2683  1.6150
27542SOL     OW84299   8.297   8.082   8.211  0.0645  0.5863 -0.2240
27542SOL    HW184300   8.228   8.098   8.147 -0.0714 -0.6731 -0.4169
27542SOL    HW284301   8.312   7.988   8.207  0.6023  0.5999  1.0440
27543SOL     OW84302   4.794   6.639   9.079  0.5379 -0.1676 -0.1108
27543SOL    HW184303   4.797   6.723   9.033 -1.7166  0.3284  0.5168
27543SOL    HW284304   4.732   6.586   9.028  3.2257 -2.2064 -1.5352
27544SOL     OW84305   0.378   8.391   3.946  0.6673 -0.2223 -0.2447
27544SOL    HW184306   0.331   8.472   3.966  0.8870 -0.2983  0.5958
27544SOL    HW284307   0.406   8.358   4.031 -0.0256 -1.5557 -0.5162
27545SOL     OW84308   7.486   5.124   1.552 -0.5561  0.1936 -0.8510
27545SOL    HW184309   7.396   5.138   1.582 -0.6326 -0.5916 -0.6952
27545SOL    HW284310   7.524   5.065   1.617  0.3439  1.1941 -0.4410
27546SOL     OW84311   3.663   4.016   5.368  0.1082  0.3223 -0.2572
27546SOL    HW184312   3.606   3.941   5.386  0.2109  0.0519 -1.0045
27546SOL    HW284313   3.646   4.037   5.276  0.2999  1.0328 -0.1329
27547SOL     OW84314   3.896   6.935   5.798 -0.0384 -0.6489  0.3130
27547SOL    HW184315   3.976   6.959   5.846  1.5514  1.2681 -2.9430
27547SOL    HW284316   3.844   7.015   5.798 -1.2283 -1.4050  0.9997
27548SOL     OW84317   3.114   9.348   4.023  0.2353  0.3667 -0.1501
27548SOL    HW184318   3.123   9.443   4.029  0.4414  0.3210  0.3075
27548SOL    HW284319   3.028   9.329   4.061  0.5580  0.2936  0.5583
27549SOL     OW84320   5.285   1.994   5.544  1.0125 -0.4755  0.0373
27549SOL    HW184321   5.279   1.978   5.638 -0.9588  0.4546  0.1227
27549SOL    HW284322   5.315   1.911   5.507  1.7187 -0.8825  1.4699
27550SOL     OW84323   7.042   9.168   9.463  0.2655  0.5712  0.5633
27550SOL    HW184324   6.992   9.246   9.488  1.5346  0.7197  2.9131
27550SOL    HW284325   7.007   9.098   9.518  1.9329  0.4616  1.5451
27551SOL     OW84326   7.976   4.631   1.595 -0.1331  0.4609  0.4247
27551SOL    HW184327   7.892   4.667   1.623 -0.4888  0.8325 -1.0832
27551SOL    HW284328   7.979   4.544   1.636 -2.0737 -0.3098 -0.9457
27552SOL     OW84329   5.887   1.649   5.929 -0.1143 -0.0413 -0.7273
27552SOL    HW184330   5.949   1.617   5.863  0.8972  2.5641 -1.1451
27552SOL    HW284331   5.823   1.578   5.937  0.6900 -1.1860 -3.2245
27553SOL     OW84332   1.289   1.370   1.888  0.0314 -0.3433 -0.3947
27553SOL    HW184333   1.277   1.300   1.825 -1.7903  0.9197 -1.5499
27553SOL    HW284334   1.256   1.334   1.971 -1.4565 -0.6724 -1.1091
27554SOL     OW84335   7.060   4.535   4.851  0.1088 -0.5224  0.0246
27554SOL    HW184336   7.004   4.561   4.778 -0.0240  1.0960  0.6572
27554SOL    HW284337   7.140   4.502   4.809 -0.3460 -0.5263 -0.8602
27555SOL     OW84338   4.849   5.827   6.002 -0.1675 -0.1184 -0.2480
27555SOL    HW184339   4.843   5.916   5.967 -0.8973 -0.2598 -0.5109
27555SOL    HW284340   4.941   5.803   5.994 -0.2035  0.1145 -1.4310
27556SOL     OW84341   5.022   5.490   7.097 -0.2053  0.3972 -0.1222
27556SOL    HW184342   4.968   5.569   7.104 -0.9071 -0.1874  1.5950
27556SOL    HW284343   5.090   5.501   7.163  1.0303  0.5101 -1.3609
27557SOL     OW84344   0.878   8.871   6.457 -0.4071  0.0148 -0.8932
27557SOL    HW184345   0.973   8.868   6.471 -0.4192  0.0206 -0.8077
27557SOL    HW284346   0.848   8.938   6.518 -0.5136 -0.2537 -0.6469
27558SOL     OW84347   6.838   9.024   3.392 -0.1331  0.0452 -0.2434
27558SOL    HW184348   6.826   9.055   3.482 -1.8902  0.2068 -0.5046
27558SOL    HW284349   6.835   9.104   3.339 -1.2434 -0.2281 -0.6139
27559SOL     OW84350   7.056   5.006   8.558  0.2025  0.1512 -0.0006
27559SOL    HW184351   7.043   5.080   8.499  0.1027  0.9680  1.0192
27559SOL    HW284352   7.131   5.030   8.611 -0.3712 -0.0779  0.9384
27560SOL     OW84353   5.948   4.213   5.106  0.3907 -0.4852  0.3590
27560SOL    HW184354   5.928   4.218   5.200 -2.7802  2.7341 -0.2745
27560SOL    HW284355   6.009   4.285   5.091 -1.6211  1.1296 -0.4415
27561SOL     OW84356   0.498   0.757   7.205 -0.1946 -0.2062  0.1331
27561SOL    HW184357   0.470   0.845   7.230 -0.2240 -0.3755  0.7082
27561SOL    HW284358   0.432   0.727   7.142  0.0379  0.3372 -0.3837
27562SOL     OW84359   0.153   4.113   8.530 -0.4243 -0.0919  0.1354
27562SOL    HW184360   0.108   4.054   8.469 -0.7307 -0.5257  0.7692
27562SOL    HW284361   0.090   4.183   8.546  0.7703  1.7112 -2.4179
27563SOL     OW84362   8.049   7.024   1.280  0.2745 -0.4642  0.6530
27563SOL    HW184363   7.980   7.053   1.221  1.3208  0.3345 -0.2128
27563SOL    HW284364   8.004   6.968   1.344 -1.4501  1.2407  1.0390
27564SOL     OW84365   5.850   6.948   5.822  0.2364 -0.5997  0.5162
27564SOL    HW184366   5.838   7.030   5.774  2.0372 -0.5586  0.0603
27564SOL    HW284367   5.798   6.884   5.773 -1.0015  0.1922  0.7454
27565SOL     OW84368   6.250   4.072   8.952  0.2198 -0.3446  0.2189
27565SOL    HW184369   6.313   4.141   8.928  0.9639  0.0241  2.9228
27565SOL    HW284370   6.299   4.014   9.010 -1.0819 -1.8532 -0.1246
27566SOL     OW84371   2.816   7.970   2.003 -0.3873  0.6498  0.1352
27566SOL    HW184372   2.827   7.980   2.098  1.1725 -0.1465  0.0733
27566SOL    HW284373   2.727   7.936   1.993 -0.8486  1.4541  1.2427
27567SOL     OW84374   0.091   3.316   6.549 -0.3050 -0.2954 -0.2403
27567SOL    HW184375   0.106   3.346   6.459 -1.1852 -0.0969 -0.3335
27567SOL    HW284376   0.061   3.226   6.539 -0.4877 -0.2453 -0.1569
27568SOL     OW84377   2.818   2.116   4.589 -0.5068 -0.2567  0.2550
27568SOL    HW184378   2.807   2.089   4.680 -0.3363 -1.7545 -0.1360
27568SOL    HW284379   2.833   2.034   4.542  1.0948  0.6370 -0.8841
27569SOL     OW84380   6.276   9.393   0.589 -0.5948 -0.3734  0.3479
27569SOL    HW184381   6.218   9.467   0.569  1.9138  1.6211  0.0381
27569SOL    HW284382   6.359   9.433   0.614  1.2341 -3.0900 -0.8689
27570SOL     OW84383   3.761   1.007   6.544 -0.0379 -0.4175 -0.2004
27570SOL    HW184384   3.755   1.024   6.451  0.6926 -1.2216 -0.4129
27570SOL    HW284385   3.793   1.088   6.582 -0.5441 -0.0197 -0.6167
27571SOL     OW84386   7.154   5.147   3.504  0.6157  0.0702  0.0381
27571SOL    HW184387   7.077   5.131   3.558 -0.3639  0.3711 -1.2100
27571SOL    HW284388   7.148   5.240   3.481  1.5738  0.1922  0.2547
27572SOL     OW84389   1.618   1.646   2.245 -0.3847 -0.5652 -0.5883
27572SOL    HW184390   1.600   1.706   2.173  1.3957 -0.3693 -0.9206
27572SOL    HW284391   1.646   1.702   2.317 -1.1571 -0.8376 -0.0598
27573SOL     OW84392   7.320   9.328   6.111  0.0716  0.3033 -0.5145
27573SOL    HW184393   7.256   9.395   6.087  1.5525  2.1114  0.3962
27573SOL    HW284394   7.372   9.367   6.181  0.4850 -2.1116  0.6559
27574SOL     OW84395   2.644   1.217   8.519 -0.2951 -0.3290  0.1576
27574SOL    HW184396   2.695   1.247   8.594  1.4687 -2.3765 -0.1378
27574SOL    HW284397   2.559   1.193   8.555 -0.9912  2.6440  0.7514
27575SOL     OW84398   7.478   9.642   2.235 -0.4037  0.3417  0.0686
27575SOL    HW184399   7.572   9.632   2.218  0.3036  1.0895  3.0698
27575SOL    HW284400   7.441   9.556   2.213  0.9271  0.0233 -1.1537
27576SOL     OW84401   6.674   0.449   0.096  0.0238  0.0539  0.0558
27576SOL    HW184402   6.580   0.452   0.111 -0.0661  0.8815 -0.5585
27576SOL    HW284403   6.709   0.395   0.167 -1.1167 -1.9327 -0.8292
27577SOL     OW84404   8.379   7.024   8.269 -0.4930 -0.4116 -0.4132
27577SOL    HW184405   8.352   6.990   8.354  1.8834  1.0145  0.9987
27577SOL    HW284406   8.364   7.118   8.274 -2.0914 -0.4884 -2.3386
27578SOL     OW84407   6.089   0.983   8.869  0.2854 -0.3118 -0.2210
27578SOL    HW184408   6.093   0.951   8.959 -1.7964 -0.9841 -0.3122
27578SOL    HW284409   6.151   0.928   8.821  2.5433  1.0361  1.0135
27579SOL     OW84410   4.504   5.740   4.625 -0.0384  0.3425  0.2557
27579SOL    HW184411   4.414   5.715   4.604  0.2169  0.0540 -0.5283
27579SOL    HW284412   4.539   5.774   4.542  1.3334 -1.8052 -0.0990
27580SOL     OW84413   5.167   7.067   2.778 -0.1376  0.2418 -0.3615
27580SOL    HW184414   5.153   6.977   2.751  0.1781  0.6671 -2.0811
27580SOL    HW284415   5.170   7.116   2.696 -0.2490  1.8117  0.5313
27581SOL     OW84416   9.194   9.603   8.773 -0.1375 -0.3545  0.3430
27581SOL    HW184417   9.194   9.643   8.686 -0.3888 -2.2921 -0.5948
27581SOL    HW284418   9.278   9.628   8.811  0.4363 -0.3386 -0.8807
27582SOL     OW84419   3.246   0.930   5.280  0.2491  0.6267 -0.4804
27582SOL    HW184420   3.230   1.023   5.262 -5.3380  0.4667  1.6292
27582SOL    HW284421   3.192   0.884   5.216  1.9775 -1.2387 -0.7093
27583SOL     OW84422   3.051   2.279   4.576 -0.4274 -0.6090 -0.4562
27583SOL    HW184423   2.956   2.265   4.574 -1.4965  3.9932  2.8458
27583SOL    HW284424   3.080   2.234   4.655 -0.1742 -0.5669 -0.5247
27584SOL     OW84425   7.583   8.862   0.998 -0.4413  0.2498 -0.2332
27584SOL    HW184426   7.564   8.956   1.006  0.2130  0.4172 -0.5700
27584SOL    HW284427   7.530   8.821   1.066 -1.4481  0.7699 -0.6841
27585SOL     OW84428   7.064   2.610   5.105  0.4796  0.2070  0.0435
27585SOL    HW184429   7.032   2.700   5.114 -1.5251 -0.6233  2.4930
27585SOL    HW284430   6.997   2.566   5.052  0.0607 -0.4391  1.0936
27586SOL     OW84431   4.465   3.165   6.927  0.4181  0.2938  0.2969
27586SOL    HW184432   4.497   3.140   6.840  1.1945  0.5844  0.4911
27586SOL    HW284433   4.544   3.186   6.977 -0.0616  0.8056  0.8645
27587SOL     OW84434   3.050   5.724   2.343 -0.2270 -0.2599 -0.3252
27587SOL    HW184435   3.111   5.714   2.416 -3.3618 -0.5671  2.4954
27587SOL    HW284436   3.106   5.747   2.268  3.0893  1.6307  2.4266
27588SOL     OW84437   0.713   6.772   1.582  0.6075 -0.4417 -0.4650
27588SOL    HW184438   0.662   6.816   1.649  0.5539  2.4312 -2.2319
27588SOL    HW284439   0.793   6.824   1.574  0.8681 -1.0434 -2.1908
27589SOL     OW84440   0.402   4.941   4.428  0.0639 -0.2421 -0.2385
27589SOL    HW184441   0.436   4.974   4.345  0.8912  0.7073  0.4375
27589SOL    HW284442   0.456   4.985   4.494  1.0691 -2.8244  0.7641
27590SOL     OW84443   3.745   2.496   1.095  0.0126 -0.0670 -0.0608
27590SOL    HW184444   3.763   2.549   1.017 -0.3351 -0.3825 -0.3601
27590SOL    HW284445   3.828   2.496   1.143 -0.0495  0.9537  0.0724
27591SOL     OW84446   6.830   4.528   8.109  0.0744  0.1905 -0.6609
27591SOL    HW184447   6.776   4.467   8.159  1.0970  0.4361  0.8206
27591SOL    HW284448   6.917   4.488   8.109  0.6607  1.4147 -0.0449
27592SOL     OW84449   7.347   5.890   7.046 -0.0609  0.1447  0.3157
27592SOL    HW184450   7.411   5.902   6.976  0.3479 -2.0718  0.2319
27592SOL    HW284451   7.398   5.856   7.120 -0.7520  0.8611  1.1537
27593SOL     OW84452   8.572   8.245   1.962  0.4953  0.2014  0.2436
27593SOL    HW184453   8.560   8.183   2.034 -0.8548 -1.0139 -0.9624
27593SOL    HW284454   8.628   8.199   1.899 -2.8533 -1.1404 -2.0155
27594SOL     OW84455   6.829   1.921   7.218  0.1080 -0.2605  0.1004
27594SOL    HW184456   6.920   1.904   7.241  0.0385  1.0834  1.4903
27594SOL    HW284457   6.834   1.974   7.138  0.4458 -2.0307 -1.1087
27595SOL     OW84458   1.795   8.645   5.880  0.2354 -0.5890 -0.6168
27595SOL    HW184459   1.709   8.629   5.921  1.8683 -3.2042  2.2182
27595SOL    HW284460   1.788   8.605   5.794 -1.6412  0.0718 -0.8285
27596SOL     OW84461   9.203   7.571   3.400  0.5573  0.8756  0.2152
27596SOL    HW184462   9.265   7.609   3.462  2.6833 -0.6301 -0.8503
27596SOL    HW284463   9.139   7.525   3.454 -0.2645  3.2219  1.3830
27597SOL     OW84464   7.733   9.365   6.918 -0.1448 -0.0984 -0.6157
27597SOL    HW184465   7.710   9.458   6.927  0.7092  0.3705 -2.6028
27597SOL    HW284466   7.710   9.344   6.827  2.2675 -1.0222 -1.0747
27598SOL     OW84467   3.019   3.301   5.840  0.0437  0.1322 -0.0109
27598SOL    HW184468   2.971   3.234   5.791 -0.7821  0.0380  0.8805
27598SOL    HW284469   3.097   3.255   5.873  0.4232  0.1071 -0.9083
27599SOL     OW84470   7.083   1.429   3.952 -0.2451  0.1003  0.2254
27599SOL    HW184471   7.006   1.375   3.934  1.4384 -1.6013 -2.7222
27599SOL    HW284472   7.155   1.366   3.959  1.4993  1.7658 -1.4598
27600SOL     OW84473   7.349   7.236   8.962  0.1343  0.2533  0.2646
27600SOL    HW184474   7.301   7.154   8.952  1.2113 -0.5053  1.0260
27600SOL    HW284475   7.310   7.278   9.039  0.8698 -0.5209  1.0854
27601SOL     OW84476   9.297   4.092   3.965  0.0827 -0.5903  0.1848
27601SOL    HW184477   9.333   4.124   4.049  0.4341 -0.5599  0.0263
27601SOL    HW284478   9.232   4.158   3.941 -2.2729 -2.1099  1.9286
27602SOL     OW84479   3.104   2.685   7.732 -0.0225  0.5054 -0.4402
27602SOL    HW184480   3.119   2.763   7.679  1.9607  2.0065  2.0410
27602SOL    HW284481   3.177   2.627   7.711  0.3843  0.8126  0.0729
27603SOL     OW84482   6.458   3.441   2.159  0.3462 -0.2135  0.4358
27603SOL    HW184483   6.534   3.409   2.208 -1.3133 -1.6411  2.2103
27603SOL    HW284484   6.398   3.473   2.225  0.3089  3.2633 -1.0746
27604SOL     OW84485   1.671   4.164   9.436 -0.0139 -0.2017  0.1199
27604SOL    HW184486   1.628   4.167   9.351  0.6031  1.1331 -0.1748
27604SOL    HW284487   1.730   4.239   9.435 -0.8650  0.5497  2.1921
27605SOL     OW84488   9.093   6.963   1.112  0.0059 -0.1651 -0.2915
27605SOL    HW184489   9.004   6.928   1.120  0.1792 -0.9141 -1.4707
27605SOL    HW284490   9.088   7.024   1.038  0.6726 -0.9447 -1.0088
27606SOL     OW84491   7.125   5.158   6.709 -0.3199  0.1437  0.1403
27606SOL    HW184492   7.040   5.114   6.701  0.0562 -0.4870 -0.5383
27606SOL    HW284493   7.188   5.094   6.676  0.3714  0.7860  0.1856
27607SOL     OW84494   2.982   1.279   5.111  0.1146  0.0004  0.6710
27607SOL    HW184495   2.957   1.193   5.076 -0.2460  0.7589 -1.0406
27607SOL    HW284496   2.900   1.327   5.119  0.4985  0.8940 -0.4439
27608SOL     OW84497   6.829   6.212   6.956  0.0256 -0.0331 -0.4094
27608SOL    HW184498   6.796   6.259   7.033 -1.1609 -0.0900 -0.8608
27608SOL    HW284499   6.848   6.281   6.893 -1.9990 -0.1177 -1.1805
27609SOL     OW84500   3.505   7.136   1.474  0.1961  0.0201  0.1085
27609SOL    HW184501   3.571   7.082   1.430 -0.5108  1.0241 -2.3018
27609SOL    HW284502   3.538   7.144   1.564  2.3173 -1.1420 -0.4867
27610SOL     OW84503   6.560   9.377   2.106 -0.6104 -0.2255  0.4530
27610SOL    HW184504   6.466   9.364   2.102 -0.7989  1.1658 -0.1160
27610SOL    HW284505   6.580   9.435   2.033  0.8919 -1.5379 -0.2595
27611SOL     OW84506   0.511   4.933   6.643 -0.0603 -0.0006 -0.0557
27611SOL    HW184507   0.540   4.907   6.556  0.0225 -0.3180  0.0666
27611SOL    HW284508   0.423   4.895   6.652  0.3036 -0.7656  0.3596
27612SOL     OW84509   0.709   2.131   0.431 -0.0218 -0.4047 -0.6487
27612SOL    HW184510   0.804   2.125   0.442  0.2190  0.0792 -2.2482
27612SOL    HW284511   0.683   2.200   0.492  0.8464  0.3561 -1.1110
27613SOL     OW84512   0.214   4.385   0.586  0.1918  0.0717 -0.1649
27613SOL    HW184513   0.262   4.441   0.525 -0.3231 -1.7970 -2.4083
27613SOL    HW284514   0.144   4.346   0.533 -2.1238  0.5277  2.3136
27614SOL     OW84515   8.340   2.395   3.316  0.5461  0.5117 -0.0736
27614SOL    HW184516   8.362   2.316   3.267 -1.2505 -1.1716  1.6426
27614SOL    HW284517   8.416   2.410   3.373  0.4175 -0.7710  0.4775
27615SOL     OW84518   7.784   3.998   0.047  0.5447 -0.2644 -0.2204
27615SOL    HW184519   7.811   4.087   0.023 -0.5609  0.3604  0.7838
27615SOL    HW284520   7.779   4.000   0.142  1.2608 -1.6421 -0.1366
27616SOL     OW84521   1.928   7.592   0.075 -0.3631 -0.5861  0.3422
27616SOL    HW184522   1.892   7.626   0.156  0.9941 -0.5640  0.9563
27616SOL    HW284523   2.005   7.647   0.057  1.4903 -2.8040  1.0035
27617SOL     OW84524   1.898   4.979   9.124  0.4028 -0.3550  0.4529
27617SOL    HW184525   1.900   4.992   9.219 -1.1075 -0.5064  0.5253
27617SOL    HW284526   1.833   4.911   9.110  1.5201 -1.2429 -0.6227
27618SOL     OW84527   5.859   4.700   7.232 -0.0905 -0.2061  0.1502
27618SOL    HW184528   5.914   4.655   7.168 -0.1232  1.5559 -1.1960
27618SOL    HW284529   5.783   4.729   7.182 -1.5147 -1.1756  1.6297
27619SOL     OW84530   1.703   5.827   7.453  0.2246  0.2653  0.0435
27619SOL    HW184531   1.771   5.822   7.521  0.0075 -0.6072  0.2117
27619SOL    HW284532   1.742   5.781   7.378 -0.0189  0.1218  0.0052
27620SOL     OW84533   1.559   6.914   8.522 -0.2930 -0.0829 -0.4973
27620SOL    HW184534   1.638   6.875   8.560 -0.7560  0.4708  1.1096
27620SOL    HW284535   1.591   6.965   8.447  0.8175 -0.1988 -0.1183
27621SOL     OW84536   3.056   7.777   2.582 -0.1900 -0.5477  0.0387
27621SOL    HW184537   3.049   7.691   2.542  0.0841  0.5014 -2.4428
27621SOL    HW284538   3.142   7.778   2.623  0.5537 -0.8854 -1.4580
27622SOL     OW84539   6.723   0.616   3.717  0.9331 -0.0042 -0.4057
27622SOL    HW184540   6.692   0.526   3.705  0.9182 -0.2130  1.0013
27622SOL    HW284541   6.643   0.665   3.738  1.3067 -0.3811  2.3771
27623SOL     OW84542   7.876   6.778   4.133 -0.5134  0.0089 -0.4106
27623SOL    HW184543   7.785   6.770   4.106 -0.7852 -2.8701  1.0124
27623SOL    HW284544   7.872   6.779   4.229  0.9377 -0.4195 -0.3256
27624SOL     OW84545   4.610   0.579   3.914 -0.4441 -0.1013 -0.1494
27624SOL    HW184546   4.666   0.586   3.836 -2.4905  1.3000 -1.6159
27624SOL    HW284547   4.656   0.517   3.971  2.1873  0.3914 -1.5369
27625SOL     OW84548   9.157   6.520   8.209  0.0042  0.5628  0.3308
27625SOL    HW184549   9.128   6.537   8.119  0.1896  0.3827  0.2377
27625SOL    HW284550   9.077   6.499   8.256  0.2348 -2.8604 -0.5668
27626SOL     OW84551   0.664   5.649   6.168  0.1690 -0.0493  0.0495
27626SOL    HW184552   0.665   5.555   6.149  1.9102 -0.3028  1.2415
27626SOL    HW284553   0.705   5.657   6.254  0.2556  1.8338 -0.1281
27627SOL     OW84554   3.016   1.735   1.827 -0.0526  0.2333  0.4269
27627SOL    HW184555   2.993   1.828   1.822  0.5979  0.3361 -1.4418
27627SOL    HW284556   3.046   1.723   1.917  1.0315  2.1356  0.3684
27628SOL     OW84557   1.097   3.361   7.701 -0.1156 -0.5201  0.0395
27628SOL    HW184558   1.039   3.397   7.768 -0.4571  0.3420 -0.7010
27628SOL    HW284559   1.154   3.301   7.748  0.3033  0.8077  1.2704
27629SOL     OW84560   6.402   1.674   6.241  0.3061 -0.3164  0.1129
27629SOL    HW184561   6.406   1.622   6.161  1.8140  0.5670 -0.4252
27629SOL    HW284562   6.493   1.696   6.259 -0.2189  1.3440  0.8458
27630SOL     OW84563   2.102   6.238   7.526 -0.6381  0.5390  0.0141
27630SOL    HW184564   2.010   6.238   7.502 -0.4440 -1.1555 -0.8562
27630SOL    HW284565   2.119   6.149   7.556  0.1467  1.4619  2.5818
27631SOL     OW84566   1.407   8.095   7.836 -0.2726 -0.6170 -0.2388
27631SOL    HW184567   1.392   8.019   7.892  0.8195  0.2054  1.2510
27631SOL    HW284568   1.493   8.128   7.863 -0.9432  1.4434 -0.4551
27632SOL     OW84569   3.573   3.055   4.757 -0.4995  0.0950  0.2543
27632SOL    HW184570   3.599   3.029   4.668  1.1478 -0.5403  0.8816
27632SOL    HW284571   3.490   3.102   4.745  1.1674  2.7948 -2.0302
27633SOL     OW84572   7.010   4.855   7.608  0.4309 -0.0479  0.1980
27633SOL    HW184573   7.010   4.904   7.525 -0.3160 -1.1286 -0.4680
27633SOL    HW284574   6.956   4.778   7.590  0.8101 -0.6396  1.5048
27634SOL     OW84575   1.890   0.408   9.644  0.0494 -0.1885  0.0769
27634SOL    HW184576   1.918   0.447   9.727 -1.3966 -0.3090  0.6464
27634SOL    HW284577   1.808   0.453   9.623  1.2698  1.1526 -2.2410
27635SOL     OW84578   6.798   3.503   3.683 -0.9030 -0.0849 -0.2361
27635SOL    HW184579   6.848   3.452   3.620 -2.2506 -0.6661 -0.8854
27635SOL    HW284580   6.719   3.529   3.636 -2.4291 -1.3818  1.4330
27636SOL     OW84581   7.705   0.438   5.523  0.5483 -0.3189  0.4854
27636SOL    HW184582   7.735   0.442   5.614  1.0102 -0.9042  0.3639
27636SOL    HW284583   7.723   0.348   5.496  2.4176  0.3993 -0.8579
27637SOL     OW84584   7.663   3.236   6.109  0.2765  0.1888 -0.5367
27637SOL    HW184585   7.592   3.295   6.134 -0.1719 -0.6045  0.1082
27637SOL    HW284586   7.727   3.245   6.179 -0.8192 -1.7659  0.8150
27638SOL     OW84587   6.152   9.350   0.861 -0.8532 -0.2859 -0.3389
27638SOL    HW184588   6.169   9.267   0.906 -2.3178 -0.9995 -1.0125
27638SOL    HW284589   6.175   9.333   0.770  0.1363  0.5039 -0.2559
27639SOL     OW84590   7.648   7.580   0.434 -0.0263 -0.1139  0.0018
27639SOL    HW184591   7.663   7.655   0.493 -1.2736 -0.0356  0.2564
27639SOL    HW284592   7.729   7.531   0.437  1.5787  2.2130 -1.6430
27640SOL     OW84593   9.605   7.095   5.737 -0.3919  0.3238 -0.0582
27640SOL    HW184594   9.608   7.044   5.656  0.2432 -1.5284  1.0687
27640SOL    HW284595   9.516   7.081   5.771 -1.3430  2.6659 -1.3031
27641SOL     OW84596   7.653   7.761   3.534 -0.2659 -0.6991  0.7957
27641SOL    HW184597   7.736   7.787   3.495 -1.4977  2.1871 -0.1749
27641SOL    HW284598   7.638   7.825   3.603 -1.8134 -0.9649  0.7440
27642SOL     OW84599   3.018   8.612   6.362 -0.0090  0.1024 -0.1850
27642SOL    HW184600   2.943   8.665   6.390 -0.2617 -0.2388 -0.2094
27642SOL    HW284601   2.980   8.539   6.315  0.4192  0.7222 -1.5544
27643SOL     OW84602   8.696   2.123   4.065  0.1935 -0.3098 -0.8291
27643SOL    HW184603   8.632   2.150   4.000  2.0131  2.2257 -1.6798
27643SOL    HW284604   8.703   2.197   4.125  0.8438 -1.3702  0.4724
27644SOL     OW84605   2.912   5.743   4.860 -0.6439  0.0294 -0.0260
27644SOL    HW184606   2.950   5.831   4.855  0.2488 -0.2558  1.4265
27644SOL    HW284607   2.841   5.751   4.923  0.0096 -0.4766  0.7907
27645SOL     OW84608   6.108   0.126   1.976 -0.3138  0.1509 -0.2619
27645SOL    HW184609   6.169   0.080   1.918 -0.0030  0.8821 -0.5290
27645SOL    HW284610   6.134   0.100   2.064  0.9962  1.1330 -0.3115
27646SOL     OW84611   4.071   8.180   0.740 -0.7698  0.0028 -0.3279
27646SOL    HW184612   4.162   8.154   0.754 -0.2907  1.5917 -0.3939
27646SOL    HW284613   4.037   8.115   0.678  0.4577 -0.3329 -0.6757
27647SOL     OW84614   3.896   8.038   4.489  0.6215 -0.4933  0.5319
27647SOL    HW184615   3.803   8.012   4.491 -0.1221  1.8304 -0.4302
27647SOL    HW284616   3.898   8.123   4.533  1.2691  2.0659 -3.8721
27648SOL     OW84617   1.793   1.942   0.081 -0.1518  0.7456 -0.3971
27648SOL    HW184618   1.714   1.996   0.085 -0.3680  0.4707 -0.9068
27648SOL    HW284619   1.820   1.932   0.173  0.2364  2.2196 -0.3351
27649SOL     OW84620   4.419   8.061   0.481 -0.6069  0.2723  0.1892
27649SOL    HW184621   4.410   7.995   0.412  2.6145  1.6389 -1.7338
27649SOL    HW284622   4.499   8.036   0.527 -0.3159  1.8457  0.5716
27650SOL     OW84623   3.770   4.333   4.554  0.0294  1.2936 -0.0874
27650SOL    HW184624   3.848   4.379   4.524 -0.0929  1.3132 -0.3818
27650SOL    HW284625   3.708   4.403   4.576 -0.3212  1.2803 -0.9711
27651SOL     OW84626   7.158   6.673   8.381  0.1634 -0.1781  0.9628
27651SOL    HW184627   7.190   6.660   8.291 -1.5019 -1.2914  0.4949
27651SOL    HW284628   7.066   6.695   8.370 -0.3356 -1.4419  2.4632
27652SOL     OW84629   2.729   8.829   5.608 -0.0280 -0.2113 -0.3445
27652SOL    HW184630   2.732   8.803   5.700 -0.2548 -1.1367 -0.5898
27652SOL    HW284631   2.729   8.925   5.610  1.8806 -0.1799  0.5478
27653SOL     OW84632   2.684   5.476   3.038  0.1832 -0.1513 -0.1625
27653SOL    HW184633   2.766   5.442   3.075  0.8464 -0.8461 -2.1512
27653SOL    HW284634   2.702   5.486   2.945 -0.6955  3.5867 -0.1047
27654SOL     OW84635   9.604   2.519   1.965  0.1304 -0.1092 -0.1374
27654SOL    HW184636   9.566   2.596   2.007  3.1131  2.5924 -1.9509
27654SOL    HW284637   9.668   2.486   2.028  0.6976  0.5748 -0.3339
27655SOL     OW84638   5.978   3.980   7.040  0.1911 -0.5209 -0.1742
27655SOL    HW184639   5.943   3.960   7.127  1.4201  0.0777  0.4924
27655SOL    HW284640   6.039   4.053   7.055  0.1609 -0.1744 -1.5985
27656SOL     OW84641   1.896   5.913   0.586  0.2953  0.2569  0.2502
27656SOL    HW184642   1.869   5.844   0.646  2.0357  0.5969  1.5094
27656SOL    HW284643   1.872   5.880   0.499  1.1520 -1.9988  0.7976
27657SOL     OW84644   2.992   2.063   2.415  0.1487 -0.1365 -0.2466
27657SOL    HW184645   2.937   2.039   2.341  0.5245  1.7570 -1.2094
27657SOL    HW284646   2.931   2.091   2.483 -0.1501  0.7293 -0.8499
27658SOL     OW84647   1.907   2.725   7.385 -0.0149 -0.1769 -0.0662
27658SOL    HW184648   2.002   2.728   7.397  0.1059  0.3021 -1.0261
27658SOL    HW284649   1.893   2.658   7.319 -0.4499 -1.0434  0.8869
27659SOL     OW84650   3.248   2.325   2.795  0.3615  0.1226 -0.2761
27659SOL    HW184651   3.255   2.340   2.889 -1.5808  0.7224 -0.1765
27659SOL    HW284652   3.161   2.287   2.783  0.5136  0.1852 -1.8474
27660SOL     OW84653   6.615   5.259   1.092 -0.2414 -0.5015  0.6307
27660SOL    HW184654   6.540   5.200   1.085  0.4987 -1.5163  1.0139
27660SOL    HW284655   6.589   5.324   1.157 -1.0570 -0.4269  0.2332
27661SOL     OW84656   8.455   5.240   6.283 -0.2439 -0.5351  0.8073
27661SOL    HW184657   8.480   5.331   6.296  0.0387  0.0095 -2.5875
27661SOL    HW284658   8.360   5.242   6.276 -0.1248 -0.1482 -1.0753
27662SOL     OW84659   4.245   5.480   7.717  0.1710  0.0067  0.2017
27662SOL    HW184660   4.303   5.495   7.791  0.1068  0.1860  0.2146
27662SOL    HW284661   4.301   5.438   7.651  0.1010 -0.6575  0.5543
27663SOL     OW84662   8.513   8.911   1.395 -0.3890  0.4460 -0.0851
27663SOL    HW184663   8.479   8.826   1.367  1.3129 -0.4696  0.4924
27663SOL    HW284664   8.499   8.967   1.319  0.5247 -0.9581 -1.3520
27664SOL     OW84665   7.542   8.353   5.236  1.0505  0.1727  0.0512
27664SOL    HW184666   7.493   8.300   5.173  0.6840 -1.0103  1.2606
27664SOL    HW284667   7.633   8.322   5.227  1.2085  0.8253 -0.6798
27665SOL     OW84668   3.655   9.176   8.039  0.0290 -1.0333  0.2605
27665SOL    HW184669   3.592   9.130   8.094  1.2666 -0.3019  2.4198
27665SOL    HW284670   3.738   9.132   8.055  0.2753 -1.4213 -1.8489
27666SOL     OW84671   3.511   0.165   7.764  0.1315 -0.0413  0.3135
27666SOL    HW184672   3.562   0.148   7.843 -0.6254 -0.7963  0.6501
27666SOL    HW284673   3.513   0.083   7.715 -0.9796 -0.1783  0.4664
27667SOL     OW84674   7.773   6.065   3.992 -0.2898 -0.7015  0.1154
27667SOL    HW184675   7.804   6.154   4.007  1.0887 -1.0729 -0.4102
27667SOL    HW284676   7.732   6.068   3.906  1.2711 -0.9271 -0.6648
27668SOL     OW84677   3.743   4.053   9.132 -0.5567  0.2157  0.8126
27668SOL    HW184678   3.746   4.147   9.114  0.1110  0.1753  0.7133
27668SOL    HW284679   3.781   4.011   9.055 -2.7333 -0.2842 -0.0839
27669SOL     OW84680   7.859   1.548   2.219  0.0095 -0.2000  0.1291
27669SOL    HW184681   7.802   1.540   2.296  1.1849  1.4409  1.2544
27669SOL    HW284682   7.849   1.465   2.172  0.3148 -1.8588  2.7936
27670SOL     OW84683   6.934   8.998   5.640  0.6440 -0.1785 -0.0292
27670SOL    HW184684   6.998   8.930   5.618  0.5051 -1.2485  2.4930
27670SOL    HW284685   6.849   8.956   5.624  0.5567 -0.6912  1.5931
27671SOL     OW84686   5.259   0.623   7.908 -0.6983  0.4116  0.5310
27671SOL    HW184687   5.232   0.537   7.876  0.8693  0.0109  0.1777
27671SOL    HW284688   5.190   0.683   7.880 -0.9145 -0.4403 -0.8359
27672SOL     OW84689   7.333   4.689   0.325  0.1574  0.1685  0.2427
27672SOL    HW184690   7.424   4.661   0.332  0.5147  1.2161 -0.0446
27672SOL    HW284691   7.308   4.668   0.235  0.0432 -0.3085  0.3828
27673SOL     OW84692   7.090   6.575   4.071 -0.4003 -0.0363  0.2500
27673SOL    HW184693   7.130   6.491   4.096 -0.6359 -0.1218  0.3467
27673SOL    HW284694   6.996   6.556   4.066 -0.4432  0.1967  0.1650
27674SOL     OW84695   9.346   5.191   2.104 -0.1432 -1.0756 -0.2801
27674SOL    HW184696   9.306   5.176   2.190 -0.1508 -2.0437 -0.4374
27674SOL    HW284697   9.430   5.231   2.124  0.9229 -3.4416  0.3678
27675SOL     OW84698   8.856   1.378   0.959  0.6069  0.2975  0.5588
27675SOL    HW184699   8.929   1.437   0.977  0.2139  1.1415 -0.5259
27675SOL    HW284700   8.888   1.319   0.891 -0.3135  1.9640 -1.4244
27676SOL     OW84701   2.296   1.504   1.670 -0.0882 -0.1539  0.1642
27676SOL    HW184702   2.244   1.454   1.733 -0.7990  0.3477 -0.0097
27676SOL    HW284703   2.329   1.439   1.609 -2.5220 -0.2577 -1.1493
27677SOL     OW84704   6.343   0.638   1.687 -0.4730 -0.3333  0.2154
27677SOL    HW184705   6.360   0.563   1.630 -1.3461  0.8618 -1.7023
27677SOL    HW284706   6.319   0.709   1.627  1.3486  1.8080  1.8510
27678SOL     OW84707   2.589   6.365   8.086  0.3902 -0.3516 -0.4934
27678SOL    HW184708   2.569   6.373   7.993 -2.8988  0.3730  0.1380
27678SOL    HW284709   2.572   6.273   8.106 -1.6889  0.0520 -0.1611
27679SOL     OW84710   2.703   6.987   1.587 -0.9370 -0.0106 -0.1681
27679SOL    HW184711   2.674   7.006   1.498  0.9536  3.1753 -0.2247
27679SOL    HW284712   2.623   6.992   1.639 -1.9094 -0.8966 -1.4940
27680SOL     OW84713   2.194   6.256   1.364 -0.3851  0.2402 -0.7544
27680SOL    HW184714   2.167   6.164   1.355 -0.8168  0.3891 -1.0025
27680SOL    HW284715   2.170   6.279   1.454  0.6192 -0.1723 -0.3579
27681SOL     OW84716   3.435   3.969   6.842  0.4171 -0.5670  0.5051
27681SOL    HW184717   3.519   3.960   6.797 -0.5368 -2.1129 -1.0906
27681SOL    HW284718   3.380   4.017   6.780 -0.4296 -1.2747  0.6943
27682SOL     OW84719   1.538   1.600   2.648  0.1869 -0.1222 -0.2905
27682SOL    HW184720   1.490   1.531   2.694  0.7370  0.1169  0.6743
27682SOL    HW284721   1.538   1.572   2.557 -3.0648  0.5958 -0.6207
27683SOL     OW84722   7.060   7.378   4.056  0.1886  0.2935  0.2585
27683SOL    HW184723   7.094   7.416   4.136 -0.1713  0.9568  0.1039
27683SOL    HW284724   6.996   7.441   4.024  1.0277  0.5245 -1.0733
27684SOL     OW84725   2.871   5.343   3.865  0.0278  0.4815 -0.3071
27684SOL    HW184726   2.832   5.379   3.785  0.6007 -1.6899 -1.6588
27684SOL    HW284727   2.796   5.320   3.920 -0.3829  1.6763 -0.3386
27685SOL     OW84728   6.192   7.650   3.744 -0.0846  0.3304  0.1094
27685SOL    HW184729   6.105   7.616   3.767  0.6424 -1.3468  0.5436
27685SOL    HW284730   6.226   7.586   3.682  1.1103  0.5887  0.4875
27686SOL     OW84731   1.722   1.048   5.002 -0.6195 -0.1696  0.0017
27686SOL    HW184732   1.727   1.142   5.019 -2.0037 -0.3776  2.0162
27686SOL    HW284733   1.636   1.035   4.963  0.3957 -0.4117 -2.3214
27687SOL     OW84734   4.283   3.858   6.529  0.2232 -0.4594  0.3323
27687SOL    HW184735   4.250   3.856   6.440  1.0856  0.3909 -0.0255
27687SOL    HW284736   4.205   3.865   6.584 -0.2667 -0.1590 -0.3920
27688SOL     OW84737   3.739   5.840   8.424 -0.3320 -0.2352  0.2229
27688SOL    HW184738   3.649   5.815   8.403 -0.5121  0.5766 -0.0169
27688SOL    HW284739   3.780   5.856   8.339  0.0641 -0.6724  0.3275
27689SOL     OW84740   4.091   5.650   6.918  0.2567 -0.8352  0.3663
27689SOL    HW184741   4.042   5.719   6.873 -0.1926 -2.2893 -1.5250
27689SOL    HW284742   4.052   5.645   7.005 -0.3262  0.6332  0.2149
27690SOL     OW84743   2.455   7.029   1.729  0.2170  0.7289  0.1121
27690SOL    HW184744   2.454   7.122   1.747 -0.3989  0.6859  0.3337
27690SOL    HW284745   2.450   6.987   1.815 -0.0240  0.5017 -0.0082
27691SOL     OW84746   6.578   6.920   5.532  0.4041 -0.7874  0.0234
27691SOL    HW184747   6.501   6.941   5.479  0.0113 -0.9248  0.5290
27691SOL    HW284748   6.651   6.961   5.485 -0.1346  0.4035  0.1751
27692SOL     OW84749   5.286   1.611   1.084  0.2099  0.3365  0.0957
27692SOL    HW184750   5.255   1.645   1.000 -0.2713 -0.6517 -0.1562
27692SOL    HW284751   5.211   1.562   1.118  0.0439  1.5658  1.6030
27693SOL     OW84752   8.887   7.807   0.189 -0.2579  0.0436 -0.3014
27693SOL    HW184753   8.846   7.861   0.121  0.0505 -0.2840 -0.7572
27693SOL    HW284754   8.963   7.857   0.218 -1.1533  0.8086  0.7888
27694SOL     OW84755   0.162   0.949   4.436 -0.5252 -0.4876  0.4058
27694SOL    HW184756   0.167   0.967   4.530  1.2901  2.7400 -0.1650
27694SOL    HW284757   0.245   0.906   4.415 -0.2751  0.1494  0.0646
27695SOL     OW84758   6.508   4.376   2.016  0.1532  0.7029  0.2967
27695SOL    HW184759   6.486   4.467   2.036  3.1034  1.2585  1.6597
27695SOL    HW284760   6.521   4.335   2.101 -0.2819 -0.7598 -0.3204
27696SOL     OW84761   6.500   3.814   6.538 -0.4216  0.0889  0.0501
27696SOL    HW184762   6.565   3.842   6.474 -0.8871 -0.0282 -0.4810
27696SOL    HW284763   6.551   3.787   6.614  0.0446  2.9128  0.8440
27697SOL     OW84764   3.235   3.137   5.925 -0.2919 -0.2928 -0.2162
27697SOL    HW184765   3.237   3.108   5.833 -0.6588 -1.1858  0.0523
27697SOL    HW284766   3.204   3.061   5.974  1.3353 -0.3208  0.8427
27698SOL     OW84767   4.943   1.223   4.692  0.7419  0.9203  0.2417
27698SOL    HW184768   5.014   1.212   4.755  0.5577  2.0758  0.6710
27698SOL    HW284769   4.986   1.222   4.607  0.8417 -2.1257  0.2213
27699SOL     OW84770   8.556   8.460   6.998  0.0992  0.2633  0.0561
27699SOL    HW184771   8.484   8.522   6.990 -0.1330 -0.0133 -0.0165
27699SOL    HW284772   8.633   8.515   7.014 -0.1740  0.5415  0.4381
27700SOL     OW84773   7.176   4.726   1.917  0.0120  0.2083 -0.7240
27700SOL    HW184774   7.166   4.738   2.011  0.3008 -0.1346 -0.6479
27700SOL    HW284775   7.194   4.813   1.883  1.3468  0.1284 -0.2755
27701SOL     OW84776   1.960   5.065   6.843  0.4668  0.1861 -0.0282
27701SOL    HW184777   1.966   5.109   6.927  1.1314 -0.6969  0.4116
27701SOL    HW284778   2.051   5.049   6.818  0.2648 -1.6334  0.2359
27702SOL     OW84779   9.013   4.875   7.103  0.2395  0.2148  0.0216
27702SOL    HW184780   9.100   4.912   7.089  0.0730  1.4315  1.8405
27702SOL    HW284781   8.953   4.946   7.078 -0.2617 -0.7482 -1.5875
27703SOL     OW84782   9.288   8.001   2.457 -0.2698  0.2632  0.1980
27703SOL    HW184783   9.313   8.078   2.509 -0.6304 -0.1433  0.9817
27703SOL    HW284784   9.220   8.034   2.398 -0.5437  0.5102  0.6447
27704SOL     OW84785   8.743   9.468   9.612 -0.4165 -0.2317  0.0348
27704SOL    HW184786   8.719   9.378   9.588 -1.0039 -0.2219  0.5581
27704SOL    HW284787   8.839   9.469   9.608 -0.4334 -0.6490 -0.7791
27705SOL     OW84788   8.411   2.468   1.945  0.4551  0.0699  0.1878
27705SOL    HW184789   8.427   2.497   1.855 -0.0694  1.4492  0.5099
27705SOL    HW284790   8.492   2.489   1.992  0.3458  0.3128  0.2651
27706SOL     OW84791   5.983   9.595   3.860 -0.0855 -0.1805  0.0378
27706SOL    HW184792   5.954   9.504   3.865 -1.0938  0.1319  0.2770
27706SOL    HW284793   6.002   9.608   3.767  0.3735 -0.7140  0.0486
27707SOL     OW84794   8.692   7.683   8.377 -0.3249  0.1493 -0.2945
27707SOL    HW184795   8.598   7.665   8.378 -0.1581 -0.7930 -0.3517
27707SOL    HW284796   8.709   7.716   8.289 -0.5246 -0.1252 -0.4372
27708SOL     OW84797   9.084   3.472   7.453 -0.0896 -0.3324 -0.3978
27708SOL    HW184798   9.158   3.528   7.478 -1.1222  0.9831 -0.1858
27708SOL    HW284799   9.068   3.417   7.529  0.1923 -0.0989 -0.1687
27709SOL     OW84800   1.797   6.460   6.260 -0.1857  0.3808 -0.4959
27709SOL    HW184801   1.849   6.504   6.193  2.1927  0.0063  0.9915
27709SOL    HW284802   1.770   6.378   6.219  1.1770  0.1772 -1.0321
27710SOL     OW84803   5.905   7.296   0.432  0.2218 -0.0919 -0.0613
27710SOL    HW184804   5.839   7.228   0.441 -1.6716  1.6085 -0.3924
27710SOL    HW284805   5.930   7.293   0.339  0.3211 -0.4639 -0.0256
27711SOL     OW84806   7.112   7.810   9.506 -0.0383  0.1105  0.3705
27711SOL    HW184807   7.186   7.856   9.467  0.3143  1.0046  2.0092
27711SOL    HW284808   7.092   7.740   9.444 -1.7099  3.3844 -3.1152
27712SOL     OW84809   6.753   7.326   3.340 -0.2310  0.0691 -0.1735
27712SOL    HW184810   6.760   7.351   3.247 -0.6332 -1.9719 -0.7954
27712SOL    HW284811   6.781   7.235   3.342 -1.9907 -0.4901  1.4071
27713SOL     OW84812   4.266   4.688   8.520  0.1824 -0.3559 -0.1929
27713SOL    HW184813   4.326   4.763   8.525  0.3063 -0.4568 -0.1548
27713SOL    HW284814   4.323   4.612   8.516  0.0660 -0.5502  1.3190
27714SOL     OW84815   4.258   6.669   2.100 -0.6688 -0.0045 -0.0183
27714SOL    HW184816   4.200   6.614   2.047 -1.2993  0.6914 -0.0677
27714SOL    HW284817   4.248   6.757   2.062  0.5797  0.0903 -0.1636
27715SOL     OW84818   7.766   3.473   9.494 -0.1181  0.2160 -0.5633
27715SOL    HW184819   7.744   3.477   9.401 -2.9478  1.5498  0.0273
27715SOL    HW284820   7.684   3.495   9.538  1.1956 -0.1287  2.2587
27716SOL     OW84821   1.859   5.219   4.076 -0.2666 -0.3284  0.3004
27716SOL    HW184822   1.908   5.243   4.155  0.5147 -0.2561 -0.2080
27716SOL    HW284823   1.898   5.137   4.047  0.5136  0.4547 -0.9151
27717SOL     OW84824   1.591   6.048   6.506 -0.2994  0.1058  0.3856
27717SOL    HW184825   1.568   6.069   6.596  0.0157  1.7865  0.1276
27717SOL    HW284826   1.510   6.058   6.457 -0.8330 -2.3541  0.6622
27718SOL     OW84827   5.964   2.136   5.595  0.6756  0.2504  0.4870
27718SOL    HW184828   5.917   2.214   5.568 -1.4978 -1.1795 -0.0867
27718SOL    HW284829   5.911   2.099   5.666  1.4297 -0.9390  0.4670
27719SOL     OW84830   6.633   6.602   8.066  0.1169 -0.2259 -0.5133
27719SOL    HW184831   6.673   6.542   8.129  0.4546  0.5233 -0.0142
27719SOL    HW284832   6.567   6.649   8.117  0.5603  0.5592 -0.6511
27720SOL     OW84833   5.417   8.241   2.327 -0.1886  0.4937  0.0788
27720SOL    HW184834   5.420   8.173   2.260 -0.9264  1.5851 -1.1152
27720SOL    HW284835   5.352   8.209   2.390 -0.5148  0.0824 -0.4556
27721SOL     OW84836   4.148   3.301   0.068 -0.0693  0.3239  0.3266
27721SOL    HW184837   4.219   3.265   0.122 -0.9685 -0.0515  1.2840
27721SOL    HW284838   4.189   3.317  -0.016  1.1722  0.1396  0.8673
27722SOL     OW84839   3.205   5.517   1.565  0.4078  0.1779 -0.0155
27722SOL    HW184840   3.154   5.540   1.487  0.2589  1.8533  0.5253
27722SOL    HW284841   3.154   5.447   1.607 -0.5174  0.5849 -0.4192
27723SOL     OW84842   3.691   3.206   1.542  0.8010 -0.0319  0.2550
27723SOL    HW184843   3.675   3.156   1.462 -0.5974 -0.4884  0.8023
27723SOL    HW284844   3.724   3.142   1.604  0.7799  0.0964  0.3987
27724SOL     OW84845   0.310   7.903   0.241 -0.0025 -0.2080  0.3260
27724SOL    HW184846   0.275   7.941   0.321  0.8167  0.8600  0.1914
27724SOL    HW284847   0.279   7.961   0.171  1.2928  0.2827  0.1260
27725SOL     OW84848   4.696   3.447   5.427 -0.3702 -0.0343 -0.7969
27725SOL    HW184849   4.705   3.442   5.523 -1.1472 -0.1511 -0.7274
27725SOL    HW284850   4.776   3.406   5.394 -1.3387 -2.5956 -0.2096
27726SOL     OW84851   2.106   3.619   9.326 -0.6075  0.3682  0.5759
27726SOL    HW184852   2.121   3.665   9.243  1.5405 -0.2444  0.5446
27726SOL    HW284853   2.163   3.664   9.388  2.0930 -2.4228  0.4071
27727SOL     OW84854   7.813   2.604   1.678 -0.2097  0.1479  0.3963
27727SOL    HW184855   7.815   2.513   1.651 -0.6571  0.2798 -0.1099
27727SOL    HW284856   7.723   2.619   1.706  0.0920  0.1859  1.3769
27728SOL     OW84857   5.708   5.533   8.990  0.2940  0.0721 -0.0631
27728SOL    HW184858   5.616   5.546   8.966  0.6788 -0.1729 -1.7974
27728SOL    HW284859   5.732   5.449   8.951  0.7258 -0.9135  2.1353
27729SOL     OW84860   6.566   7.988   7.482  0.3418 -0.8597 -0.2345
27729SOL    HW184861   6.601   7.903   7.455 -1.2937 -1.3009 -1.0912
27729SOL    HW284862   6.521   8.021   7.405  0.0199  0.2928  0.4250
27730SOL     OW84863   1.356   5.302   8.971 -0.9478  0.3665  0.5129
27730SOL    HW184864   1.290   5.367   8.993  0.4834  1.5927  1.2783
27730SOL    HW284865   1.410   5.294   9.049 -0.5196 -1.0642  0.1077
27731SOL     OW84866   1.732   6.311   5.740  0.2526 -0.0718 -0.1583
27731SOL    HW184867   1.788   6.350   5.672 -1.3366  0.0351 -1.4783
27731SOL    HW284868   1.763   6.221   5.747  0.8062  0.0726 -0.6158
27732SOL     OW84869   7.868   8.353   8.824  0.5099 -0.1094 -0.0205
27732SOL    HW184870   7.906   8.293   8.760  1.1009  1.3643 -1.0913
27732SOL    HW284871   7.774   8.352   8.805  0.4400 -1.0173  0.2854
27733SOL     OW84872   5.294   6.527   8.704  0.5677  0.6844  0.6091
27733SOL    HW184873   5.311   6.546   8.797  1.9856 -0.6665  0.6648
27733SOL    HW284874   5.357   6.580   8.657  0.8864  0.2155  0.5032
27734SOL     OW84875   7.546   6.013   2.702 -0.2370  0.3889  0.3287
27734SOL    HW184876   7.578   5.925   2.723 -0.0399  0.2490 -0.5254
27734SOL    HW284877   7.564   6.064   2.781  1.2658  0.0968  0.2078
27735SOL     OW84878   7.109   8.913   7.662 -0.0445  0.0341  1.2154
27735SOL    HW184879   7.081   8.830   7.625 -0.8289  0.6776  0.3108
27735SOL    HW284880   7.183   8.891   7.718  1.6477 -0.9002 -1.2606
27736SOL     OW84881   8.705   5.436   4.427  0.4987  0.0184  0.0573
27736SOL    HW184882   8.689   5.342   4.417 -1.4045  0.4200 -1.1134
27736SOL    HW284883   8.772   5.455   4.361  1.4567 -0.6212  0.8164
27737SOL     OW84884   3.242   1.074   9.121 -0.0538 -0.2225 -0.0560
27737SOL    HW184885   3.288   1.157   9.135 -0.2033 -0.2446  0.6229
27737SOL    HW284886   3.306   1.017   9.079  0.6182 -0.3231  1.0769
27738SOL     OW84887   8.420   0.491   4.316  0.2715  0.6121 -0.6594
27738SOL    HW184888   8.353   0.431   4.282  2.1979 -2.3195  0.2944
27738SOL    HW284889   8.407   0.490   4.411  3.2957 -2.5117 -0.0656
27739SOL     OW84890   4.766   2.004   9.213  0.2666 -0.1145 -0.2910
27739SOL    HW184891   4.768   2.018   9.118 -0.4938 -2.8788 -0.8191
27739SOL    HW284892   4.681   2.037   9.241  1.0387  2.0069 -0.2471
27740SOL     OW84893   2.019   8.355   1.554  0.9055  0.3875  0.0490
27740SOL    HW184894   2.057   8.272   1.582 -0.2713 -0.1895  0.0103
27740SOL    HW284895   2.023   8.353   1.458 -0.0040 -0.0754  0.0104
27741SOL     OW84896   8.123   7.840   1.700 -0.6550 -0.1427 -0.3290
27741SOL    HW184897   8.134   7.790   1.618  2.6092 -1.2196  0.6246
27741SOL    HW284898   8.198   7.816   1.753 -2.9659  0.0071  3.3560
27742SOL     OW84899   0.372   3.507   4.536 -0.0058  0.7252 -0.3241
27742SOL    HW184900   0.397   3.567   4.466  2.6921  0.2728  0.1326
27742SOL    HW284901   0.351   3.425   4.492 -2.5497  1.5816 -0.8533
27743SOL     OW84902   3.591   8.625   0.555  0.0924  0.0032  0.0106
27743SOL    HW184903   3.622   8.684   0.486  1.1103  0.0499  0.4853
27743SOL    HW284904   3.597   8.538   0.515  1.7394 -0.0854  0.3642
27744SOL     OW84905   7.716   5.525   9.148  0.4114  0.1598  0.5889
27744SOL    HW184906   7.714   5.431   9.128  2.8533  0.5469 -2.0637
27744SOL    HW284907   7.627   5.555   9.129 -0.2549 -1.4790  0.9001
27745SOL     OW84908   5.400   2.523   4.449 -0.0187  0.1610 -0.3551
27745SOL    HW184909   5.450   2.593   4.407 -0.4943  0.7078 -0.0262
27745SOL    HW284910   5.344   2.489   4.380 -0.4153  0.6981 -0.3081
27746SOL     OW84911   8.788   6.192   9.629  0.3367 -0.3144 -0.3590
27746SOL    HW184912   8.698   6.224   9.625  1.1234  2.0112 -1.4071
27746SOL    HW284913   8.803   6.174   9.722 -0.6694  1.0485  0.1099
27747SOL     OW84914   5.630   9.393   2.862 -0.2020  0.1589 -0.2190
27747SOL    HW184915   5.573   9.451   2.812  0.9773  0.0648 -1.7525
27747SOL    HW284916   5.645   9.318   2.803 -0.8965 -1.2622  1.3215
27748SOL     OW84917   3.343   3.608   4.433 -0.0798 -0.4475  0.8347
27748SOL    HW184918   3.260   3.655   4.420 -0.6970 -0.9037  2.7585
27748SOL    HW284919   3.368   3.629   4.523  1.9689 -0.2483  0.2480
27749SOL     OW84920   2.231   8.381   8.258 -0.0704 -0.0156  0.5262
27749SOL    HW184921   2.312   8.390   8.309 -0.3514  1.9018  0.7313
27749SOL    HW284922   2.170   8.441   8.301 -1.6633 -1.4847  0.4334
27750SOL     OW84923   2.591   8.451   8.882  0.2401  0.4098 -0.2193
27750SOL    HW184924   2.559   8.414   8.799 -1.8405  1.6978 -0.0620
27750SOL    HW284925   2.616   8.541   8.861 -2.7190  1.6283  0.9171
27751SOL     OW84926   6.237   0.092   0.068 -0.3586  0.4368  0.2894
27751SOL    HW184927   6.241  -0.002   0.048 -0.5141  0.7366 -1.2279
27751SOL    HW284928   6.145   0.115   0.053 -0.4759  0.6985  1.3603
27752SOL     OW84929   5.945   3.073   6.847  0.2838  0.2932 -0.0828
27752SOL    HW184930   5.987   2.992   6.819 -1.3235 -0.6011 -0.0031
27752SOL    HW284931   5.914   3.055   6.935 -0.4921  0.8410 -0.2364
27753SOL     OW84932   7.845   8.476   5.066 -0.6968 -0.0993  0.1713
27753SOL    HW184933   7.855   8.391   5.108 -0.8536 -0.2685 -0.1322
27753SOL    HW284934   7.779   8.462   4.998 -0.1574  0.0733 -0.3969
27754SOL     OW84935   6.829   7.124   1.813  0.0688 -0.0734  0.3625
27754SOL    HW184936   6.908   7.110   1.865  1.0410 -0.9490 -1.2593
27754SOL    HW284937   6.793   7.036   1.802 -0.7862  0.2469  0.5397
27755SOL     OW84938   2.537   0.623   5.269 -0.1612  0.4650  0.2399
27755SOL    HW184939   2.513   0.714   5.285 -0.7718  0.8055 -2.2031
27755SOL    HW284940   2.580   0.625   5.184  1.8697 -1.2415  1.1391
27756SOL     OW84941   1.885   4.079   3.392  0.0004  0.1867  0.0315
27756SOL    HW184942   1.919   4.162   3.427 -0.2007  0.3260 -0.1075
27756SOL    HW284943   1.875   4.024   3.470  0.4633  0.1737  0.0852
27757SOL     OW84944   1.572   3.923   2.846  0.2502 -0.2388  0.0769
27757SOL    HW184945   1.624   3.929   2.766 -0.1770 -2.2232 -0.3953
27757SOL    HW284946   1.485   3.895   2.817  0.3129 -1.8114  1.2709
27758SOL     OW84947   5.867   6.785   9.022 -0.4119 -0.2995 -0.0494
27758SOL    HW184948   5.855   6.868   9.069  0.1597 -1.3413  2.0424
27758SOL    HW284949   5.962   6.770   9.024 -0.6150 -1.5998  0.7129
27759SOL     OW84950   0.070   6.325   1.161  0.7314 -0.3212  0.1855
27759SOL    HW184951   0.074   6.421   1.163 -0.6494 -0.2401  0.3473
27759SOL    HW284952  -0.009   6.305   1.111 -0.2680 -1.3099  2.0551
27760SOL     OW84953   3.391   8.629   2.503  0.3975  0.0163 -0.0842
27760SOL    HW184954   3.390   8.724   2.493  0.6441  0.0463  0.1486
27760SOL    HW284955   3.457   8.598   2.441 -0.1023 -0.0603 -0.5863
27761SOL     OW84956   6.350   6.402   2.434 -0.2431 -0.2584 -0.4137
27761SOL    HW184957   6.390   6.336   2.490 -0.0916  0.1388 -0.0437
27761SOL    HW284958   6.257   6.400   2.457  0.0101  0.8332  0.8560
27762SOL     OW84959   6.619   1.007   0.654  0.0578 -0.4066 -0.1306
27762SOL    HW184960   6.595   1.099   0.668 -0.0198 -0.2640 -1.1374
27762SOL    HW284961   6.705   0.998   0.696 -1.0582 -0.5667  2.3043
27763SOL     OW84962   8.842   8.560   7.465 -0.2842  0.1508 -0.4460
27763SOL    HW184963   8.828   8.550   7.371  1.3846  0.5771 -0.7645
27763SOL    HW284964   8.865   8.652   7.477  0.1649 -0.0487  0.2944
27764SOL     OW84965   6.517   3.216   0.904 -0.1970  0.3465 -0.1434
27764SOL    HW184966   6.546   3.307   0.912  2.6109 -0.3403 -1.2584
27764SOL    HW284967   6.495   3.190   0.993 -2.6067  2.4861  0.0058
27765SOL     OW84968   6.397   0.228   5.258  0.1567  0.0872  0.0826
27765SOL    HW184969   6.472   0.287   5.251  0.4383 -0.0735  1.4619
27765SOL    HW284970   6.351   0.256   5.338 -1.9682  0.9677 -1.3509
27766SOL     OW84971   8.219   8.549   0.027 -0.1971 -0.1832 -0.0510
27766SOL    HW184972   8.148   8.565  -0.035 -0.5353 -0.8863  0.1413
27766SOL    HW284973   8.215   8.454   0.043 -0.5758  0.0960  1.6126
27767SOL     OW84974   2.989   5.068   7.563 -0.5627  0.0984  0.4960
27767SOL    HW184975   2.934   5.145   7.558  0.4215  0.8837  1.2211
27767SOL    HW284976   3.058   5.083   7.498 -0.4173 -0.2024  0.5785
27768SOL     OW84977   0.984   1.410   1.196 -0.2029  0.0904 -0.4912
27768SOL    HW184978   0.993   1.315   1.187 -1.0724  0.0192 -0.6061
27768SOL    HW284979   1.074   1.442   1.193  0.1175 -0.7495 -0.2112
27769SOL     OW84980   1.455   4.567   5.018 -0.5391  0.1580  0.1954
27769SOL    HW184981   1.371   4.557   4.973 -0.1505 -0.4487 -0.4036
27769SOL    HW284982   1.513   4.604   4.952 -1.0307  3.4092  1.3698
27770SOL     OW84983   1.794   4.795   3.885 -0.1334 -0.1466  0.1357
27770SOL    HW184984   1.802   4.836   3.799 -0.7211  0.9215  0.5743
27770SOL    HW284985   1.884   4.780   3.913  0.1553  2.2438  0.6114
27771SOL     OW84986   5.653   3.969   4.416  0.5422  0.4440  0.5048
27771SOL    HW184987   5.558   3.961   4.402  0.4102 -0.0425  1.6300
27771SOL    HW284988   5.688   3.883   4.394  0.5794  0.2881  1.1499
27772SOL     OW84989   2.954   7.432   7.120 -0.1539  0.0909 -0.2132
27772SOL    HW184990   2.869   7.476   7.131 -0.8740 -1.5172  1.1126
27772SOL    HW284991   3.018   7.503   7.124 -1.4023  1.3021 -0.8254
27773SOL     OW84992   9.630   7.301   4.260  0.0767  0.0252  0.0728
27773SOL    HW184993   9.609   7.232   4.322 -1.2587  0.4968  0.1788
27773SOL    HW284994   9.712   7.339   4.292  0.4337 -1.0160  0.4161
27774SOL     OW84995   5.528   5.373   4.814  0.4393  0.4473 -0.5754
27774SOL    HW184996   5.577   5.434   4.869  1.4989 -1.4742  0.7153
27774SOL    HW284997   5.508   5.424   4.735  1.8765  2.2446  0.1334
27775SOL     OW84998   7.330   7.061   2.208 -0.4517  0.7147  0.3917
27775SOL    HW184999   7.287   7.055   2.293 -0.4631  0.2524  0.3580
27775SOL    HW285000   7.369   7.148   2.207  0.2714  0.4194  1.2212
27776SOL     OW85001   9.480   1.981   3.467 -0.3745 -0.0976  0.1339
27776SOL    HW185002   9.472   2.027   3.383 -0.6453 -1.1961 -0.4493
27776SOL    HW285003   9.396   1.995   3.510 -1.1950 -1.6604 -0.8886
27777SOL     OW85004   1.562   3.625   5.354 -0.0387 -0.3728  0.2222
27777SOL    HW185005   1.495   3.693   5.346 -0.7226 -1.2709 -2.5891
27777SOL    HW285006   1.532   3.569   5.425 -0.3439  1.2348  1.4185
27778SOL     OW85007   5.302   0.655   9.377 -0.6182  0.4958 -0.4510
27778SOL    HW185008   5.331   0.572   9.414  1.1430  1.0496 -0.5390
27778SOL    HW285009   5.280   0.634   9.286 -1.9793 -0.2212  0.0097
27779SOL     OW85010   7.122   5.252   4.397  0.2014 -0.0464  0.6558
27779SOL    HW185011   7.183   5.187   4.432  0.7440 -0.3329 -0.7167
27779SOL    HW285012   7.042   5.203   4.381 -0.4474  0.3388  2.4999
27780SOL     OW85013   9.263   5.734   7.607  0.4576 -0.5486  0.2006
27780SOL    HW185014   9.290   5.722   7.515 -1.0253 -0.5654 -0.2500
27780SOL    HW285015   9.196   5.802   7.603  1.0018  0.0875  1.4074
27781SOL     OW85016   6.627   9.418   3.619  0.4572 -0.2391 -0.0758
27781SOL    HW185017   6.563   9.453   3.681 -0.8258  1.7545 -2.3432
27781SOL    HW285018   6.692   9.489   3.609  2.1086 -1.5404  0.8474
27782SOL     OW85019   7.693   6.371   2.128 -0.4088  0.3579  0.0276
27782SOL    HW185020   7.627   6.418   2.078 -1.6385  0.3906  1.6247
27782SOL    HW285021   7.656   6.362   2.215  1.5009 -0.0454  0.8560
27783SOL     OW85022   1.843   6.714   3.727  0.2078 -0.1266 -0.3223
27783SOL    HW185023   1.825   6.805   3.750  0.8482  0.1771 -0.9806
27783SOL    HW285024   1.761   6.682   3.691 -0.5343 -0.3372  1.4689
27784SOL     OW85025   4.856   7.137   0.879  0.5141 -0.2810 -0.0759
27784SOL    HW185026   4.935   7.108   0.924  1.5156  1.0816 -0.8953
27784SOL    HW285027   4.798   7.168   0.949  0.6208 -1.4374  0.5423
27785SOL     OW85028   7.206   4.843   7.807 -0.4732  0.3547 -0.1122
27785SOL    HW185029   7.259   4.764   7.800 -0.1353  0.2101  2.7881
27785SOL    HW285030   7.166   4.853   7.721  0.2472 -2.4102 -0.8626
27786SOL     OW85031   1.911   0.854   4.508 -0.1388  0.2375 -0.0922
27786SOL    HW185032   1.857   0.878   4.584 -0.3865  0.4474 -0.3308
27786SOL    HW285033   1.904   0.759   4.503 -0.0024  0.2079  0.2359
27787SOL     OW85034   3.043   7.219   9.384  0.1385 -0.3509 -0.1014
27787SOL    HW185035   3.013   7.138   9.343  0.9628 -1.3765  1.2321
27787SOL    HW285036   3.025   7.287   9.319  0.2248 -1.7161 -1.6217
27788SOL     OW85037   6.851   1.360   7.277  0.2096  0.0065 -0.1545
27788SOL    HW185038   6.900   1.407   7.210  1.0385 -0.6818 -0.0508
27788SOL    HW285039   6.760   1.363   7.246  0.1748  1.8953  0.0002
27789SOL     OW85040   3.675   3.972   0.502 -0.0839 -0.4061  0.4130
27789SOL    HW185041   3.606   4.000   0.441  0.0651 -0.3435  0.2736
27789SOL    HW285042   3.739   3.928   0.447  0.3978  0.2689  0.4194
27790SOL     OW85043   2.330   6.203   7.282 -0.1136  0.0070 -0.1458
27790SOL    HW185044   2.355   6.116   7.314  0.7543 -0.5299 -2.1182
27790SOL    HW285045   2.248   6.188   7.235  0.1997  0.1859 -0.7553
27791SOL     OW85046   0.535   1.025   5.405 -0.0903  0.7564  0.3269
27791SOL    HW185047   0.516   0.980   5.323 -0.8348  0.9649  0.3787
27791SOL    HW285048   0.471   0.990   5.467  0.8836  0.1163  1.0031
27792SOL     OW85049   3.717   3.272   1.034  0.4312  0.1062  0.2050
27792SOL    HW185050   3.805   3.265   1.069  0.8338  1.0767 -0.5546
27792SOL    HW285051   3.659   3.252   1.108  1.2591 -2.4259  0.2848
27793SOL     OW85052   2.060   0.963   6.439  0.2209  0.2474  0.0129
27793SOL    HW185053   2.018   1.046   6.414  1.7189  0.9425 -0.3040
27793SOL    HW285054   2.062   0.965   6.535  1.3598  1.1968 -0.0029
27794SOL     OW85055   0.441   9.353   8.984 -0.2283  0.3390  0.3127
27794SOL    HW185056   0.528   9.377   8.951  0.9839  0.7711  3.4532
27794SOL    HW285057   0.408   9.290   8.920  2.3384  0.2205 -1.0429
27795SOL     OW85058   0.101   4.622   6.925 -0.5598 -0.1454  0.7342
27795SOL    HW185059   0.048   4.561   6.874  1.2809 -0.9239 -0.3867
27795SOL    HW285060   0.098   4.588   7.014  0.6066 -2.1028  0.0995
27796SOL     OW85061   6.627   2.681   9.047 -0.2802 -0.0249  0.3523
27796SOL    HW185062   6.668   2.613   9.101 -0.0626 -0.9223 -0.9151
27796SOL    HW285063   6.537   2.652   9.037  0.0776 -0.7210 -1.0824
27797SOL     OW85064   3.060   5.571   5.047 -0.0923 -0.0180 -0.8704
27797SOL    HW185065   3.065   5.476   5.061  0.3250  0.1689  0.4372
27797SOL    HW285066   2.979   5.584   4.999 -0.2069 -1.0332 -0.9733
27798SOL     OW85067   0.136   0.114   2.813 -0.0054  0.3185 -0.1176
27798SOL    HW185068   0.067   0.181   2.813 -1.6896 -1.3141 -0.1636
27798SOL    HW285069   0.174   0.120   2.900  0.7266  2.1013 -0.5069
27799SOL     OW85070   6.424   5.742   7.862  0.0378 -0.2856  0.2742
27799SOL    HW185071   6.406   5.793   7.783  0.6351  0.1240  0.3957
27799SOL    HW285072   6.492   5.791   7.907 -0.4013 -0.4465  1.1190
27800SOL     OW85073   8.052   2.423   2.854 -0.5131 -0.6521 -0.1796
27800SOL    HW185074   8.100   2.497   2.891  0.8669 -1.4104 -0.3904
27800SOL    HW285075   7.984   2.464   2.801 -0.2380  0.4653  0.2925
27801SOL     OW85076   5.088   1.403   5.109 -0.4233  0.7175 -0.0197
27801SOL    HW185077   5.010   1.371   5.155  0.0879  1.4911  1.4136
27801SOL    HW285078   5.118   1.327   5.058 -1.6135  0.1640  0.0667
27802SOL     OW85079   1.239   2.483   6.886  0.4253  0.2260  0.0274
27802SOL    HW185080   1.185   2.419   6.933  0.0901  0.2791 -0.2819
27802SOL    HW285081   1.196   2.492   6.801  1.8518 -0.9969 -0.8668
27803SOL     OW85082   2.070   6.638   1.170  0.0111  0.2937 -0.2964
27803SOL    HW185083   1.995   6.612   1.223  0.3995  1.0736  0.6716
27803SOL    HW285084   2.039   6.630   1.080 -0.5338 -1.4594 -0.0012
27804SOL     OW85085   5.907   1.856   6.630 -0.4526  0.5973 -0.1601
27804SOL    HW185086   5.948   1.826   6.549  2.1098 -2.1393  1.9081
27804SOL    HW285087   5.931   1.948   6.637  1.2254  0.3065 -1.4572
27805SOL     OW85088   0.201   0.586   0.827  0.3850  0.3260  0.2765
27805SOL    HW185089   0.163   0.597   0.740 -0.1743 -2.8616 -0.0227
27805SOL    HW285090   0.140   0.528   0.873  2.8469 -1.7927  1.1408
27806SOL     OW85091   9.511   5.200   1.019  0.1084 -0.1535 -0.3704
27806SOL    HW185092   9.475   5.257   1.086 -1.3710 -1.3467 -0.0906
27806SOL    HW285093   9.593   5.242   0.993  0.1879  0.8800  1.4071
27807SOL     OW85094   2.306   3.944   0.707 -0.3793 -0.2547 -0.0358
27807SOL    HW185095   2.279   4.032   0.734  1.4676  0.6278 -0.9225
27807SOL    HW285096   2.228   3.891   0.721 -1.4626  1.4522  0.8093
27808SOL     OW85097   5.854   5.577   8.663  0.3609 -0.2824  0.7579
27808SOL    HW185098   5.912   5.582   8.587  1.1569 -1.0713  1.2968
27808SOL    HW285099   5.793   5.506   8.643  1.3499 -1.3445  1.3422
27809SOL     OW85100   1.295   5.372   4.805 -0.1548  0.4259 -0.0191
27809SOL    HW185101   1.290   5.427   4.727 -0.1353 -0.4300 -0.6346
27809SOL    HW285102   1.204   5.359   4.831 -0.1858  0.3279 -0.1744
27810SOL     OW85103   9.236   7.023   3.237 -0.1517 -0.4766 -0.2389
27810SOL    HW185104   9.254   7.012   3.144  0.6813 -2.0608  0.0727
27810SOL    HW285105   9.140   7.026   3.243 -0.2116  1.1282 -1.2510
27811SOL     OW85106   4.212   0.728   8.913 -0.4089 -0.1744  0.0083
27811SOL    HW185107   4.251   0.716   8.827 -1.2447 -0.2001 -0.3756
27811SOL    HW285108   4.121   0.698   8.903 -0.7807  0.7040  0.6428
27812SOL     OW85109   5.130   8.797   7.992 -0.4148  0.3338  0.2559
27812SOL    HW185110   5.165   8.758   8.072  0.6924 -1.4914 -1.0393
27812SOL    HW285111   5.204   8.843   7.953 -0.5191 -0.1272 -0.5019
27813SOL     OW85112   4.116   1.167   7.616 -0.2813  0.0514 -0.1264
27813SOL    HW185113   4.143   1.239   7.559  1.7498 -1.5237 -1.2786
27813SOL    HW285114   4.172   1.094   7.591 -1.4965 -1.6400  1.7661
27814SOL     OW85115   8.977   2.107   0.884 -0.0103 -0.1108  0.1732
27814SOL    HW185116   8.960   2.162   0.961 -1.1077  0.8259 -0.7041
27814SOL    HW285117   8.892   2.100   0.840  0.5255 -0.9164 -0.7773
27815SOL     OW85118   8.280   5.342   7.935  0.6953  0.3796 -0.4026
27815SOL    HW185119   8.277   5.424   7.985 -0.4832  0.6838 -0.9221
27815SOL    HW285120   8.339   5.286   7.984  1.1843  1.3972  0.1982
27816SOL     OW85121   9.302   2.746   3.602 -0.1101 -0.1294 -0.2375
27816SOL    HW185122   9.380   2.779   3.647  0.6509  0.5973 -1.9962
27816SOL    HW285123   9.329   2.660   3.568 -1.2342 -1.4711  2.0763
27817SOL     OW85124   9.214   5.114   1.671  0.2696  0.0927  0.3337
27817SOL    HW185125   9.132   5.108   1.721 -0.1093 -0.4105 -0.3399
27817SOL    HW285126   9.249   5.200   1.693  0.7354 -0.5682  2.4300
27818SOL     OW85127   7.725   9.205   2.259  0.4833  0.2453  0.5720
27818SOL    HW185128   7.712   9.298   2.239  1.0283  0.2575  0.2514
27818SOL    HW285129   7.819   9.191   2.249  0.3345 -0.4699  0.0486
27819SOL     OW85130   3.302   0.420   2.644 -0.2775  0.0484 -0.2174
27819SOL    HW185131   3.350   0.496   2.678  0.3351 -0.6707  0.5783
27819SOL    HW285132   3.255   0.454   2.568  0.0431  1.2063  0.0697
27820SOL     OW85133   4.845   5.838   8.151  0.1311  0.3605 -0.0738
27820SOL    HW185134   4.894   5.759   8.131  1.0238  0.6754  0.7909
27820SOL    HW285135   4.769   5.835   8.093  1.6247  0.3380 -2.1459
27821SOL     OW85136   4.159   7.005   7.868  0.3277 -0.0692  0.3932
27821SOL    HW185137   4.249   7.037   7.865 -0.0755  1.1733  0.9076
27821SOL    HW285138   4.136   6.988   7.776  0.3195  1.9084 -0.0233
27822SOL     OW85139   2.560   6.054   4.147 -0.0701 -0.1789  0.2135
27822SOL    HW185140   2.648   6.039   4.111  0.1760  1.4066  0.0537
27822SOL    HW285141   2.502   6.051   4.071 -0.1671 -1.2259  0.3185
27823SOL     OW85142   0.478   3.804   7.995 -0.2241 -0.5043 -0.1277
27823SOL    HW185143   0.446   3.848   7.917  1.2742  1.6203  0.3579
27823SOL    HW285144   0.415   3.826   8.063 -0.7285 -1.0933 -0.4005
27824SOL     OW85145   8.543   8.194   3.038 -0.5009  0.3960  0.0761
27824SOL    HW185146   8.614   8.247   3.002 -0.2072  0.8758  1.3237
27824SOL    HW285147   8.572   8.104   3.025  0.8125  0.5835  1.4304
27825SOL     OW85148   2.009   0.385   1.749  0.1561  0.1258 -0.0116
27825SOL    HW185149   1.963   0.381   1.666  0.8272 -0.2359 -0.3759
27825SOL    HW285150   2.056   0.302   1.754  0.1807  0.1746  0.6951
27826SOL     OW85151   8.655   8.188   6.347 -0.4927 -0.0598  0.4828
27826SOL    HW185152   8.707   8.211   6.269 -0.5164  2.2945  1.0667
27826SOL    HW285153   8.676   8.097   6.364 -0.5860 -0.6990 -2.3459
27827SOL     OW85154   7.539   4.491   7.876  0.7068  0.3765  0.5815
27827SOL    HW185155   7.480   4.446   7.815  0.5982  0.4128  0.6589
27827SOL    HW285156   7.571   4.567   7.827 -0.2980  1.0734  0.9582
27828SOL     OW85157   1.912   0.923   2.869  0.0139 -0.1868 -0.0508
27828SOL    HW185158   1.833   0.947   2.822  0.8393  1.4184 -0.6802
27828SOL    HW285159   1.943   0.843   2.826 -0.7133 -0.2566 -0.4431
27829SOL     OW85160   2.647   8.762   8.331  0.3992 -0.1763  0.2387
27829SOL    HW185161   2.575   8.721   8.381  1.1135 -0.7626  0.8109
27829SOL    HW285162   2.604   8.799   8.254 -0.3825 -1.4791  0.0046
27830SOL     OW85163   0.461   6.857   4.256  0.2600  0.0426 -0.2405
27830SOL    HW185164   0.421   6.945   4.262 -1.9883 -0.8577 -0.8719
27830SOL    HW285165   0.391   6.802   4.222  1.3740 -2.1891  0.8934
27831SOL     OW85166   9.106   0.464   2.695 -0.6238  0.0228 -0.4561
27831SOL    HW185167   9.043   0.531   2.722  0.6746  2.1878 -2.3992
27831SOL    HW285168   9.073   0.434   2.610  0.9394  1.2588 -1.5452
27832SOL     OW85169   0.591   7.703   3.499  0.0638 -0.1497 -0.4846
27832SOL    HW185170   0.667   7.645   3.510  0.8207  1.1750  2.2426
27832SOL    HW285171   0.622   7.789   3.528 -2.2348  0.6404 -0.1376
27833SOL     OW85172   1.939   7.443   2.903 -0.5068 -0.1359  0.1319
27833SOL    HW185173   2.018   7.463   2.954  0.6057 -1.2383 -1.0793
27833SOL    HW285174   1.911   7.357   2.936 -0.0295 -0.6582 -0.7809
27834SOL     OW85175   1.961   1.305   0.597 -0.0579  0.3571 -0.4531
27834SOL    HW185176   1.866   1.297   0.601 -0.0121 -0.7572 -1.2429
27834SOL    HW285177   1.994   1.245   0.663  0.1086  0.2367 -0.6415
27835SOL     OW85178   9.650   4.764   7.381  0.1176  0.1605 -0.6210
27835SOL    HW185179   9.717   4.702   7.409  1.1173  1.4143 -0.0931
27835SOL    HW285180   9.699   4.841   7.352 -1.0852  1.4613  0.6004
27836SOL     OW85181   7.439   5.051   4.181  0.1469 -0.5669 -0.0446
27836SOL    HW185182   7.453   5.021   4.091 -1.3920 -0.1430 -0.4664
27836SOL    HW285183   7.419   4.972   4.230  0.6557 -0.7598 -0.1413
27837SOL     OW85184   4.977   2.651   4.514 -0.5091  0.2913 -0.0154
27837SOL    HW185185   4.922   2.689   4.582 -0.9490 -0.3619  0.0048
27837SOL    HW285186   4.952   2.558   4.512 -1.6874  0.5732 -2.1465
27838SOL     OW85187   5.915   8.252   0.040  0.7875  0.3313 -0.0249
27838SOL    HW185188   5.865   8.236   0.120  0.0872 -0.5600 -0.6257
27838SOL    HW285189   5.849   8.267  -0.027  1.3101 -1.1311 -0.8908
27839SOL     OW85190   1.146   3.960   8.349  0.3282 -0.4416  0.2320
27839SOL    HW185191   1.100   4.042   8.328  1.5573  0.0085 -0.8946
27839SOL    HW285192   1.089   3.891   8.315 -0.7967 -0.0940  1.3327
27840SOL     OW85193   2.295   6.079   2.507  0.3557  0.1885  0.2042
27840SOL    HW185194   2.326   5.994   2.477 -0.8759  0.2145 -1.2998
27840SOL    HW285195   2.369   6.138   2.495  0.6546 -0.3172 -0.4990
27841SOL     OW85196   7.021   3.144   9.114 -0.0863  0.2026 -0.6922
27841SOL    HW185197   6.998   3.051   9.113 -1.1389  0.4467 -0.0598
27841SOL    HW285198   7.001   3.175   9.026 -0.1398 -0.0750 -0.7780
27842SOL     OW85199   8.045   4.999   9.377 -0.9251  0.4324  0.1303
27842SOL    HW185200   8.016   4.967   9.463  0.5531  0.6401  0.7319
27842SOL    HW285201   8.048   4.921   9.322 -2.7008  0.4237  0.0048
27843SOL     OW85202   0.358   5.998   9.329 -0.1967  0.4597  0.4660
27843SOL    HW185203   0.402   5.919   9.359  1.3017  0.0975 -2.3416
27843SOL    HW285204   0.265   5.982   9.348  0.2411 -1.3090  1.3344
27844SOL     OW85205   6.152   1.939   1.319  0.2387 -0.5044  0.3345
27844SOL    HW185206   6.175   1.971   1.232  0.2883  0.4997  0.7035
27844SOL    HW285207   6.211   1.865   1.335 -1.9277 -2.8803 -1.7975
27845SOL     OW85208   6.321   3.608   1.970  0.0594  0.3460  0.2048
27845SOL    HW185209   6.356   3.536   2.022 -0.7245 -0.7340 -0.6885
27845SOL    HW285210   6.242   3.635   2.016 -0.6218 -0.5944 -0.3583
27846SOL     OW85211   9.638   2.224   3.752 -0.2752  0.3145 -0.2373
27846SOL    HW185212   9.664   2.266   3.834  0.2359 -0.5181  0.0390
27846SOL    HW285213   9.598   2.142   3.780 -0.0156 -0.0152 -0.8342
27847SOL     OW85214   4.421   4.367   4.952 -0.3021 -0.0593  0.3986
27847SOL    HW185215   4.358   4.300   4.978 -1.0010  0.1672 -0.6604
27847SOL    HW285216   4.380   4.450   4.976 -0.5922  0.1079 -0.6110
27848SOL     OW85217   1.118   0.612   4.733  0.0785 -0.4666 -0.0044
27848SOL    HW185218   1.136   0.588   4.824  0.4926 -0.5251 -0.0985
27848SOL    HW285219   1.204   0.613   4.692  0.0400  0.8003 -0.0916
27849SOL     OW85220   0.606   3.717   0.702  0.3505 -0.0719  0.2749
27849SOL    HW185221   0.645   3.672   0.627 -0.1645  3.2617 -2.2217
27849SOL    HW285222   0.511   3.708   0.688  0.2366  1.8155 -0.4097
27850SOL     OW85223   1.811   0.416   5.215  0.5388 -0.2553 -0.2372
27850SOL    HW185224   1.811   0.469   5.294 -1.6640  0.0696 -0.3970
27850SOL    HW285225   1.826   0.478   5.144  0.8156 -0.2776 -0.1960
27851SOL     OW85226   3.753   2.522   1.404 -0.2358 -0.2460  0.6628
27851SOL    HW185227   3.686   2.510   1.471  0.0114 -0.1788  0.9231
27851SOL    HW285228   3.747   2.443   1.350 -0.9541  0.0458  0.3011
27852SOL     OW85229   6.473   1.351   4.836  0.0561  0.7639  0.0376
27852SOL    HW185230   6.559   1.370   4.798 -0.0240 -0.7167 -0.9405
27852SOL    HW285231   6.491   1.282   4.900 -0.7996 -2.3474 -2.7788
27853SOL     OW85232   5.983   1.633   1.378 -0.2559 -0.0261 -0.3147
27853SOL    HW185233   6.008   1.710   1.429  0.2835  0.1156 -0.7779
27853SOL    HW285234   6.031   1.643   1.296 -2.6117  0.7625 -1.6616
27854SOL     OW85235   2.871   8.328   2.078  0.5391 -0.0071 -0.0195
27854SOL    HW185236   2.927   8.261   2.117 -0.7398 -0.8955  0.3409
27854SOL    HW285237   2.839   8.288   1.997  1.3140  0.9318 -0.8116
27855SOL     OW85238   9.356   9.042   9.665 -0.4368 -0.4316 -0.4038
27855SOL    HW185239   9.365   9.069   9.574 -0.4429 -0.0110 -0.2844
27855SOL    HW285240   9.433   8.989   9.683 -0.7916 -1.1182 -0.8586
27856SOL     OW85241   0.047   7.143   5.964  0.1778 -0.2053  0.1294
27856SOL    HW185242  -0.010   7.217   5.983  0.3175 -0.0985  0.1360
27856SOL    HW285243   0.021   7.113   5.877 -1.3952 -1.5519  1.0046
27857SOL     OW85244   9.227   7.978   1.734  0.1859 -0.2992 -0.0566
27857SOL    HW185245   9.281   7.899   1.743  0.9371  0.1113 -0.8510
27857SOL    HW285246   9.173   7.961   1.657  0.3298 -0.0533 -0.2135
27858SOL     OW85247   9.478   4.360   4.380  0.2951  0.2329  1.0146
27858SOL    HW185248   9.554   4.403   4.419  1.2437  1.0813 -1.5356
27858SOL    HW285249   9.511   4.274   4.353  0.1552  0.3237  0.5486
27859SOL     OW85250   8.439   6.268   9.501  0.3401 -0.0310  0.1553
27859SOL    HW185251   8.458   6.296   9.590  0.0636 -0.2892  0.2962
27859SOL    HW285252   8.375   6.198   9.510  0.7033 -0.4215 -0.2160
27860SOL     OW85253   6.629   0.415   8.644 -0.1444  0.0437 -0.0942
27860SOL    HW185254   6.548   0.399   8.691  0.6637 -0.7508  1.1070
27860SOL    HW285255   6.603   0.460   8.564 -1.6878  0.3647  0.5639
27861SOL     OW85256   1.836   6.967   3.808 -0.0242 -0.2318  0.4453
27861SOL    HW185257   1.758   6.997   3.855  0.1506 -1.1427  1.3554
27861SOL    HW285258   1.860   7.040   3.751 -0.2156  0.9271  1.8098
27862SOL     OW85259   2.633   9.627   0.366 -0.0215 -0.8877  0.6235
27862SOL    HW185260   2.622   9.631   0.271  1.4145  0.4814  0.4595
27862SOL    HW285261   2.555   9.669   0.402  0.6760  1.2252 -0.1210
27863SOL     OW85262   7.934   5.531   6.636 -0.0268  0.7106  0.1142
27863SOL    HW185263   7.925   5.620   6.670  1.7710  0.1953  2.2018
27863SOL    HW285264   8.020   5.530   6.593  0.1131 -0.0851  0.3945
27864SOL     OW85265   5.813   2.193   3.865 -0.2773 -0.0414 -0.0252
27864SOL    HW185266   5.751   2.129   3.900 -0.0056 -0.6168 -0.5768
27864SOL    HW285267   5.899   2.152   3.875 -0.0671  0.3733 -0.0892
27865SOL     OW85268   4.034   8.769   1.881  0.1682  0.4647  0.5987
27865SOL    HW185269   4.085   8.812   1.950  1.4904 -1.8157  1.1505
27865SOL    HW285270   3.945   8.767   1.914  0.5233  0.6979  1.5924
27866SOL     OW85271   5.637   2.023   5.312  0.3868 -0.5837 -0.0587
27866SOL    HW185272   5.654   1.964   5.386 -1.7698  0.0343  1.0030
27866SOL    HW285273   5.576   2.088   5.347  1.2126  1.1814 -1.7418
27867SOL     OW85274   8.700   1.911   1.049  0.7450 -0.1824 -0.3014
27867SOL    HW185275   8.723   1.821   1.074  1.7585  0.4355  1.1567
27867SOL    HW285276   8.682   1.906   0.955  0.5953 -1.9332 -0.2131
27868SOL     OW85277   1.160   0.402   2.119  0.4721 -0.3281 -0.0086
27868SOL    HW185278   1.072   0.385   2.152  0.5865 -0.0464  0.4423
27868SOL    HW285279   1.161   0.361   2.032  0.3576 -1.5959  0.5697
27869SOL     OW85280   8.591   8.683   0.677 -0.2095  0.0359 -0.6216
27869SOL    HW185281   8.502   8.710   0.654  0.0523  0.8880 -0.6460
27869SOL    HW285282   8.647   8.752   0.642  0.3702  0.1801  0.5503
27870SOL     OW85283   8.329   1.163   3.858 -0.2401 -0.1510  0.3127
27870SOL    HW185284   8.250   1.210   3.885 -0.2656  0.0494 -0.0999
27870SOL    HW285285   8.335   1.090   3.919 -0.8830 -0.3065  0.2064
27871SOL     OW85286   0.027   4.616   2.265 -0.4564 -0.9437 -0.3373
27871SOL    HW185287   0.116   4.646   2.283 -0.1841 -1.3598 -0.9878
27871SOL    HW285288   0.027   4.593   2.173 -1.2231 -1.0150 -0.3271
27872SOL     OW85289   0.011   8.646   7.258  0.5507 -0.0926 -0.0774
27872SOL    HW185290   0.020   8.650   7.354  1.3289 -0.9874 -0.1075
27872SOL    HW285291   0.032   8.556   7.235 -1.7972 -0.5167 -0.8942
27873SOL     OW85292   3.131   6.569   5.848 -0.0003  0.2184 -1.0062
27873SOL    HW185293   3.132   6.580   5.943 -1.1745 -2.6927 -0.5497
27873SOL    HW285294   3.172   6.648   5.814 -2.3342  2.8736  1.7502
27874SOL     OW85295   8.820   6.250   2.829  0.2172 -0.1709 -0.0056
27874SOL    HW185296   8.753   6.184   2.808  1.8923 -2.5673  1.6866
27874SOL    HW285297   8.898   6.222   2.781  0.2914  2.2512 -1.4792
27875SOL     OW85298   9.654   5.373   6.925  0.1349  0.2223 -1.0228
27875SOL    HW185299   9.737   5.326   6.921 -0.9556 -2.0553  0.7695
27875SOL    HW285300   9.587   5.306   6.911 -1.5110  1.0823  1.8485
27876SOL     OW85301   3.382   2.093   0.408 -0.5644 -0.2045  0.9603
27876SOL    HW185302   3.338   2.103   0.324  0.2102  5.2455  0.8231
27876SOL    HW285303   3.475   2.084   0.386 -0.4945 -0.1740  1.2304
27877SOL     OW85304   4.643   0.353   7.101  0.4220 -0.1211 -0.0194
27877SOL    HW185305   4.581   0.282   7.084  1.2809 -1.0827  0.7027
27877SOL    HW285306   4.658   0.349   7.196  0.3338  1.1604  0.0585
27878SOL     OW85307   7.162   5.488   1.784 -0.1871 -0.9821  0.3272
27878SOL    HW185308   7.246   5.464   1.825  0.1434  1.4674  1.2907
27878SOL    HW285309   7.186   5.518   1.696 -0.1587 -1.0310  0.3183
27879SOL     OW85310   1.430   1.514   4.489 -0.7555  0.4376  0.0574
27879SOL    HW185311   1.513   1.526   4.534 -0.1178  2.2133 -1.4623
27879SOL    HW285312   1.416   1.419   4.488  0.2505  0.2226  2.0204
27880SOL     OW85313   0.234   3.491   4.784 -0.4530 -0.0915  0.6272
27880SOL    HW185314   0.312   3.503   4.729 -0.8405 -0.9124 -0.1306
27880SOL    HW285315   0.234   3.398   4.804 -2.0648 -0.4280 -0.6911
27881SOL     OW85316   8.123   7.133   6.215 -0.5218 -0.3864  0.3237
27881SOL    HW185317   8.172   7.082   6.280 -0.5946  0.0112  0.6929
27881SOL    HW285318   8.169   7.117   6.132 -0.3457 -0.7837  0.4957
27882SOL     OW85319   3.444   4.610   3.247  0.1407 -0.1961  0.1122
27882SOL    HW185320   3.445   4.706   3.251  1.4177 -0.1909 -0.0395
27882SOL    HW285321   3.446   4.590   3.153  0.6105 -0.3612  0.1532
27883SOL     OW85322   0.744   7.182   7.753 -0.4524 -0.3831  0.2650
27883SOL    HW185323   0.672   7.244   7.745 -1.5065 -1.6040 -0.0179
27883SOL    HW285324   0.703   7.096   7.745  1.2056 -1.0951 -1.3122
27884SOL     OW85325   5.764   8.659   0.489  0.0382 -0.7872  0.5414
27884SOL    HW185326   5.822   8.733   0.475 -1.0668  0.0798  0.3984
27884SOL    HW285327   5.737   8.667   0.581 -0.6301 -0.6094  0.3311
27885SOL     OW85328   3.163   7.058   0.398 -0.1879 -0.0423 -0.3737
27885SOL    HW185329   3.115   6.996   0.453 -0.2056  1.3052  1.2040
27885SOL    HW285330   3.255   7.032   0.407 -0.2943 -0.5301 -0.6499
27886SOL     OW85331   2.141   0.827   2.144 -0.4839 -0.1361  0.7141
27886SOL    HW185332   2.051   0.800   2.162 -0.8228  0.5290  0.0579
27886SOL    HW285333   2.134   0.919   2.120  0.0964 -0.6119 -1.4635
27887SOL     OW85334   1.212   7.096   3.162  0.0974  0.6480  0.9466
27887SOL    HW185335   1.159   7.017   3.148  1.0323 -0.0224  1.0702
27887SOL    HW285336   1.166   7.164   3.113  0.3995 -0.4509 -0.9826
27888SOL     OW85337   4.610   6.174   0.562  0.4297 -0.6679 -0.1484
27888SOL    HW185338   4.559   6.102   0.600  1.0994 -0.6377  0.8383
27888SOL    HW285339   4.565   6.253   0.590  0.0091 -0.6702 -0.7790
27889SOL     OW85340   2.200   5.950   3.622 -0.6415  0.5985  0.4169
27889SOL    HW185341   2.265   6.008   3.581 -1.3645  1.6063  0.6628
27889SOL    HW285342   2.126   5.951   3.562 -0.5142 -0.4178  0.2225
27890SOL     OW85343   7.985   8.196   3.244  0.0943 -0.2365  0.0814
27890SOL    HW185344   7.986   8.261   3.175  1.5270 -1.9657 -1.6235
27890SOL    HW285345   8.076   8.187   3.272 -0.2888 -0.4314  1.3787
27891SOL     OW85346   0.696   4.883   1.435  0.3959 -0.1498 -0.1291
27891SOL    HW185347   0.706   4.958   1.376  0.9148 -0.2402 -0.1664
27891SOL    HW285348   0.691   4.922   1.522  2.9651 -0.1385  0.0900
27892SOL     OW85349   5.910   1.486   2.631 -0.2187  0.0554 -0.1252
27892SOL    HW185350   5.847   1.558   2.633 -1.0550 -0.5555 -1.9650
27892SOL    HW285351   5.995   1.529   2.621 -0.7624  0.8326 -1.8678
27893SOL     OW85352   1.068   4.783   5.963 -0.4363  0.4791 -0.8948
27893SOL    HW185353   1.057   4.860   5.906  1.3198  1.2722 -0.2093
27893SOL    HW285354   1.055   4.817   6.051  0.7337  0.0792 -0.5604
27894SOL     OW85355   1.547   7.053   4.887  0.4117 -0.2695  0.0647
27894SOL    HW185356   1.619   7.111   4.865 -0.7297  0.7319 -1.1973
27894SOL    HW285357   1.511   7.089   4.968  0.5509 -0.0180  0.0163
27895SOL     OW85358   1.828   8.377   2.307 -0.0544 -0.0458 -0.0028
27895SOL    HW185359   1.856   8.323   2.232  0.4234  0.9441 -0.5644
27895SOL    HW285360   1.733   8.379   2.301  0.0104  0.8271 -1.2004
27896SOL     OW85361   7.191   6.455   1.772 -0.1990 -0.3782 -0.5754
27896SOL    HW185362   7.251   6.408   1.714  0.4713  1.4587 -1.4483
27896SOL    HW285363   7.226   6.440   1.860  1.1897  0.1248 -1.0092
27897SOL     OW85364   6.340   9.338   0.121  0.0531 -0.0719 -0.2367
27897SOL    HW185365   6.388   9.407   0.168 -1.8219 -0.7980  3.1026
27897SOL    HW285366   6.290   9.385   0.055 -0.3380  1.6979  1.2188
27898SOL     OW85367   8.361   1.056   4.536  0.3430  0.0607 -0.2769
27898SOL    HW185368   8.428   1.117   4.565  1.2972 -2.1191  2.6701
27898SOL    HW285369   8.287   1.071   4.595  0.4196 -1.2575  0.1902
27899SOL     OW85370   4.573   8.112   5.864 -0.0039 -0.0223 -0.1535
27899SOL    HW185371   4.563   8.203   5.891  1.1295  0.4415 -1.1875
27899SOL    HW285372   4.496   8.094   5.810  1.3437  1.4571 -2.7833
27900SOL     OW85373   4.842   7.664   7.248 -0.4927 -0.1464 -0.0448
27900SOL    HW185374   4.839   7.707   7.334 -1.2252 -1.5295  0.6455
27900SOL    HW285375   4.758   7.620   7.240 -1.4983  1.9656 -2.5986
27901SOL     OW85376   3.647   5.016   6.489  0.2555 -0.3063  0.0671
27901SOL    HW185377   3.618   5.096   6.446 -0.4485  0.0154  1.1067
27901SOL    HW285378   3.654   5.039   6.581  0.6194 -1.2929  0.3009
27902SOL     OW85379   7.299   7.665   2.217  0.1793 -0.1227 -0.0977
27902SOL    HW185380   7.206   7.675   2.235 -0.5025  0.9852 -3.4829
27902SOL    HW285381   7.341   7.740   2.260 -0.7714  0.4647 -0.1769
27903SOL     OW85382   5.276   0.161   9.645  0.4390 -0.3685 -0.3143
27903SOL    HW185383   5.275   0.103   9.569 -0.5762  2.3572 -2.5441
27903SOL    HW285384   5.184   0.180   9.663  0.6878 -0.4560  1.2415
27904SOL     OW85385   8.685   5.599   7.114  0.3136 -0.3217 -0.9331
27904SOL    HW185386   8.673   5.621   7.206 -0.1602 -0.3669 -0.9795
27904SOL    HW285387   8.647   5.512   7.105  0.2223 -0.2559 -1.2005
27905SOL     OW85388   5.710   2.946   8.402  0.2982 -0.4872 -0.2402
27905SOL    HW185389   5.676   3.005   8.335 -1.2254 -1.1772 -0.1018
27905SOL    HW285390   5.797   2.921   8.369  0.9257  1.6593 -0.3746
27906SOL     OW85391   2.288   5.210   3.250 -0.1543 -0.3207  0.3622
27906SOL    HW185392   2.356   5.277   3.244  0.0795 -0.4720  1.2221
27906SOL    HW285393   2.331   5.136   3.292 -0.5379 -0.8454 -0.1691
27907SOL     OW85394   4.043   6.328   9.518 -0.2434  0.2186 -0.3858
27907SOL    HW185395   4.032   6.346   9.425  0.3119 -0.0943 -0.5146
27907SOL    HW285396   4.137   6.328   9.532 -0.3293  0.4447  0.2139
27908SOL     OW85397   8.379   2.652   4.829  0.2250 -0.0127 -0.2494
27908SOL    HW185398   8.389   2.571   4.879 -0.3562 -1.3377 -2.1436
27908SOL    HW285399   8.318   2.629   4.758 -0.3870  2.2400 -0.5521
27909SOL     OW85400   2.672   6.551   3.604 -0.4869  0.1628  0.3164
27909SOL    HW185401   2.694   6.577   3.693 -0.4092  0.6504  0.1581
27909SOL    HW285402   2.756   6.539   3.560 -0.5151 -0.6759  0.4710
27910SOL     OW85403   4.646   9.303   7.147  0.5315 -0.1845  0.2257
27910SOL    HW185404   4.683   9.388   7.171  1.3703 -0.4054 -0.2355
27910SOL    HW285405   4.719   9.255   7.110  0.8344 -2.2012  3.1065
27911SOL     OW85406   8.005   4.183   6.668  0.2891  0.1480 -0.5066
27911SOL    HW185407   8.084   4.232   6.645 -0.5756  1.6632 -0.4149
27911SOL    HW285408   8.004   4.185   6.764 -0.0414  0.4578 -0.5146
27912SOL     OW85409   5.959   5.740   4.573 -0.1461 -0.2614  0.1653
27912SOL    HW185410   6.023   5.795   4.617 -0.6959 -0.1004  0.7660
27912SOL    HW285411   6.005   5.706   4.496  0.9473 -0.8692  1.0704
27913SOL     OW85412   5.362   5.841   5.528  0.0861 -0.4532 -0.2212
27913SOL    HW185413   5.342   5.749   5.544  1.9074 -0.8571 -0.0795
27913SOL    HW285414   5.451   5.852   5.561  0.5061  0.9651 -1.7208
27914SOL     OW85415   7.820   0.712   0.023 -0.4514 -0.0437 -0.2620
27914SOL    HW185416   7.855   0.627  -0.003  0.4441  0.4426 -0.7317
27914SOL    HW285417   7.874   0.775  -0.025  0.4315  0.8600  1.7921
27915SOL     OW85418   9.581   4.822   5.402 -0.4275  0.6663 -0.5255
27915SOL    HW185419   9.526   4.768   5.345 -0.4817  1.9519 -1.7513
27915SOL    HW285420   9.543   4.811   5.489 -1.4919  0.0921 -1.0375
27916SOL     OW85421   5.816   3.325   1.616  0.0252 -0.3861 -0.0047
27916SOL    HW185422   5.785   3.325   1.525 -0.5329  1.4043  0.1496
27916SOL    HW285423   5.910   3.341   1.609  0.3105 -1.9814 -0.3040
27917SOL     OW85424   3.449   6.353   0.577 -0.2521  0.2827  0.0670
27917SOL    HW185425   3.464   6.259   0.584  1.9160  0.5856 -0.0283
27917SOL    HW285426   3.483   6.389   0.659 -1.6652  0.9571  0.3974
27918SOL     OW85427   7.594   6.974   0.249  0.1363 -0.2090  0.1012
27918SOL    HW185428   7.670   6.986   0.192 -1.0513  0.0180 -1.4929
27918SOL    HW285429   7.523   7.021   0.206 -0.7991  0.0624  1.8408
27919SOL     OW85430   0.169   4.258   5.302  0.0776 -0.3723  0.1044
27919SOL    HW185431   0.145   4.351   5.303  0.2447 -0.3245  0.9661
27919SOL    HW285432   0.221   4.248   5.223 -0.2626  0.1863 -0.1977
27920SOL     OW85433   3.938   3.080   6.360  0.0860 -0.7461 -0.2426
27920SOL    HW185434   3.958   3.001   6.411 -0.8574 -0.5980  0.3913
27920SOL    HW285435   4.018   3.097   6.310  1.0556 -0.9032  1.1920
27921SOL     OW85436   6.238   2.927   0.021  0.6786  0.3386 -0.3597
27921SOL    HW185437   6.232   2.987   0.096  1.9395  0.5972 -0.4329
27921SOL    HW285438   6.204   2.977  -0.053  1.9378  1.0888 -0.4654
27922SOL     OW85439   9.225   7.708   3.156  0.3505  0.2166  0.0487
27922SOL    HW185440   9.227   7.662   3.239  0.2009 -2.1862 -1.1801
27922SOL    HW285441   9.310   7.689   3.115 -0.1438  0.0947 -0.9664
27923SOL     OW85442   3.192   2.299   7.241  0.2131  0.1736 -0.2196
27923SOL    HW185443   3.214   2.209   7.264  1.8840  0.4462 -0.5722
27923SOL    HW285444   3.098   2.297   7.223  0.5487 -2.0106 -2.3828
27924SOL     OW85445   1.694   2.487   5.741  0.0923  0.2578 -0.0518
27924SOL    HW185446   1.694   2.417   5.676  1.3424  0.8062 -0.6916
27924SOL    HW285447   1.618   2.469   5.797 -1.3928  0.0804 -2.0068
27925SOL     OW85448   6.690   2.072   0.234  0.0810 -0.5530 -0.0004
27925SOL    HW185449   6.644   2.090   0.152  0.1734  0.4373  0.1590
27925SOL    HW285450   6.719   1.981   0.226  1.5931  0.0274 -1.7952
27926SOL     OW85451   3.937   6.127   1.674 -0.0889  0.0315 -0.1328
27926SOL    HW185452   3.921   6.115   1.768 -3.3476  0.6394 -0.4822
27926SOL    HW285453   3.896   6.211   1.654  0.7129  0.0007 -2.1114
27927SOL     OW85454   8.575   4.564   9.314 -0.2281  0.0357  0.0598
27927SOL    HW185455   8.642   4.510   9.356 -0.6683  0.0597  0.8059
27927SOL    HW285456   8.624   4.619   9.252  0.7482  1.5623  2.0905
27928SOL     OW85457   5.731   1.181   3.996 -0.1884 -0.1622 -0.6586
27928SOL    HW185458   5.642   1.167   4.030 -0.2900  1.2179 -0.2940
27928SOL    HW285459   5.763   1.093   3.977 -2.1332 -0.6306 -2.1251
27929SOL     OW85460   6.626   9.262   1.535  0.3117  0.3531 -0.1522
27929SOL    HW185461   6.638   9.282   1.628 -1.7256  2.3730 -0.2303
27929SOL    HW285462   6.702   9.301   1.492  0.0989  1.5107  0.4707
27930SOL     OW85463   1.050   4.183   2.668 -0.3047 -0.0079 -0.0574
27930SOL    HW185464   1.124   4.151   2.720  0.1914 -0.8300 -1.2260
27930SOL    HW285465   0.997   4.232   2.731  2.4337  2.7744  0.3752
27931SOL     OW85466   9.230   8.628   3.658 -0.4517  0.1616 -0.1429
27931SOL    HW185467   9.241   8.532   3.660  0.6351  0.1839 -2.2631
27931SOL    HW285468   9.287   8.657   3.587 -0.0982  2.5053  0.9907
27932SOL     OW85469   4.476   1.529   7.732  0.6276  0.1516  0.2427
27932SOL    HW185470   4.558   1.546   7.686  0.6021  1.3964  0.6079
27932SOL    HW285471   4.503   1.498   7.819  0.7013 -0.1723  0.1040
27933SOL     OW85472   9.493   7.107   8.370  0.3128  0.7893 -0.0849
27933SOL    HW185473   9.449   7.188   8.398 -1.4977  0.1847 -1.0086
27933SOL    HW285474   9.505   7.057   8.451  1.3138  1.8789  0.4750
27934SOL     OW85475   7.456   4.940   0.015  0.1964 -0.0035  0.4817
27934SOL    HW185476   7.464   4.914   0.107  2.5559 -2.7255 -0.3399
27934SOL    HW285477   7.535   4.991  -0.002  1.0509 -1.5715 -0.5318
27935SOL     OW85478   7.313   4.029   3.462 -0.1642  0.2917  0.3464
27935SOL    HW185479   7.291   4.026   3.555 -2.0311 -0.7610 -0.0856
27935SOL    HW285480   7.340   3.940   3.441 -1.6548  0.0232 -0.5184
27936SOL     OW85481   6.928   5.038   5.902 -0.4927 -0.2764  0.2673
27936SOL    HW185482   6.970   5.107   5.851 -2.2724 -0.3355 -1.3917
27936SOL    HW285483   6.971   4.958   5.874 -2.6393 -0.5510 -2.7115
27937SOL     OW85484   4.597   3.216   9.254  0.6626  0.6775 -0.3925
27937SOL    HW185485   4.517   3.200   9.304  1.4704 -0.4805  0.5769
27937SOL    HW285486   4.667   3.181   9.309  1.8189  1.4380 -1.3347
27938SOL     OW85487   2.790   4.228   7.195  0.2468  0.8579  0.7397
27938SOL    HW185488   2.745   4.208   7.277 -0.3745  0.2691  0.2716
27938SOL    HW285489   2.863   4.167   7.192  0.2071  0.8065  0.8146
27939SOL     OW85490   5.715   0.123   5.267 -0.4082  0.1438  0.0060
27939SOL    HW185491   5.783   0.165   5.215  0.3775  0.0610  0.9390
27939SOL    HW285492   5.722   0.030   5.244  0.9341 -0.1151  1.3068
27940SOL     OW85493   5.217   4.159   7.748 -0.2047  0.0935 -0.0979
27940SOL    HW185494   5.306   4.152   7.780 -0.4802  0.2528  0.7202
27940SOL    HW285495   5.172   4.082   7.784 -0.1952 -0.4517 -1.2050
27941SOL     OW85496   6.601   7.413   3.575 -0.3153  0.1810 -0.1365
27941SOL    HW185497   6.621   7.500   3.612 -0.4660 -0.1548  0.7638
27941SOL    HW285498   6.664   7.403   3.504 -0.5162  1.1684 -0.4812
27942SOL     OW85499   6.157   8.289   8.054  0.0415  0.4310 -0.2392
27942SOL    HW185500   6.213   8.244   7.991  0.9570  0.8259  0.2826
27942SOL    HW285501   6.154   8.380   8.023  0.2160  0.5498  0.0857
27943SOL     OW85502   0.849   9.140   5.194  0.6083 -0.3517  0.0950
27943SOL    HW185503   0.907   9.088   5.249 -1.0746 -1.5412  0.8342
27943SOL    HW285504   0.832   9.085   5.117 -1.0223 -0.8923  0.7865
27944SOL     OW85505   3.926   8.341   0.025 -0.1001 -0.7835 -0.1608
27944SOL    HW185506   3.847   8.297   0.055 -1.1869  0.4631 -1.0777
27944SOL    HW285507   3.914   8.433   0.050  1.3339 -0.6622  0.1975
27945SOL     OW85508   9.269   3.650   5.487  0.1662  0.5514 -0.2270
27945SOL    HW185509   9.203   3.710   5.453 -2.0133 -1.0311  0.9158
27945SOL    HW285510   9.296   3.598   5.411 -2.1008 -0.6701 -0.2969
27946SOL     OW85511   5.556   3.007   0.201  0.1512  0.0415 -0.1672
27946SOL    HW185512   5.468   3.044   0.213 -1.0182 -2.1087 -1.6175
27946SOL    HW285513   5.555   2.926   0.251  1.4504  0.1255  0.0299
27947SOL     OW85514   2.918   1.994   1.841 -0.3871  0.3668  0.1025
27947SOL    HW185515   2.932   2.086   1.822 -0.2307  0.3279  0.0299
27947SOL    HW285516   2.829   1.976   1.811 -0.0552  0.2435 -0.8222
27948SOL     OW85517   3.433   8.386   3.350  0.7310  0.0656  0.0314
27948SOL    HW185518   3.522   8.420   3.337  1.1568 -0.9137  0.3327
27948SOL    HW285519   3.381   8.433   3.285  1.3669  1.0232  0.1866
27949SOL     OW85520   8.356   7.723   6.445  0.0174 -0.4021  0.5222
27949SOL    HW185521   8.282   7.664   6.432  1.3866 -2.4470  1.4611
27949SOL    HW285522   8.328   7.783   6.514 -1.4849  0.2549 -0.6111
27950SOL     OW85523   4.308   4.888   0.610  0.1915  0.5039 -0.1068
27950SOL    HW185524   4.237   4.832   0.641  0.2443  1.1348  1.2221
27950SOL    HW285525   4.265   4.955   0.557  0.0519 -0.3358 -1.0905
27951SOL     OW85526   8.275   7.538   0.051  0.0134 -0.0342 -0.1106
27951SOL    HW185527   8.206   7.574  -0.005  0.6840 -0.3722 -1.1794
27951SOL    HW285528   8.318   7.615   0.088 -1.0609  0.1772  0.7410
27952SOL     OW85529   4.749   4.760   8.999  0.1182  0.5897 -0.3674
27952SOL    HW185530   4.663   4.740   9.038 -0.6138  0.3778 -2.0122
27952SOL    HW285531   4.788   4.824   9.059 -0.9439  0.2675  0.7087
27953SOL     OW85532   6.086   9.095   7.985 -0.9295  0.1559  0.2021
27953SOL    HW185533   6.160   9.051   8.028 -1.3201 -0.3450  0.3813
27953SOL    HW285534   6.025   9.023   7.965 -1.6023  0.6191  0.5370
27954SOL     OW85535   2.580   4.568   7.337  0.8049  0.6476 -0.0869
27954SOL    HW185536   2.538   4.532   7.259  0.2567  0.7999  0.1369
27954SOL    HW285537   2.565   4.502   7.404  0.4481  0.9555  0.1342
27955SOL     OW85538   8.726   5.693   7.863 -0.1267  0.5032  0.0844
27955SOL    HW185539   8.794   5.714   7.799 -1.7274  2.1968 -1.1523
27955SOL    HW285540   8.659   5.647   7.813 -0.3325 -0.3552  1.0972
27956SOL     OW85541   8.636   6.339   4.627 -1.2834 -0.0380 -0.3703
27956SOL    HW185542   8.689   6.357   4.550 -0.9196 -0.3115 -0.1873
27956SOL    HW285543   8.603   6.251   4.613 -1.8299  0.1930 -0.5605
27957SOL     OW85544   3.152   4.876   4.949  0.1830 -0.0007  0.0359
27957SOL    HW185545   3.119   4.951   4.898 -2.3603  0.1469  1.6797
27957SOL    HW285546   3.186   4.816   4.884  1.9282  2.3641 -1.3842
27958SOL     OW85547   2.592   3.804   3.650 -0.2847 -0.2350  0.8493
27958SOL    HW185548   2.560   3.884   3.693  1.5967 -0.1025  2.1605
27958SOL    HW285549   2.555   3.733   3.702 -1.4257 -0.2323  0.0794
27959SOL     OW85550   7.010   7.071   7.579  0.4455  0.1450 -0.2127
27959SOL    HW185551   7.071   7.106   7.644 -0.9983 -0.8084  1.7296
27959SOL    HW285552   7.000   6.979   7.602 -1.6889  0.2627 -0.4900
27960SOL     OW85553   7.494   5.805   8.160  0.2119  0.2117 -0.1862
27960SOL    HW185554   7.401   5.787   8.146 -0.0923  1.1074  0.5540
27960SOL    HW285555   7.532   5.720   8.182  0.0538 -0.6149 -2.7383
27961SOL     OW85556   7.776   9.434   1.303  0.2183  0.2450  0.0953
27961SOL    HW185557   7.864   9.408   1.275  0.1765 -0.1462  0.3217
27961SOL    HW285558   7.740   9.481   1.227  0.3968 -0.1207 -0.2209
27962SOL     OW85559   5.231   9.098   5.723 -0.3161 -0.0612 -0.3023
27962SOL    HW185560   5.248   9.025   5.783 -0.2818  0.5694  0.4584
27962SOL    HW285561   5.230   9.176   5.779 -0.6944  0.4864 -1.0609
27963SOL     OW85562   0.845   0.641   0.174  0.2221  0.1229  0.2285
27963SOL    HW185563   0.911   0.706   0.196  1.0699 -1.1129  1.6105
27963SOL    HW285564   0.869   0.611   0.086  0.7915  0.5418  0.2343
27964SOL     OW85565   3.655   2.322   4.854  0.4973 -0.1627  0.3716
27964SOL    HW185566   3.641   2.399   4.798  1.3439  0.8716  1.5458
27964SOL    HW285567   3.634   2.352   4.942 -0.5314 -1.6981  0.6983
27965SOL     OW85568   5.811   2.073   3.025 -0.1168  0.6744  0.1685
27965SOL    HW185569   5.818   1.999   3.085 -2.1827 -0.1447 -0.5088
27965SOL    HW285570   5.897   2.115   3.029  1.0762 -1.6243  0.7313
27966SOL     OW85571   5.808   3.850   1.102  0.3796 -0.2827 -0.2293
27966SOL    HW185572   5.853   3.933   1.088 -0.0800  0.1874  0.9473
27966SOL    HW285573   5.717   3.868   1.079  0.3493 -0.5724 -0.3406
27967SOL     OW85574   0.619   8.340   3.110  0.1959 -0.0743  0.3604
27967SOL    HW185575   0.528   8.329   3.136  0.1907 -1.1456 -0.0553
27967SOL    HW285576   0.615   8.374   3.020  0.2185  2.5278  1.2801
27968SOL     OW85577   7.082   1.311   2.395 -0.0948  0.3770  0.5996
27968SOL    HW185578   7.103   1.249   2.465 -0.5373 -2.2047 -1.4123
27968SOL    HW285579   7.165   1.353   2.374  1.0115 -2.0354 -0.1873
27969SOL     OW85580   7.563   0.331   7.952  1.0103  0.1489  0.3719
27969SOL    HW185581   7.558   0.278   8.031 -1.2191 -1.3476 -0.6754
27969SOL    HW285582   7.480   0.378   7.949  0.5681 -0.6736 -1.6024
27970SOL     OW85583   3.549   2.972   7.398  0.2387  0.0975 -0.0266
27970SOL    HW185584   3.533   3.047   7.455 -0.6418  0.1120 -0.2861
27970SOL    HW285585   3.643   2.977   7.378  0.3495  0.6602  0.6066
27971SOL     OW85586   2.537   1.074   9.070 -0.0951  0.5291 -0.1250
27971SOL    HW185587   2.524   1.056   8.977  0.0258  0.0391 -0.0540
27971SOL    HW285588   2.462   1.128   9.096 -1.2141 -0.9792 -0.0581
27972SOL     OW85589   7.158   6.505   0.419  0.0345 -0.5016 -0.6986
27972SOL    HW185590   7.083   6.512   0.360 -1.7388 -0.4456  1.4038
27972SOL    HW285591   7.206   6.429   0.387 -0.4374 -0.0654 -2.5984
27973SOL     OW85592   7.446   4.246   7.038  0.3446  0.6561  0.2145
27973SOL    HW185593   7.440   4.255   7.133 -2.3843 -0.6855  0.2665
27973SOL    HW285594   7.483   4.159   7.025 -0.3024  0.3881  0.1012
27974SOL     OW85595   7.529   4.566   9.565 -0.3249 -0.0129  0.3031
27974SOL    HW185596   7.577   4.501   9.513 -0.5760 -0.6699  0.8719
27974SOL    HW285597   7.596   4.627   9.594  0.0806 -0.5864  0.5933
27975SOL     OW85598   5.825   6.077   0.491 -0.0439 -0.0421 -0.0343
27975SOL    HW185599   5.866   6.087   0.406 -0.5124  0.5082 -0.2027
27975SOL    HW285600   5.772   5.997   0.483  1.4454 -1.1220  0.3866
27976SOL     OW85601   1.118   7.367   5.169  1.0644 -0.2497 -0.7042
27976SOL    HW185602   1.160   7.283   5.189  0.9307  0.1299  1.4948
27976SOL    HW285603   1.041   7.369   5.227  1.2362  1.4934 -0.4767
27977SOL     OW85604   2.425   6.173   3.094  0.0311 -0.0113 -0.1276
27977SOL    HW185605   2.479   6.138   3.024  0.3660  0.5792 -0.1764
27977SOL    HW285606   2.469   6.255   3.119  1.7542 -1.6784  2.9274
27978SOL     OW85607   1.605   8.081   7.610  0.3618  0.2243 -0.6347
27978SOL    HW185608   1.577   8.067   7.519  0.6284 -0.0460 -0.6767
27978SOL    HW285609   1.700   8.083   7.606  0.3608  2.6699 -0.7129
27979SOL     OW85610   8.815   4.081   8.044  0.7027 -0.0578 -0.4501
27979SOL    HW185611   8.878   4.124   8.101  1.2632  0.4810 -1.4535
27979SOL    HW285612   8.867   4.022   7.990  0.3670  0.4119 -1.3061
27980SOL     OW85613   7.993   3.641   3.059  0.5391  0.1213 -0.1427
27980SOL    HW185614   8.043   3.562   3.080 -0.5445 -0.7652 -0.7694
27980SOL    HW285615   7.979   3.637   2.965 -0.0017  0.7699 -0.1016
27981SOL     OW85616   0.291   3.627   9.332 -0.1380  0.6305 -0.3671
27981SOL    HW185617   0.238   3.702   9.304 -0.5002  0.1136 -1.1159
27981SOL    HW285618   0.358   3.665   9.389 -0.2239  1.5467 -0.8482
27982SOL     OW85619   4.234   4.538   7.276  0.2941  0.4304 -0.0639
27982SOL    HW185620   4.215   4.534   7.182 -0.5045 -3.3903  0.1246
27982SOL    HW285621   4.329   4.553   7.280  0.1236  2.3146 -1.3554
27983SOL     OW85622   2.481   5.721   7.050  0.0636  0.1648 -0.3953
27983SOL    HW185623   2.531   5.683   7.122  0.0703  0.8874 -0.0122
27983SOL    HW285624   2.488   5.657   6.979  1.3331  0.1446 -0.2744
27984SOL     OW85625   3.688   7.128   0.051  0.1861 -0.5897  0.2127
27984SOL    HW185626   3.685   7.056  -0.012  0.9779  1.2598 -2.0668
27984SOL    HW285627   3.607   7.176   0.037  1.1769  0.8799 -0.8090
27985SOL     OW85628   4.464   3.025   8.375 -0.1896  0.7759 -0.0245
27985SOL    HW185629   4.387   2.983   8.412  0.4795 -2.3817 -1.8156
27985SOL    HW285630   4.440   3.045   8.285  0.0497  2.9816  0.3420
27986SOL     OW85631   9.174   5.591   6.075 -0.7034 -0.0456 -0.4486
27986SOL    HW185632   9.171   5.495   6.075 -0.2915 -0.0693 -1.2829
27986SOL    HW285633   9.254   5.612   6.123 -0.1587 -0.1607 -1.2919
27987SOL     OW85634   8.216   5.397   4.076  0.0222  0.0615 -0.3587
27987SOL    HW185635   8.261   5.390   4.160  0.2987  1.3652 -0.3733
27987SOL    HW285636   8.131   5.436   4.098 -0.2307 -0.3647 -0.5851
27988SOL     OW85637   8.464   7.100   7.484 -0.6543  0.4328  0.0072
27988SOL    HW185638   8.385   7.057   7.453 -0.1149 -1.4358  1.0604
27988SOL    HW285639   8.520   7.105   7.406  0.1869 -3.0233  0.2234
27989SOL     OW85640   5.857   7.532   3.881 -0.5727  0.0239  0.1340
27989SOL    HW185641   5.881   7.587   3.956  1.5131 -0.6409  0.0418
27989SOL    HW285642   5.810   7.458   3.920 -0.0386 -0.0108  0.7442
27990SOL     OW85643   4.695   7.550   4.579 -0.4394 -0.6758  0.5404
27990SOL    HW185644   4.669   7.458   4.575 -1.3672 -0.5314  2.3397
27990SOL    HW285645   4.787   7.549   4.605 -0.0373 -1.0844 -0.7924
27991SOL     OW85646   7.015   5.180   0.158 -0.5072 -0.0010 -0.0704
27991SOL    HW185647   6.953   5.173   0.230 -0.8240 -0.2263 -0.3591
27991SOL    HW285648   6.999   5.103   0.104  0.1456 -0.1494 -0.0608
27992SOL     OW85649   8.602   0.276   4.580 -0.0583 -0.9078 -0.1955
27992SOL    HW185650   8.556   0.328   4.646  2.9709  0.3926  1.0862
27992SOL    HW285651   8.609   0.189   4.619  0.1545 -0.6213  0.4162
27993SOL     OW85652   9.114   4.184   0.820  0.4895 -0.2834  0.4264
27993SOL    HW185653   9.058   4.138   0.757 -0.4012 -1.7896  2.2197
27993SOL    HW285654   9.059   4.255   0.854  0.5967 -0.1490  0.3260
27994SOL     OW85655   2.924   3.960   0.412 -0.1817  0.2481  0.1184
27994SOL    HW185656   2.920   4.031   0.476  0.9028 -0.7908  1.3930
27994SOL    HW285657   2.883   3.886   0.456 -0.3388 -0.2220 -0.7892
27995SOL     OW85658   2.808   1.979   4.887 -0.6290 -0.1288  0.4233
27995SOL    HW185659   2.820   2.024   4.970  0.2436 -2.8196  1.8907
27995SOL    HW285660   2.895   1.944   4.866 -1.2277 -1.0753 -0.6200
27996SOL     OW85661   5.617   0.443   7.202 -0.0796 -0.5372 -0.4891
27996SOL    HW185662   5.628   0.397   7.119 -0.5326 -1.2432 -0.1632
27996SOL    HW285663   5.600   0.534   7.177 -0.0291 -0.7105 -1.1635
27997SOL     OW85664   7.499   3.896   2.138  0.4934 -0.4964  0.1505
27997SOL    HW185665   7.404   3.911   2.134  0.5060 -0.6215 -0.9750
27997SOL    HW285666   7.511   3.838   2.213 -0.4351 -1.2489 -0.2570
27998SOL     OW85667   1.291   8.991   0.932  0.2009 -0.0901 -0.5339
27998SOL    HW185668   1.252   9.032   1.010 -0.2889 -0.7283 -0.4356
27998SOL    HW285669   1.385   9.000   0.946  0.1148  1.1367 -0.5914
27999SOL     OW85670   0.189   2.287   5.654  0.5753  0.3806  0.2438
27999SOL    HW185671   0.224   2.341   5.582 -0.2399  0.4046 -0.1433
27999SOL    HW285672   0.152   2.350   5.716  2.4990  0.4590  1.3965
28000SOL     OW85673   2.571   5.870   2.058 -0.5948 -0.2714 -0.0168
28000SOL    HW185674   2.480   5.895   2.072 -1.0717 -1.7099 -0.4168
28000SOL    HW285675   2.611   5.870   2.145 -1.1347 -0.2361  0.2296
28001SOL     OW85676   2.739   2.908   6.476  0.1172  0.3805 -0.1919
28001SOL    HW185677   2.804   2.870   6.536  1.0956  2.0052 -0.1528
28001SOL    HW285678   2.663   2.924   6.532  1.0971  2.0906  0.7583
28002SOL     OW85679   6.635   6.527   7.782 -0.3377 -0.2078 -0.1588
28002SOL    HW185680   6.631   6.608   7.730 -1.1006  0.1788  0.4823
28002SOL    HW285681   6.637   6.557   7.873  0.1952 -0.9013  0.0674
28003SOL     OW85682   8.627   8.741   4.863 -0.0121  0.5541 -0.0463
28003SOL    HW185683   8.554   8.794   4.893 -1.1147 -1.1849  0.4742
28003SOL    HW285684   8.695   8.805   4.839 -2.0067  2.2760 -1.5105
28004SOL     OW85685   9.033   2.284   0.180 -0.4403  0.7065 -0.4082
28004SOL    HW185686   9.104   2.221   0.168  0.4110  1.8809 -1.9810
28004SOL    HW285687   8.960   2.233   0.214  0.2363 -1.1029 -1.5408
28005SOL     OW85688   4.091   1.426   2.504  0.1464  0.6917  0.4210
28005SOL    HW185689   4.152   1.489   2.464  0.6953 -0.7463 -1.1217
28005SOL    HW285690   4.146   1.365   2.552 -0.2215  0.3759  0.4513
28006SOL     OW85691   6.458   7.818   3.408  0.3188 -0.2232 -0.0607
28006SOL    HW185692   6.451   7.738   3.460 -1.0039  0.3620  0.7152
28006SOL    HW285693   6.473   7.887   3.473 -0.1349  0.3576 -0.5693
28007SOL     OW85694   8.664   3.902   8.271 -0.2595  0.0484 -0.1116
28007SOL    HW185695   8.717   3.946   8.205  1.7648 -2.0663 -0.0390
28007SOL    HW285696   8.608   3.843   8.221  1.4546 -1.7439 -0.0632
28008SOL     OW85697   3.695   8.472   3.345  0.0708 -0.3495 -0.1875
28008SOL    HW185698   3.771   8.414   3.343  0.0889 -0.4174  1.3617
28008SOL    HW285699   3.729   8.555   3.378 -0.7080 -0.7266  1.6726
28009SOL     OW85700   1.506   1.756   0.372 -0.7212  0.2297  0.1730
28009SOL    HW185701   1.467   1.694   0.434 -2.1223  0.9906  0.0862
28009SOL    HW285702   1.511   1.707   0.289 -4.1327  0.8997 -0.5563
28010SOL     OW85703   2.354   3.239   7.466 -0.1518 -0.5367  0.4160
28010SOL    HW185704   2.328   3.261   7.376  3.4851 -2.1652 -1.2216
28010SOL    HW285705   2.350   3.323   7.513 -0.2356  0.7786 -1.8036
28011SOL     OW85706   7.627   4.623   8.358  0.0185 -0.2271 -0.0620
28011SOL    HW185707   7.689   4.565   8.315 -0.9794 -0.0041 -1.8766
28011SOL    HW285708   7.562   4.564   8.397  1.5391 -0.4914  2.3019
28012SOL     OW85709   8.191   0.529   3.773  0.4698 -0.1331  0.2429
28012SOL    HW185710   8.236   0.613   3.771 -0.9323  0.6435  0.0018
28012SOL    HW285711   8.224   0.482   3.696 -0.5276  1.1987 -1.0482
28013SOL     OW85712   8.898   0.530   4.379 -0.5259 -0.0695  0.1528
28013SOL    HW185713   8.894   0.508   4.472  0.3806  1.5901  0.6150
28013SOL    HW285714   8.821   0.584   4.364 -0.2971  0.2408  0.0980
28014SOL     OW85715   6.220   2.969   4.823  0.2334 -0.8391  0.0437
28014SOL    HW185716   6.139   2.942   4.781 -0.2160  2.1282 -1.2477
28014SOL    HW285717   6.276   2.892   4.821 -1.7157 -2.2908 -1.1313
28015SOL     OW85718   3.556   2.702   4.286  0.2465  0.1346 -0.6444
28015SOL    HW185719   3.498   2.680   4.213  1.6459 -0.1694 -1.6962
28015SOL    HW285720   3.644   2.701   4.248  0.8206  2.6700  0.4041
28016SOL     OW85721   1.626   3.651   8.148 -0.0269 -0.0737 -0.6359
28016SOL    HW185722   1.608   3.564   8.112  0.2542 -1.0893  1.5017
28016SOL    HW285723   1.544   3.677   8.190  0.8511 -0.9053  1.7253
28017SOL     OW85724   6.925   8.554   5.675  0.0980  0.7119 -0.0421
28017SOL    HW185725   6.846   8.546   5.729  1.5153 -0.9189  1.9621
28017SOL    HW285726   6.940   8.465   5.642 -0.9320  1.7193 -3.6337
28018SOL     OW85727   6.819   6.701   4.657  0.1139 -0.3634 -0.1480
28018SOL    HW185728   6.741   6.744   4.623 -0.1234 -0.7426 -0.0966
28018SOL    HW285729   6.786   6.647   4.730  0.3507 -0.8590 -0.4044
28019SOL     OW85730   8.322   4.791   1.899  0.3877  0.2429  0.2874
28019SOL    HW185731   8.366   4.718   1.942  1.1391  0.4584 -0.1120
28019SOL    HW285732   8.345   4.783   1.807  0.1273  0.7382  0.1738
28020SOL     OW85733   4.418   1.974   5.093  0.2702 -0.3796 -0.2856
28020SOL    HW185734   4.389   1.990   5.183  0.7340 -1.2903  0.0394
28020SOL    HW285735   4.475   2.048   5.072 -0.0611 -0.0212  0.0634
28021SOL     OW85736   8.441   6.327   2.084  0.2635  0.4118 -0.2701
28021SOL    HW185737   8.365   6.278   2.052  0.2833 -0.9214  1.5551
28021SOL    HW285738   8.513   6.300   2.026  0.4250 -2.3741  1.0610
28022SOL     OW85739   6.295   5.496   0.051 -0.7089  0.1885  0.3367
28022SOL    HW185740   6.209   5.520   0.017 -1.0866 -0.7691  0.5837
28022SOL    HW285741   6.289   5.403   0.069  0.4420  0.0638  0.1974
28023SOL     OW85742   3.454   5.627   3.903 -0.8649 -0.6326 -0.1179
28023SOL    HW185743   3.517   5.622   3.976  0.9101 -3.7346 -1.6180
28023SOL    HW285744   3.500   5.677   3.836 -1.5405  0.2247  0.0509
28024SOL     OW85745   2.516   5.577   0.504 -0.3468 -0.5604 -0.2616
28024SOL    HW185746   2.422   5.588   0.496 -0.1917  1.1342 -0.1431
28024SOL    HW285747   2.536   5.499   0.453 -1.4442  0.7511 -2.8350
28025SOL     OW85748   0.452   2.675   2.057  0.1958 -0.6740 -0.0842
28025SOL    HW185749   0.475   2.762   2.024  0.4887 -1.3045 -1.6246
28025SOL    HW285750   0.366   2.686   2.097  0.4118  0.3960  0.1103
28026SOL     OW85751   5.904   8.304   7.676  0.7048 -1.1992 -0.1389
28026SOL    HW185752   5.975   8.342   7.625 -0.3698  0.8799 -0.1888
28026SOL    HW285753   5.852   8.254   7.613 -1.2893  2.2991 -1.5614
28027SOL     OW85754   5.543   0.155   2.839 -0.2298  0.2644 -0.0045
28027SOL    HW185755   5.489   0.163   2.918 -1.4065  0.7400 -0.8123
28027SOL    HW285756   5.516   0.230   2.785  2.1697  1.2459  0.0590
28028SOL     OW85757   7.489   5.309   3.304 -0.0121 -0.4795 -0.0749
28028SOL    HW185758   7.425   5.267   3.246 -0.3787 -0.9076  0.6309
28028SOL    HW285759   7.438   5.372   3.354  0.1060 -0.8584  0.5307
28029SOL     OW85760   6.353   8.823   2.702 -0.0242 -0.1559  0.3392
28029SOL    HW185761   6.439   8.804   2.740 -0.8224 -0.3810  2.1069
28029SOL    HW285762   6.366   8.906   2.656  1.1234 -0.1693  0.5910
28030SOL     OW85763   3.745   1.682   1.977 -0.1058  0.0548  0.7988
28030SOL    HW185764   3.732   1.600   2.024 -1.7461  0.3286  0.8632
28030SOL    HW285765   3.729   1.750   2.042 -0.6023  0.4270  0.2950
28031SOL     OW85766   3.726   7.089   2.060  0.7154  0.4043 -0.9769
28031SOL    HW185767   3.702   7.106   1.969  1.9318 -0.3755 -1.4694
28031SOL    HW285768   3.820   7.104   2.063  1.1489 -1.9784 -0.4743
28032SOL     OW85769   3.342   3.405   7.108  0.2147  0.1359 -0.6877
28032SOL    HW185770   3.323   3.448   7.025 -1.5544  4.2084  1.5028
28032SOL    HW285771   3.427   3.440   7.135  0.0093  0.1623 -0.0526
28033SOL     OW85772   9.391   5.153   2.645 -0.3907 -0.4029  0.1205
28033SOL    HW185773   9.314   5.191   2.687 -0.8697 -1.3926  0.1675
28033SOL    HW285774   9.362   5.129   2.557  0.1332  0.0794 -0.1956
28034SOL     OW85775   8.346   1.632   0.505  0.3084  0.1074  0.3324
28034SOL    HW185776   8.266   1.617   0.556  0.6397 -0.0006  0.8263
28034SOL    HW285777   8.324   1.602   0.417  0.3637 -1.5859  0.8570
28035SOL     OW85778   4.096   8.925   5.919 -1.1922  0.4883 -0.5482
28035SOL    HW185779   4.143   8.973   5.987 -1.6112  0.6241 -0.3479
28035SOL    HW285780   4.147   8.940   5.839 -1.1233  0.9765 -0.4185
28036SOL     OW85781   4.202   2.476   6.912 -0.5744 -0.2262  0.2431
28036SOL    HW185782   4.166   2.392   6.941 -0.2431 -0.7038 -0.6952
28036SOL    HW285783   4.125   2.530   6.895 -0.8018  0.3284  2.6138
28037SOL     OW85784   1.026   5.487   1.415  0.6319  0.4237  0.2754
28037SOL    HW185785   0.998   5.397   1.399  0.0325  0.4789  0.9605
28037SOL    HW285786   1.119   5.480   1.436 -0.0249 -0.4418  3.3757
28038SOL     OW85787   2.341   0.886   7.411  0.0716  0.1043 -0.0365
28038SOL    HW185788   2.426   0.918   7.378  0.9713 -1.2156  0.8884
28038SOL    HW285789   2.288   0.965   7.421  1.8831  1.2425  1.2665
28039SOL     OW85790   4.310   5.158   5.351 -0.7217  0.0277 -0.2741
28039SOL    HW185791   4.355   5.093   5.406 -1.8749  1.1113  2.1265
28039SOL    HW285792   4.232   5.113   5.319 -1.4250  0.1213  1.2312
28040SOL     OW85793   2.325   2.422   1.155  0.8167  0.5130  0.2908
28040SOL    HW185794   2.298   2.499   1.104 -1.4935 -0.8090 -0.6012
28040SOL    HW285795   2.400   2.386   1.107  0.6770  1.0827 -0.3629
28041SOL     OW85796   7.643   0.300   1.887 -0.3870 -0.5622 -0.2809
28041SOL    HW185797   7.596   0.331   1.809 -1.5273  0.0200  0.6086
28041SOL    HW285798   7.580   0.309   1.958  1.0681  0.2553  0.9767
28042SOL     OW85799   3.290   8.018   4.562  0.3283  0.3703  0.0690
28042SOL    HW185800   3.228   8.091   4.553 -0.9715 -0.3332  2.5841
28042SOL    HW285801   3.353   8.033   4.492 -1.5123  2.2749 -1.3394
28043SOL     OW85802   3.972   0.891   4.075 -0.2827  0.2398 -0.5010
28043SOL    HW185803   4.023   0.965   4.043 -0.0520  0.3377  0.0782
28043SOL    HW285804   3.896   0.931   4.117  0.3918  0.2289  0.8099
28044SOL     OW85805   4.682   0.371   8.023  0.0984 -0.0597  0.0397
28044SOL    HW185806   4.642   0.288   8.049  0.6038 -0.3887 -0.2072
28044SOL    HW285807   4.644   0.435   8.082  0.5209 -0.6439  0.9654
28045SOL     OW85808   3.571   8.160   1.444 -0.1240 -0.5221  0.2941
28045SOL    HW185809   3.657   8.194   1.419 -0.2543 -1.1019 -1.0173
28045SOL    HW285810   3.538   8.223   1.508  0.7174  0.4232 -0.1734
28046SOL     OW85811   4.500   8.507   4.314 -0.0098  0.3926  0.6333
28046SOL    HW185812   4.404   8.515   4.318  0.1322  2.8253  0.4749
28046SOL    HW285813   4.523   8.531   4.224  0.8147  0.6999  0.9191
28047SOL     OW85814   6.769   5.823   1.417 -0.1952  0.0915 -0.0509
28047SOL    HW185815   6.736   5.751   1.362  0.2835 -0.7255  0.7088
28047SOL    HW285816   6.699   5.838   1.480  0.4493 -1.0103  0.9734
28048SOL     OW85817   5.854   8.067   5.639 -0.4027 -0.3574 -0.1620
28048SOL    HW185818   5.843   7.974   5.658 -1.5320 -0.1245  0.3832
28048SOL    HW285819   5.807   8.112   5.709 -0.9434  0.6081 -1.1156
28049SOL     OW85820   6.102   2.736   7.481 -0.7034  0.7900  0.5636
28049SOL    HW185821   6.041   2.809   7.486 -0.8219  0.6302  1.5785
28049SOL    HW285822   6.086   2.685   7.560  0.9248  0.8947  0.9980
28050SOL     OW85823   5.337   0.775   0.038  0.3911 -0.3333  0.8926
28050SOL    HW185824   5.350   0.744  -0.052  1.9806 -1.6647  1.5303
28050SOL    HW285825   5.397   0.722   0.090  2.4962  3.0537  2.2644
28051SOL     OW85826   4.603   5.622   4.912  0.0311  0.3651  0.0825
28051SOL    HW185827   4.677   5.682   4.924  1.0299 -0.4659 -1.5746
28051SOL    HW285828   4.633   5.540   4.952 -0.2569  0.2057 -0.0287
28052SOL     OW85829   6.766   4.501   3.962  0.2456  0.4191 -0.1043
28052SOL    HW185830   6.672   4.501   3.943 -0.1814  1.0111  1.7320
28052SOL    HW285831   6.773   4.453   4.045  1.6738 -0.2484 -0.5809
28053SOL     OW85832   2.850   6.068   4.474 -0.1002 -0.4589 -0.5275
28053SOL    HW185833   2.853   6.158   4.442  0.2999 -0.2363  0.1331
28053SOL    HW285834   2.941   6.038   4.470 -0.3343 -1.1088 -1.4949
28054SOL     OW85835   3.966   0.010   4.720  0.3342 -0.7050  0.1840
28054SOL    HW185836   3.969  -0.068   4.664  2.2887  1.2013 -2.6753
28054SOL    HW285837   3.877   0.011   4.754 -1.0278 -2.1425 -2.8903
28055SOL     OW85838   6.512   2.390   7.379  0.5719 -0.2790  0.7358
28055SOL    HW185839   6.442   2.360   7.437  1.8103  0.9551  3.0346
28055SOL    HW285840   6.518   2.484   7.396  2.0512 -0.1651 -0.2458
28056SOL     OW85841   3.257   1.196   1.368 -0.0124 -0.1335  0.5826
28056SOL    HW185842   3.296   1.109   1.359 -0.2019 -0.1137 -0.6398
28056SOL    HW285843   3.163   1.182   1.353  0.1191  0.4453 -1.0158
28057SOL     OW85844   2.228   6.620   5.397 -0.2568 -0.3443 -0.3251
28057SOL    HW185845   2.306   6.572   5.369  0.5296 -0.3326  1.6685
28057SOL    HW285846   2.237   6.707   5.356  1.4530  0.0730  0.8185
28058SOL     OW85847   7.466   7.034   4.600  0.0170  0.1516  0.4433
28058SOL    HW185848   7.478   6.992   4.685  1.4398  0.9721  0.6808
28058SOL    HW285849   7.440   7.124   4.621  0.2529  0.3248  0.0130
28059SOL     OW85850   4.417   9.186   6.147 -0.6183 -0.2129  0.3157
28059SOL    HW185851   4.322   9.187   6.152 -0.6293 -0.9060  0.2732
28059SOL    HW285852   4.439   9.106   6.100 -0.0743  0.7992 -1.2440
28060SOL     OW85853   6.976   6.295   8.468  0.4121  0.5186 -0.0232
28060SOL    HW185854   7.005   6.358   8.534 -1.7298  0.4616  1.0627
28060SOL    HW285855   7.024   6.319   8.389  2.3296  1.2049  1.2789
28061SOL     OW85856   7.432   9.291   8.712  0.1456 -0.1194 -0.0997
28061SOL    HW185857   7.427   9.300   8.617  1.4815 -0.2178 -0.1924
28061SOL    HW285858   7.445   9.197   8.725 -1.1731 -0.2819  0.2619
28062SOL     OW85859   4.790   2.659   2.490 -0.1099  0.9398 -0.1753
28062SOL    HW185860   4.832   2.739   2.523  1.3453  0.1267  0.0491
28062SOL    HW285861   4.786   2.601   2.565 -1.5253  0.9215 -0.2460
28063SOL     OW85862   4.428   1.867   2.611  0.2422  0.3880 -0.5829
28063SOL    HW185863   4.465   1.875   2.523 -0.4675  1.6149 -0.7916
28063SOL    HW285864   4.355   1.806   2.601  0.9254 -0.4412 -0.5827
28064SOL     OW85865   7.655   5.650   0.877  0.5205  0.6431  0.3442
28064SOL    HW185866   7.724   5.619   0.820  2.0288  0.5702  2.1139
28064SOL    HW285867   7.599   5.574   0.891  1.1770  0.1685  0.4101
28065SOL     OW85868   6.638   0.336   6.675 -0.5593 -0.1519 -0.2235
28065SOL    HW185869   6.590   0.392   6.614 -2.1069  0.3601  1.3541
28065SOL    HW285870   6.644   0.251   6.630 -1.1794  0.3449 -1.2870
28066SOL     OW85871   6.375   7.532   1.952 -0.2027  0.1688  0.1280
28066SOL    HW185872   6.447   7.520   1.891 -0.5272  1.7366 -0.6124
28066SOL    HW285873   6.299   7.550   1.897 -0.4164  2.0582  0.9662
28067SOL     OW85874   6.561   2.312   0.688 -0.4374  0.1317  0.1888
28067SOL    HW185875   6.522   2.268   0.764 -0.3995  0.6605  0.5257
28067SOL    HW285876   6.487   2.333   0.631 -0.4726 -0.2155  0.1018
28068SOL     OW85877   7.063   6.088   4.354 -0.4813  0.2471  0.3385
28068SOL    HW185878   6.987   6.124   4.309 -0.5257 -0.3781 -0.1049
28068SOL    HW285879   7.038   5.998   4.373  0.2992 -0.0835 -0.1755
28069SOL     OW85880   7.544   7.580   3.931  0.2492  0.2626 -0.3747
28069SOL    HW185881   7.543   7.587   4.027 -0.3014 -1.6115 -0.2080
28069SOL    HW285882   7.542   7.671   3.901 -1.9644  0.9011  1.3821
28070SOL     OW85883   5.713   0.354   9.381  0.5787 -0.7357 -0.4561
28070SOL    HW185884   5.770   0.362   9.458 -0.2048 -0.0614  0.0693
28070SOL    HW285885   5.638   0.304   9.412 -0.5847  1.0410 -0.2657
28071SOL     OW85886   7.061   3.204   8.587  0.3999  0.3646 -0.4743
28071SOL    HW185887   7.132   3.144   8.610  0.8101  0.3852 -1.6052
28071SOL    HW285888   7.037   3.178   8.498  0.3615  1.6637 -0.8579
28072SOL     OW85889   0.575   6.067   3.286 -0.4458 -0.3161 -0.3137
28072SOL    HW185890   0.629   6.130   3.238  0.6951 -0.0567  1.2306
28072SOL    HW285891   0.560   5.996   3.224 -1.1783  1.1441 -1.8708
28073SOL     OW85892   5.535   7.749   4.578 -0.1572 -0.2169  0.4768
28073SOL    HW185893   5.478   7.820   4.607 -1.2056 -0.9107  0.2070
28073SOL    HW285894   5.606   7.746   4.642 -0.6584  0.3970  1.0671
28074SOL     OW85895   1.508   7.574   0.795 -0.1529  0.6795  0.3806
28074SOL    HW185896   1.589   7.577   0.744  1.9955 -2.9518  3.0315
28074SOL    HW285897   1.525   7.631   0.870  0.5627 -0.9200  1.5032
28075SOL     OW85898   6.942   5.485   6.796 -0.1951 -0.7655 -0.2997
28075SOL    HW185899   7.018   5.523   6.752 -1.7580  1.2728 -1.4464
28075SOL    HW285900   6.920   5.548   6.865 -0.3227 -1.7799  0.6120
28076SOL     OW85901   1.324   6.300   1.978  0.1764  0.1020  0.7903
28076SOL    HW185902   1.409   6.271   2.012  1.4928  1.2697 -1.2953
28076SOL    HW285903   1.328   6.395   1.981 -0.6866  0.1816 -0.1907
28077SOL     OW85904   3.610   2.536   2.340 -0.2520 -1.1508 -0.1923
28077SOL    HW185905   3.604   2.572   2.428  0.3704  0.9368 -0.9470
28077SOL    HW285906   3.550   2.590   2.288 -0.5147 -2.2684 -1.0812
28078SOL     OW85907   5.567   8.265   2.732  0.3589 -0.5230  0.3439
28078SOL    HW185908   5.564   8.199   2.802  1.6036 -0.1832  0.7433
28078SOL    HW285909   5.483   8.310   2.738  2.1912  3.1643  5.2932
28079SOL     OW85910   6.031   5.785   1.158 -0.4947  0.1806 -0.4871
28079SOL    HW185911   6.093   5.856   1.139 -0.6635  0.4466 -0.0467
28079SOL    HW285912   6.019   5.741   1.073  0.9397 -0.3981 -0.4327
28080SOL     OW85913   5.145   2.571   0.775  0.0785  0.5529 -0.2614
28080SOL    HW185914   5.087   2.525   0.714  0.1287 -0.2634  0.2924
28080SOL    HW285915   5.213   2.507   0.796 -1.9371 -0.6345  3.5737
28081SOL     OW85916   2.788   5.645   4.585  0.1383  0.3713 -0.1898
28081SOL    HW185917   2.859   5.581   4.579  1.6158  1.7687  1.3794
28081SOL    HW285918   2.798   5.684   4.672 -1.3938  1.9604 -0.6679
28082SOL     OW85919   8.086   3.334   3.460 -0.0375  0.0780 -0.2385
28082SOL    HW185920   8.048   3.307   3.376  0.3647 -0.7783 -0.1486
28082SOL    HW285921   8.176   3.302   3.458  0.1324  0.4989  0.3151
28083SOL     OW85922   4.808   4.975   9.163  0.4279 -0.6357  0.2711
28083SOL    HW185923   4.855   5.055   9.140  0.4256 -0.6824  0.1085
28083SOL    HW285924   4.838   4.955   9.252 -0.3492  0.1235  0.7195
28084SOL     OW85925   1.320   7.385   8.047 -0.0538 -0.2176 -0.1001
28084SOL    HW185926   1.371   7.348   8.119  0.5254  1.1784  0.2336
28084SOL    HW285927   1.274   7.310   8.009 -0.1862 -1.0023  1.5589
28085SOL     OW85928   9.210   7.840   4.463 -0.0950 -0.3364  0.1212
28085SOL    HW185929   9.212   7.846   4.559 -1.0954 -0.7660  0.1812
28085SOL    HW285930   9.118   7.828   4.442  0.1013 -0.1005 -0.9153
28086SOL     OW85931   4.569   6.698   0.206 -0.1053  0.7306  0.4060
28086SOL    HW185932   4.637   6.762   0.187  0.0257 -0.1677 -2.6362
28086SOL    HW285933   4.493   6.729   0.157  0.1215 -1.6325 -1.6090
28087SOL     OW85934   9.544   3.600   3.446  0.1987 -0.0587  0.2343
28087SOL    HW185935   9.633   3.567   3.459  0.6604  1.0067 -0.0762
28087SOL    HW285936   9.556   3.692   3.422 -1.0363  0.4550  1.4171
28088SOL     OW85937   4.715   7.328   9.044  0.1281  0.2822 -0.6062
28088SOL    HW185938   4.810   7.337   9.032  0.0833  1.8355 -0.0795
28088SOL    HW285939   4.686   7.416   9.068 -1.3160 -0.3713  0.1681
28089SOL     OW85940   1.075   1.781   2.203  0.2453 -0.0106  0.2248
28089SOL    HW185941   1.126   1.750   2.277  2.7823  1.0496 -0.9367
28089SOL    HW285942   1.089   1.876   2.203 -0.1425  0.0710 -1.2930
28090SOL     OW85943   4.825   0.656   8.895 -0.0391  0.3004 -0.4309
28090SOL    HW185944   4.857   0.706   8.820  0.0879  1.9215  0.6701
28090SOL    HW285945   4.854   0.705   8.972 -2.9733  0.5387  0.6661
28091SOL     OW85946   5.375   7.183   5.410  0.0213  0.0003  0.1923
28091SOL    HW185947   5.415   7.268   5.430  0.9184 -0.4744  0.4293
28091SOL    HW285948   5.424   7.120   5.463 -0.4624 -0.7030 -0.1871
28092SOL     OW85949   3.037   0.940   2.532  0.6771 -0.3492  0.0539
28092SOL    HW185950   2.998   0.859   2.565  1.3664 -0.8334 -0.2947
28092SOL    HW285951   3.078   0.980   2.609  2.6413 -1.6841 -0.2257
28093SOL     OW85952   5.290   1.076   2.173  0.7343 -0.0278 -0.7655
28093SOL    HW185953   5.208   1.050   2.214  1.6552 -0.2936  1.0210
28093SOL    HW285954   5.273   1.071   2.079 -1.5252  0.7636 -0.4522
28094SOL     OW85955   7.374   8.524   1.385 -0.3670  0.1102 -0.0459
28094SOL    HW185956   7.307   8.472   1.429  0.6149 -1.2560 -0.0652
28094SOL    HW285957   7.351   8.519   1.292 -1.8650  2.1369  0.1705
28095SOL     OW85958   4.365   9.517   8.984 -0.1207 -0.3925  0.1342
28095SOL    HW185959   4.343   9.427   8.959 -0.2846 -0.2996 -0.0594
28095SOL    HW285960   4.428   9.508   9.055  0.9191 -0.6632 -0.7969
28096SOL     OW85961   8.433   2.372   0.782  0.4327 -0.1195 -0.5679
28096SOL    HW185962   8.447   2.457   0.824 -1.1135  0.3083 -0.8337
28096SOL    HW285963   8.515   2.325   0.793  1.8092  1.9047 -1.5575
28097SOL     OW85964   5.519   5.086   8.984  0.2037 -0.1215 -0.3617
28097SOL    HW185965   5.561   5.047   8.908  1.2887  0.6824 -0.2102
28097SOL    HW285966   5.442   5.032   9.000  1.1218 -1.5923 -0.7316
28098SOL     OW85967   7.286   6.832   3.937 -0.1737 -0.3152  0.3704
28098SOL    HW185968   7.254   6.916   3.970 -2.0604 -0.5518 -0.7032
28098SOL    HW285969   7.290   6.776   4.014  1.1247  0.7317  1.1046
28099SOL     OW85970   2.977   3.741   4.954 -0.0618 -0.0188 -1.1046
28099SOL    HW185971   3.068   3.726   4.977 -0.3424  1.8664  1.6366
28099SOL    HW285972   2.981   3.794   4.874  1.5676  3.9691  1.3136
28100SOL     OW85973   3.893   6.691   6.930 -0.1838  0.0981  0.5486
28100SOL    HW185974   3.960   6.754   6.905 -0.3183  0.0121 -0.0279
28100SOL    HW285975   3.848   6.670   6.849 -0.8738  0.1089  0.9251
28101SOL     OW85976   8.810   1.785   1.642 -0.2171  0.3280  0.0065
28101SOL    HW185977   8.790   1.857   1.583 -0.1182  0.3555  0.0061
28101SOL    HW285978   8.777   1.707   1.597 -1.5576  0.5228  0.6197
28102SOL     OW85979   3.826   2.534   8.963  0.4631  0.3931 -0.2215
28102SOL    HW185980   3.833   2.550   8.869  1.1140  0.5000 -0.1582
28102SOL    HW285981   3.879   2.603   9.003  1.4606 -0.5813  0.1554
28103SOL     OW85982   0.321   7.445   9.433  0.0091  0.2206  0.3625
28103SOL    HW185983   0.262   7.388   9.384  1.6383 -1.2351 -0.0391
28103SOL    HW285984   0.287   7.444   9.522 -0.3902 -0.8945  0.2235
28104SOL     OW85985   8.281   3.924   2.014 -0.0752 -0.3463 -0.1809
28104SOL    HW185986   8.219   3.958   1.950 -1.3246 -0.1948  1.0572
28104SOL    HW285987   8.358   3.981   2.007 -0.9900  0.9111 -0.1736
28105SOL     OW85988   7.941   8.984   3.774  0.0099  1.2514  0.1311
28105SOL    HW185989   8.001   8.917   3.741 -1.9816 -0.5943 -0.0062
28105SOL    HW285990   7.974   9.066   3.738  0.6313 -0.0858 -2.5949
28106SOL     OW85991   1.576   6.954   3.909  0.0708 -0.2864  0.4031
28106SOL    HW185992   1.622   6.870   3.908  0.8498  0.1363 -0.2732
28106SOL    HW285993   1.483   6.930   3.916  0.1847 -1.2518 -1.0585
28107SOL     OW85994   7.075   1.007   8.820 -0.1805 -0.1996 -0.7401
28107SOL    HW185995   7.110   1.094   8.801 -0.5757  0.0210 -0.4570
28107SOL    HW285996   7.034   0.979   8.738  1.6150 -0.9330 -1.4321
28108SOL     OW85997   0.583   7.216   4.917  0.2220  0.5126 -0.4841
28108SOL    HW185998   0.487   7.226   4.918  0.3654  2.3158  0.2475
28108SOL    HW285999   0.614   7.294   4.872  1.4110  0.8874  0.9159
28109SOL     OW86000   9.504   2.249   9.667 -0.0174  0.1448 -0.2209
28109SOL    HW186001   9.574   2.312   9.685 -0.1772  0.1121  0.5653
28109SOL    HW286002   9.503   2.192   9.744 -0.9131  0.1546 -0.2144
28110SOL     OW86003   8.216   5.278   3.830  0.4259  0.5072  0.0052
28110SOL    HW186004   8.213   5.309   3.921  0.4438  0.9900 -0.1519
28110SOL    HW286005   8.165   5.198   3.830 -1.5119  1.6918 -0.0169
28111SOL     OW86006   4.102   7.017   1.245  0.3383 -0.3761  0.5106
28111SOL    HW186007   4.145   6.931   1.241 -0.0054 -0.5165 -0.4651
28111SOL    HW286008   4.152   7.071   1.183  0.5653  0.1416  1.1352
28112SOL     OW86009   2.767   6.263   5.036  0.4520  0.0538 -0.0316
28112SOL    HW186010   2.760   6.172   5.008  1.7355 -0.3988  1.0077
28112SOL    HW286011   2.861   6.281   5.036  0.4484  0.4419  2.5246
28113SOL     OW86012   3.492   3.229   0.699  0.0265  0.4628  0.0664
28113SOL    HW186013   3.478   3.243   0.606 -1.0558  0.8700  0.2819
28113SOL    HW286014   3.441   3.150   0.719 -0.9650  1.2224  0.6026
28114SOL     OW86015   7.514   1.709   2.674 -0.4066 -0.0220 -0.4341
28114SOL    HW186016   7.492   1.799   2.652  1.8479  0.8352  0.4845
28114SOL    HW286017   7.608   1.702   2.657 -0.7823 -2.7229 -2.0582
28115SOL     OW86018   5.689   1.920   6.229 -0.3058 -0.3701 -0.6170
28115SOL    HW186019   5.626   1.960   6.170 -0.6056  0.8657  0.4826
28115SOL    HW286020   5.635   1.883   6.300  0.0574 -1.5903 -0.9458
28116SOL     OW86021   9.280   2.996   2.584  0.3675  0.1629  0.1803
28116SOL    HW186022   9.256   2.979   2.675  1.1429  0.4982  0.4635
28116SOL    HW286023   9.224   3.069   2.558  0.2908  0.2068  0.4604
28117SOL     OW86024   5.350   4.732   6.579 -0.7059 -0.3429  0.1331
28117SOL    HW186025   5.310   4.811   6.615  0.6198  0.1420  0.5912
28117SOL    HW286026   5.431   4.721   6.629 -0.3624 -1.4059 -0.6273
28118SOL     OW86027   3.432   1.846   4.827  0.0314  0.5160 -0.4974
28118SOL    HW186028   3.479   1.929   4.828  0.0407  0.5083 -0.2011
28118SOL    HW286029   3.498   1.780   4.848 -0.0723  0.4846 -0.2644
28119SOL     OW86030   1.310   2.120   9.474  0.0793 -0.4289  0.2695
28119SOL    HW186031   1.299   2.034   9.434 -4.1236 -0.6181  1.4052
28119SOL    HW286032   1.320   2.102   9.568 -1.9313  0.2239  0.6671
28120SOL     OW86033   6.007   8.437   4.915  0.1899 -0.1173  0.5771
28120SOL    HW186034   5.933   8.495   4.896 -0.5569 -1.1175  0.3459
28120SOL    HW286035   6.024   8.392   4.832  0.0377 -1.0280  1.0367
28121SOL     OW86036   8.020   4.397   8.300 -0.3476  0.1163 -0.0119
28121SOL    HW186037   8.000   4.324   8.242  0.2083 -0.0567  0.0019
28121SOL    HW286038   8.115   4.407   8.293 -0.3475  0.4558  0.4393
28122SOL     OW86039   6.097   5.465   6.583  0.0050  0.2077  0.0505
28122SOL    HW186040   6.149   5.521   6.640  0.7993 -0.8422  0.3878
28122SOL    HW286041   6.144   5.463   6.501  0.0062 -0.0139  0.0568
28123SOL     OW86042   7.228   1.569   0.201  0.6698  0.2171 -0.1497
28123SOL    HW186043   7.230   1.559   0.296  2.1023  0.0525 -0.1804
28123SOL    HW286044   7.295   1.510   0.169  0.6141  0.7120 -1.2344
28124SOL     OW86045   5.352   0.721   8.163  0.2061 -0.1589  0.1602
28124SOL    HW186046   5.370   0.810   8.133  1.3322 -0.6744 -0.7860
28124SOL    HW286047   5.361   0.667   8.084 -0.6484 -1.0897  0.6817
28125SOL     OW86048   5.593   0.955   3.210  0.0351  0.1625  0.2799
28125SOL    HW186049   5.687   0.964   3.228  0.3913 -1.5254 -0.5628
28125SOL    HW286050   5.567   0.876   3.258 -0.8841  0.4298  0.2335
28126SOL     OW86051   5.617   4.644   5.160 -0.1251 -0.5280 -0.0685
28126SOL    HW186052   5.596   4.573   5.221  1.1658 -1.8897 -1.1187
28126SOL    HW286053   5.641   4.599   5.079 -1.6451  1.2335 -1.5550
28127SOL     OW86054   2.922   7.295   5.770 -0.3336 -0.1989  0.0158
28127SOL    HW186055   2.871   7.346   5.706 -2.0062 -2.9456 -1.0461
28127SOL    HW286056   2.966   7.360   5.824 -2.8489  2.3553 -0.7740
28128SOL     OW86057   3.385   8.328   0.162  0.2762 -0.3845  0.2153
28128SOL    HW186058   3.311   8.281   0.200  1.2457 -1.7322  0.5164
28128SOL    HW286059   3.373   8.317   0.067 -0.7679  0.8069  0.1870
28129SOL     OW86060   1.756   6.544   4.382  0.5729  0.1505  0.0319
28129SOL    HW186061   1.747   6.633   4.350  0.5836 -0.1838 -0.9245
28129SOL    HW286062   1.816   6.502   4.320  2.7430  0.1995  1.9304
28130SOL     OW86063   0.736   7.569   3.802 -0.0128  0.4944  0.2232
28130SOL    HW186064   0.789   7.620   3.863  1.3438 -1.7026  1.0040
28130SOL    HW286065   0.709   7.492   3.852 -0.0214 -0.7025 -1.5243
28131SOL     OW86066   3.414   9.332   5.031  0.3814 -0.4861 -0.3225
28131SOL    HW186067   3.452   9.420   5.031 -0.2539 -0.2057 -0.4487
28131SOL    HW286068   3.458   9.287   4.959 -0.1893  0.1341 -1.0784
28132SOL     OW86069   4.488   4.991   6.249  0.4008  0.3557 -0.1950
28132SOL    HW186070   4.408   4.961   6.208  0.9473  0.5458 -1.4269
28132SOL    HW286071   4.495   4.938   6.329 -2.3220  2.1613  1.4318
28133SOL     OW86072   0.867   5.821   8.923  0.4685  0.4020 -0.5514
28133SOL    HW186073   0.866   5.749   8.986 -0.9029  0.8823  0.0079
28133SOL    HW286074   0.938   5.798   8.863 -1.2030 -2.5208 -1.6473
28134SOL     OW86075   9.424   9.028   6.194  0.3451 -0.5450  0.3808
28134SOL    HW186076   9.338   9.067   6.180  0.3632 -0.4876  0.4285
28134SOL    HW286077   9.485   9.100   6.180  0.3984 -0.6323  0.1455
28135SOL     OW86078   8.451   3.130   3.174 -0.0347 -0.0164 -0.2963
28135SOL    HW186079   8.459   3.067   3.102 -1.2804  0.3435 -0.7811
28135SOL    HW286080   8.408   3.081   3.244 -0.4779  0.1200 -0.4663
28136SOL     OW86081   2.173   5.691   2.266  0.2798 -0.3417 -0.3140
28136SOL    HW186082   2.164   5.682   2.171  0.4491 -1.5041 -0.2341
28136SOL    HW286083   2.250   5.639   2.289 -0.3780 -0.9496  0.5877
28137SOL     OW86084   7.781   0.473   7.151 -0.2274 -0.1733  0.0078
28137SOL    HW186085   7.728   0.448   7.075  0.6475  0.1996 -0.7413
28137SOL    HW286086   7.832   0.395   7.171  0.1445 -0.0152 -0.3113
28138SOL     OW86087   0.952   0.890   1.535 -0.2865  0.4805  0.2333
28138SOL    HW186088   0.995   0.966   1.495 -0.0513  0.5735  0.6491
28138SOL    HW286089   0.861   0.916   1.545 -0.2581  0.6139  0.1486
28139SOL     OW86090   5.271   3.860   3.108 -0.3170  0.3873 -0.0803
28139SOL    HW186091   5.335   3.869   3.178  0.0246 -1.6783 -0.0862
28139SOL    HW286092   5.190   3.835   3.152 -1.0057  2.2703 -0.1513
28140SOL     OW86093   7.213   8.977   2.900 -0.2801 -0.1271  0.0982
28140SOL    HW186094   7.258   9.036   2.961 -0.2495  0.0440 -0.0921
28140SOL    HW286095   7.207   9.026   2.818 -1.5078  0.1623  0.3335
28141SOL     OW86096   6.364   5.343   8.219  0.7420  0.1629  0.1506
28141SOL    HW186097   6.305   5.372   8.150  0.1422 -0.4587  0.3910
28141SOL    HW286098   6.424   5.282   8.176  0.4888 -0.0770  0.1365
28142SOL     OW86099   5.207   0.603   8.700  0.0046  0.3456  0.0802
28142SOL    HW186100   5.120   0.638   8.684  0.2950  0.8188 -0.4939
28142SOL    HW286101   5.236   0.644   8.782 -0.1422  0.5020  0.0528
28143SOL     OW86102   8.427   5.085   1.561 -0.0675 -0.1521 -0.5759
28143SOL    HW186103   8.442   5.028   1.486 -0.4957 -1.1306  0.0572
28143SOL    HW286104   8.337   5.068   1.587  0.1195  0.0598  0.2478
28144SOL     OW86105   7.161   2.010   0.256  0.2185  0.2824  0.1701
28144SOL    HW186106   7.109   1.944   0.300  0.1610  0.2812  0.1002
28144SOL    HW286107   7.098   2.079   0.233  0.2940  0.4095  0.3332
28145SOL     OW86108   4.934   9.675   3.868 -0.2019 -0.1847 -0.0174
28145SOL    HW186109   4.968   9.698   3.955 -1.1082  0.9647  0.0657
28145SOL    HW286110   5.007   9.630   3.825  0.2334 -0.8496  1.3561
28146SOL     OW86111   4.857   0.720   4.849 -0.1237 -0.3993  0.1716
28146SOL    HW186112   4.835   0.772   4.926 -0.6849 -0.4326  0.0411
28146SOL    HW286113   4.791   0.745   4.784  0.5544 -0.1124 -0.4168
28147SOL     OW86114   4.076   6.884   6.885 -0.3381 -0.2606  0.3571
28147SOL    HW186115   4.031   6.907   6.804 -0.1000  1.9233  0.7870
28147SOL    HW286116   4.167   6.869   6.859 -0.8886 -3.1905 -0.2722
28148SOL     OW86117   1.498   8.747   5.196 -0.3937  0.1059 -0.1959
28148SOL    HW186118   1.563   8.681   5.219  1.1292  1.4549 -0.4142
28148SOL    HW286119   1.547   8.810   5.143 -1.8395  1.2810 -0.1760
28149SOL     OW86120   3.078   3.816   2.181 -0.1916 -0.0086 -0.0840
28149SOL    HW186121   3.047   3.784   2.097 -1.9900 -2.2050  1.2895
28149SOL    HW286122   3.077   3.911   2.173 -1.8263 -0.1288 -2.0431
28150SOL     OW86123   3.605   5.859   5.587 -0.2011  0.4329 -0.3531
28150SOL    HW186124   3.666   5.894   5.653  0.4867 -1.7059  0.2193
28150SOL    HW286125   3.521   5.856   5.632 -0.1554  0.8443 -0.2352
28151SOL     OW86126   5.015   6.939   9.520 -0.2424  0.0319 -0.5470
28151SOL    HW186127   4.932   6.893   9.534  0.0337 -0.3623 -0.1380
28151SOL    HW286128   5.018   6.957   9.427 -0.9079  0.2845 -0.5213
28152SOL     OW86129   7.016   8.323   2.985 -0.2741 -0.0927 -0.1033
28152SOL    HW186130   7.084   8.386   3.011  0.1102 -0.4374 -0.2688
28152SOL    HW286131   6.942   8.343   3.042 -0.0965  0.4056 -0.0428
28153SOL     OW86132   2.868   8.421   9.537 -0.1200 -0.0984  0.1723
28153SOL    HW186133   2.838   8.420   9.627  2.2763 -2.0101  1.0619
28153SOL    HW286134   2.957   8.457   9.541  0.0188 -0.1610 -1.4228
28154SOL     OW86135   7.332   0.550   1.380 -0.4174  0.1763 -1.0620
28154SOL    HW186136   7.317   0.551   1.285 -0.1198  0.0139 -1.1127
28154SOL    HW286137   7.427   0.558   1.388 -0.5949  2.6833 -0.7263
28155SOL     OW86138   3.130   5.240   4.190  0.4653 -0.5672 -0.2370
28155SOL    HW186139   3.129   5.310   4.125  0.6464  0.3706  0.7434
28155SOL    HW286140   3.202   5.263   4.249 -0.1083 -1.0542  0.6739
28156SOL     OW86141   7.884   5.384   4.771  0.2256 -0.1357 -0.1152
28156SOL    HW186142   7.886   5.479   4.766  1.7489 -0.1913 -1.3170
28156SOL    HW286143   7.926   5.355   4.690  0.3753 -1.8138  0.5235
28157SOL     OW86144   8.012   6.604   2.329 -0.1309  0.4595 -0.2102
28157SOL    HW186145   7.954   6.569   2.396  0.5806  3.1685  1.9884
28157SOL    HW286146   8.100   6.592   2.365  0.5035 -0.4500 -1.9364
28158SOL     OW86147   0.107   7.437   2.336 -0.0991  0.3020  0.2636
28158SOL    HW186148   0.146   7.507   2.388  0.8283  0.5154 -0.6850
28158SOL    HW286149   0.085   7.369   2.400 -0.6447  1.2761  1.1473
28159SOL     OW86150   4.205   8.441   8.451 -0.2115  0.1599 -0.3201
28159SOL    HW186151   4.186   8.509   8.516  1.6294 -1.5944  2.2556
28159SOL    HW286152   4.293   8.461   8.421 -0.6806  0.3837 -1.6004
28160SOL     OW86153   7.047   3.200   3.304  0.0014  0.3977 -0.5249
28160SOL    HW186154   6.960   3.236   3.287 -0.1849 -0.2972 -1.1500
28160SOL    HW286155   7.045   3.114   3.261  1.6475  1.1627 -2.2864
28161SOL     OW86156   7.583   6.241   3.452 -0.9387  0.0146  0.7390
28161SOL    HW186157   7.565   6.323   3.496 -1.1793  0.4804 -0.2110
28161SOL    HW286158   7.497   6.201   3.438 -0.8081 -0.5032  1.3917
28162SOL     OW86159   7.169   3.459   2.123  0.1327 -0.5292  0.7592
28162SOL    HW186160   7.148   3.436   2.033  0.8893  0.6749  0.2566
28162SOL    HW286161   7.262   3.481   2.122  0.3786 -1.3890  2.0270
28163SOL     OW86162   1.245   2.000   7.346 -0.1880  0.0725 -0.1424
28163SOL    HW186163   1.239   2.074   7.406 -1.7908 -0.4028  0.3581
28163SOL    HW286164   1.206   1.927   7.395  0.1081 -0.7596 -1.1155
28164SOL     OW86165   8.456   0.676   9.589  0.3594 -0.6464 -0.3641
28164SOL    HW186166   8.433   0.768   9.577  0.3134 -0.1957  2.4883
28164SOL    HW286167   8.551   0.674   9.578  0.0667 -1.0286 -4.0365
28165SOL     OW86168   6.316   0.540   4.797 -0.2131 -0.1793  0.3035
28165SOL    HW186169   6.288   0.495   4.718 -0.8383 -0.9693  0.9461
28165SOL    HW286170   6.306   0.633   4.777 -1.2036 -0.3853 -0.2590
28166SOL     OW86171   9.206   5.384   0.928  0.1487  0.1404 -0.0224
28166SOL    HW186172   9.114   5.408   0.917  0.8535  1.8069 -3.4159
28166SOL    HW286173   9.222   5.395   1.022 -2.7309  1.2465  0.4415
28167SOL     OW86174   0.858   7.756   1.190 -0.2311  0.2898  0.5075
28167SOL    HW186175   0.772   7.736   1.226 -1.1103  0.0860 -1.5228
28167SOL    HW286176   0.868   7.850   1.203  0.5773 -0.0953  3.3286
28168SOL     OW86177   4.187   7.381   8.860  0.0744 -0.1268 -0.4169
28168SOL    HW186178   4.254   7.411   8.921 -1.0612 -0.5815  1.1192
28168SOL    HW286179   4.230   7.316   8.806  0.7546 -0.7981  0.8915
28169SOL     OW86180   3.209   8.534   7.622  0.2211  0.3382  0.2871
28169SOL    HW186181   3.291   8.540   7.671 -0.5123  1.9634  1.4035
28169SOL    HW286182   3.154   8.604   7.658 -1.7251 -0.7907 -0.3019
28170SOL     OW86183   2.910   4.413   6.055  0.3171  0.2185  0.0902
28170SOL    HW186184   2.997   4.448   6.071  0.4187 -0.3516  0.9191
28170SOL    HW286185   2.913   4.378   5.966  0.7258  0.7977 -0.1223
28171SOL     OW86186   8.193   7.625   4.966 -0.4450 -0.0383  0.7482
28171SOL    HW186187   8.257   7.665   5.025  0.9883  1.4592 -1.6505
28171SOL    HW286188   8.153   7.699   4.920 -1.3446 -1.1381 -0.3063
28172SOL     OW86189   5.874   4.943   3.312 -0.7636  0.5499  0.6263
28172SOL    HW186190   5.929   5.021   3.303  0.6587 -0.4830  0.0694
28172SOL    HW286191   5.867   4.930   3.406 -1.7833  1.8476  0.7649
28173SOL     OW86192   1.417   7.852   6.035  0.3110 -0.2665 -0.2604
28173SOL    HW186193   1.399   7.822   6.124 -0.8767 -0.6368 -0.6080
28173SOL    HW286194   1.447   7.774   5.989 -0.2682 -0.3652 -0.4882
28174SOL     OW86195   1.355   4.579   0.002  0.3833  0.2830 -0.0171
28174SOL    HW186196   1.308   4.497  -0.014  1.5685 -0.3265 -0.5514
28174SOL    HW286197   1.396   4.567   0.087 -0.2174  0.7079  0.3335
28175SOL     OW86198   9.431   9.104   3.347  0.5697  0.0866 -0.0027
28175SOL    HW186199   9.344   9.067   3.346  0.6994 -0.2872  1.1143
28175SOL    HW286200   9.477   9.062   3.274  0.1700 -0.6026  0.1381
28176SOL     OW86201   5.504   2.648   2.538 -0.4898 -0.2197  0.2323
28176SOL    HW186202   5.417   2.608   2.537 -0.1412 -1.0159  0.5696
28176SOL    HW286203   5.517   2.680   2.449 -0.3741 -1.8150 -0.3726
28177SOL     OW86204   0.372   3.096   5.102  0.2674 -0.3341 -0.3925
28177SOL    HW186205   0.417   3.021   5.064 -1.0682 -1.3548 -0.0513
28177SOL    HW286206   0.442   3.152   5.136  1.2978 -1.2873 -0.8877
28178SOL     OW86207   0.007   0.117   6.948  0.1923  0.3036  0.0890
28178SOL    HW186208   0.090   0.156   6.976  0.3628 -0.5136  0.7656
28178SOL    HW286209   0.012   0.026   6.977 -1.0052  0.2815  0.2962
28179SOL     OW86210   3.440   2.251   5.077  0.0087 -0.0663 -0.0308
28179SOL    HW186211   3.479   2.167   5.053 -1.0424 -0.2848 -1.0436
28179SOL    HW286212   3.397   2.281   4.997  1.0096  1.8123  0.1034
28180SOL     OW86213   5.970   8.831   0.440  0.3581  0.3049 -0.2965
28180SOL    HW186214   6.056   8.863   0.467 -0.6736  1.1701  2.2517
28180SOL    HW286215   5.978   8.819   0.345  2.1726  4.0799 -0.8405
28181SOL     OW86216   4.545   9.571   6.321 -0.5951 -0.1890  0.6752
28181SOL    HW186217   4.544   9.479   6.347 -1.1827 -0.2861  0.3068
28181SOL    HW286218   4.555   9.570   6.226  0.8613  0.1607  0.7868
28182SOL     OW86219   1.465   1.629   6.874 -0.1274  0.1639 -0.1031
28182SOL    HW186220   1.370   1.632   6.869 -0.1888 -0.9376 -0.0059
28182SOL    HW286221   1.487   1.538   6.852  1.0850  0.9882 -2.7062
28183SOL     OW86222   8.712   1.404   1.238 -0.5125  0.8551 -0.0246
28183SOL    HW186223   8.735   1.393   1.146 -0.2063  0.1151  0.1377
28183SOL    HW286224   8.619   1.381   1.243  0.1221 -1.9544  0.3255
28184SOL     OW86225   7.808   5.511   0.666  0.5229 -0.0195  0.0669
28184SOL    HW186226   7.765   5.456   0.600  0.7807 -1.6008  1.1507
28184SOL    HW286227   7.849   5.581   0.616  0.5548 -1.0584 -1.4315
28185SOL     OW86228   1.863   1.532   7.685  0.0021 -0.2013 -0.1373
28185SOL    HW186229   1.818   1.584   7.619 -1.9339 -1.9016 -0.2576
28185SOL    HW286230   1.956   1.550   7.670 -0.4216  0.4390 -2.5068
28186SOL     OW86231   0.024   2.504   9.406 -0.1703  0.5239  0.0729
28186SOL    HW186232   0.065   2.531   9.488  1.4240  0.3400 -0.6137
28186SOL    HW286233  -0.047   2.447   9.432 -0.4886  1.4542  1.3667
28187SOL     OW86234   9.435   6.350   3.152 -0.0120  0.1773 -0.1692
28187SOL    HW186235   9.463   6.396   3.073  0.6355 -2.3445 -1.5214
28187SOL    HW286236   9.517   6.322   3.194 -0.3822  0.1810  0.5682
28188SOL     OW86237   8.374   2.091   3.642  0.2739  0.2955  0.0922
28188SOL    HW186238   8.378   2.063   3.550 -2.2698 -1.4280  0.3769
28188SOL    HW286239   8.413   2.018   3.690 -1.3401 -0.3598  0.5026
28189SOL     OW86240   7.958   0.260   7.203 -0.2604 -0.6933  0.2774
28189SOL    HW186241   8.024   0.259   7.133 -0.4600 -0.3348  0.0789
28189SOL    HW286242   7.993   0.202   7.270 -0.8510 -2.4040 -0.8252
28190SOL     OW86243   7.734   9.491   3.973  0.2591  0.4112  0.0673
28190SOL    HW186244   7.698   9.473   3.887 -0.3552  3.6443 -0.4551
28190SOL    HW286245   7.826   9.464   3.967 -0.5548 -2.6051 -0.4013
28191SOL     OW86246   1.926   4.709   4.343 -0.4812  0.1053 -0.0142
28191SOL    HW186247   1.908   4.615   4.331  1.8757 -0.3770 -0.2650
28191SOL    HW286248   1.898   4.749   4.261 -1.9814 -0.2801  0.2857
28192SOL     OW86249   2.655   2.822   3.452  0.1299  0.3733 -0.4938
28192SOL    HW186250   2.651   2.732   3.486 -0.8087  0.4666 -0.3242
28192SOL    HW286251   2.680   2.812   3.361  0.6712 -0.0152 -0.3106
28193SOL     OW86252   9.329   9.193   5.569  0.0062 -0.0811 -0.5984
28193SOL    HW186253   9.261   9.250   5.532 -0.6741  0.0079  0.7349
28193SOL    HW286254   9.281   9.121   5.609  0.8622 -2.0682 -2.8488
28194SOL     OW86255   6.321   6.545   6.717  0.2506 -0.3054  0.1558
28194SOL    HW186256   6.369   6.476   6.671 -0.7060 -0.1916 -1.0797
28194SOL    HW286257   6.305   6.509   6.804  0.9222 -1.0963 -0.0310
28195SOL     OW86258   0.305   0.788   2.903 -0.5102  0.5349  0.1561
28195SOL    HW186259   0.369   0.768   2.834 -0.9442  1.3783 -0.5055
28195SOL    HW286260   0.357   0.787   2.984  0.0839 -0.0756 -0.2174
28196SOL     OW86261   5.409   6.398   2.790  0.0265 -0.4568 -0.4875
28196SOL    HW186262   5.404   6.493   2.796 -0.6582 -0.5178 -0.0396
28196SOL    HW286263   5.448   6.381   2.704 -0.1494  0.2175 -0.7021
28197SOL     OW86264   6.215   1.235   6.767  0.0533  0.4362  0.5221
28197SOL    HW186265   6.135   1.286   6.754 -0.6477 -0.4765  1.1772
28197SOL    HW286266   6.272   1.261   6.694  0.3485  3.3079  1.6248
28198SOL     OW86267   0.085   9.198   4.545 -0.1251 -0.0165  0.2071
28198SOL    HW186268   0.060   9.122   4.493 -0.4182  0.1640  0.0769
28198SOL    HW286269   0.090   9.166   4.634 -0.0589 -0.2314  0.1260
28199SOL     OW86270   9.655   4.583   7.888  0.2566  0.3576  0.2446
28199SOL    HW186271   9.650   4.551   7.978 -1.7464 -0.2253 -0.0161
28199SOL    HW286272   9.566   4.574   7.854  0.7110  1.6353 -1.4486
28200SOL     OW86273   2.982   8.383   8.450  0.3029 -0.1702  0.3255
28200SOL    HW186274   2.912   8.398   8.513  1.4638  0.8290  1.4175
28200SOL    HW286275   2.937   8.380   8.365 -1.1208 -0.1874  1.0465
28201SOL     OW86276   3.915   1.181   2.451  0.3383  0.0335 -0.2854
28201SOL    HW186277   3.884   1.133   2.374  0.4920 -0.2696 -0.1619
28201SOL    HW286278   3.959   1.257   2.415  1.2843 -0.6148 -0.5435
28202SOL     OW86279   4.542   1.801   2.291 -0.3554 -0.3301  0.2400
28202SOL    HW186280   4.576   1.758   2.213 -1.2655  1.8844 -1.5131
28202SOL    HW286281   4.459   1.756   2.310  0.0088 -1.0599  0.0977
28203SOL     OW86282   2.331   4.655   7.430 -0.5068 -0.0495  0.6397
28203SOL    HW186283   2.403   4.631   7.372 -0.2183 -1.4239  1.5232
28203SOL    HW286284   2.325   4.750   7.423  0.4676 -0.0515 -0.5109
28204SOL     OW86285   0.137   7.038   1.011 -0.1559 -0.6209  0.0419
28204SOL    HW186286   0.120   6.977   0.939 -0.0222  0.0271 -0.5574
28204SOL    HW286287   0.231   7.054   1.006 -0.1594 -0.5164  0.3192
28205SOL     OW86288   8.058   4.620   1.289 -0.4441 -0.4164  0.0031
28205SOL    HW186289   8.084   4.630   1.381  1.3350  0.4959 -0.5371
28205SOL    HW286290   7.963   4.630   1.290 -0.3730  0.5726  1.6362
28206SOL     OW86291   0.194   0.648   6.571  0.0427 -0.1931 -0.6309
28206SOL    HW186292   0.189   0.601   6.655  1.0409 -0.6274 -0.7985
28206SOL    HW286293   0.170   0.582   6.506  1.2816 -0.4391 -0.8530
28207SOL     OW86294   1.645   0.143   3.787 -0.0953  0.1233 -0.3560
28207SOL    HW186295   1.715   0.078   3.776 -0.7711 -0.5921 -0.4643
28207SOL    HW286296   1.600   0.143   3.703 -1.6559 -1.1034  0.4398
28208SOL     OW86297   9.000   3.447   5.697  0.9980 -0.0098  0.9947
28208SOL    HW186298   8.934   3.423   5.762  3.2841 -1.5341  2.9532
28208SOL    HW286299   9.033   3.532   5.726  0.9935  0.0072  0.9496
28209SOL     OW86300   8.545   2.384   0.358 -0.5216 -0.0387 -0.1839
28209SOL    HW186301   8.618   2.339   0.315 -0.0846  0.8083 -0.3541
28209SOL    HW286302   8.586   2.440   0.423 -1.0530  0.1521 -0.0080
28210SOL     OW86303   6.353   7.404   3.696  0.1249  0.5041 -0.2013
28210SOL    HW186304   6.347   7.376   3.788 -1.2883  0.1802 -0.3674
28210SOL    HW286305   6.442   7.382   3.670  0.1767 -0.5068  0.7507
28211SOL     OW86306   5.170   9.634   1.217 -0.1076 -0.0812  0.4933
28211SOL    HW186307   5.240   9.626   1.153  1.5412  1.6764  1.9367
28211SOL    HW286308   5.090   9.642   1.166  0.8960 -0.7859 -1.2521
28212SOL     OW86309   6.165   4.707   9.063  0.2615  0.4537 -0.1951
28212SOL    HW186310   6.214   4.773   9.113 -0.2036  0.7484 -0.1254
28212SOL    HW286311   6.074   4.724   9.084  0.0943  0.2467 -0.7460
28213SOL     OW86312   8.560   4.084   2.339 -0.4565 -0.4460 -0.1312
28213SOL    HW186313   8.571   4.056   2.430 -0.9393 -1.0473 -0.2469
28213SOL    HW286314   8.588   4.009   2.287 -0.4199 -0.1974 -0.4743
28214SOL     OW86315   5.964   6.526   0.786 -0.2207 -0.2434  0.4481
28214SOL    HW186316   5.958   6.619   0.810 -1.6039 -0.3944  0.7872
28214SOL    HW286317   6.046   6.496   0.826 -0.4810  0.4884  1.5705
28215SOL     OW86318   6.312   9.033   5.622 -0.4663 -0.4248 -0.0874
28215SOL    HW186319   6.259   9.030   5.702 -0.2159  0.7304  0.1402
28215SOL    HW286320   6.323   8.941   5.598 -2.2316 -0.7083  0.0631
28216SOL     OW86321   7.015   2.606   1.320  0.3303 -0.7654  0.0646
28216SOL    HW186322   6.997   2.529   1.374 -0.0937 -0.3097  0.5845
28216SOL    HW286323   7.003   2.680   1.379 -1.2471 -0.1848 -0.9077
28217SOL     OW86324   3.116   6.982   4.510  0.1862 -0.2919  0.0224
28217SOL    HW186325   3.163   6.936   4.440  2.5406  1.0219  0.6262
28217SOL    HW286326   3.097   7.068   4.473 -0.7692 -0.4219  0.1921
28218SOL     OW86327   8.848   5.849   1.903  0.0948  0.2456  0.0285
28218SOL    HW186328   8.821   5.903   1.829  2.1150 -1.2078 -1.8684
28218SOL    HW286329   8.939   5.825   1.885  0.7251 -0.1087  3.0463
28219SOL     OW86330   0.358   3.119   0.204 -0.2963  0.1223 -0.0513
28219SOL    HW186331   0.342   3.165   0.121  1.7533  1.0712  0.0125
28219SOL    HW286332   0.297   3.161   0.266  0.9415  2.2850 -0.1842
28220SOL     OW86333   6.033   1.539   2.232  0.2301 -0.4104  0.0281
28220SOL    HW186334   6.088   1.616   2.246  1.9032 -0.6833 -3.7121
28220SOL    HW286335   6.051   1.482   2.306  2.9113  0.7205  0.3724
28221SOL     OW86336   1.231   0.814   3.737  0.4617 -0.4744  0.0592
28221SOL    HW186337   1.217   0.871   3.660 -0.7141  0.0958  0.6682
28221SOL    HW286338   1.191   0.731   3.712 -0.8016  0.0132  0.4008
28222SOL     OW86339   8.466   9.191   8.937 -0.0030 -0.1749  0.2800
28222SOL    HW186340   8.524   9.142   8.995  0.1819  0.7808  0.9123
28222SOL    HW286341   8.410   9.242   8.995  0.1983  0.8163 -0.3725
28223SOL     OW86342   2.353   0.706   2.279  0.4195 -0.1837 -0.1865
28223SOL    HW186343   2.278   0.747   2.235  0.6487  0.6176  0.1559
28223SOL    HW286344   2.419   0.775   2.282  0.2630 -0.0491  1.8125
28224SOL     OW86345   3.087   5.132   6.370  0.6103  0.2545 -0.2826
28224SOL    HW186346   3.066   5.084   6.290  0.0237  0.0009  0.0203
28224SOL    HW286347   3.003   5.145   6.414  1.1764 -2.3144  1.8377
28225SOL     OW86348   7.342   0.334   6.867 -0.1565 -0.7505 -0.3319
28225SOL    HW186349   7.264   0.319   6.814 -0.2239 -0.0616 -0.4401
28225SOL    HW286350   7.407   0.369   6.806 -0.3983  0.5412  0.1090
28226SOL     OW86351   8.802   1.024   3.513  0.4247  0.6872  0.2460
28226SOL    HW186352   8.884   1.017   3.562  0.5456  0.5722  0.0302
28226SOL    HW286353   8.802   1.112   3.478  0.6509  0.5530 -0.0936
28227SOL     OW86354   3.887   3.604   1.262 -0.1494 -0.0714  0.2891
28227SOL    HW186355   3.895   3.685   1.312  1.8648 -1.0793  1.7409
28227SOL    HW286356   3.871   3.537   1.327  0.4864 -1.1539 -0.6362
28228SOL     OW86357   6.097   7.286   6.270  0.0986 -0.3755  0.7943
28228SOL    HW186358   6.045   7.366   6.274 -1.1099 -0.9864 -1.0630
28228SOL    HW286359   6.037   7.218   6.300 -0.4921 -1.1747 -1.9077
28229SOL     OW86360   8.477   3.405   1.423 -0.2505  0.5510  0.5729
28229SOL    HW186361   8.559   3.405   1.373  0.5218  0.5207  1.7943
28229SOL    HW286362   8.469   3.315   1.456  0.2030  0.9931  1.9670
28230SOL     OW86363   4.848   9.305   8.116 -0.3981  0.6017  0.0212
28230SOL    HW186364   4.836   9.349   8.032 -0.8599 -0.0717 -0.2746
28230SOL    HW286365   4.763   9.313   8.160 -0.8555 -0.9538 -0.5146
28231SOL     OW86366   6.736   5.281   6.349 -0.2035  0.0218  0.1151
28231SOL    HW186367   6.723   5.205   6.406 -0.6798 -0.6676 -0.8750
28231SOL    HW286368   6.802   5.334   6.394 -0.5627 -0.4987  1.2940
28232SOL     OW86369   4.666   7.449   7.305 -0.0357 -0.1231  0.5295
28232SOL    HW186370   4.595   7.412   7.254  0.2100 -0.8297  0.6946
28232SOL    HW286371   4.694   7.378   7.363  1.0420  0.0286  0.2130
28233SOL     OW86372   3.854   4.965   7.613  0.7727  0.7874  0.3588
28233SOL    HW186373   3.877   5.056   7.634 -0.8840  1.0308  1.3381
28233SOL    HW286374   3.759   4.961   7.627  0.7976 -1.0725  0.2236
28234SOL     OW86375   9.236   1.325   0.933  0.2165  0.0757  0.3305
28234SOL    HW186376   9.330   1.317   0.918  0.5191  0.9108  1.6538
28234SOL    HW286377   9.197   1.325   0.845  1.4452 -0.2451 -0.2257
28235SOL     OW86378   5.964   8.148   0.600 -0.1648 -0.3130 -0.1227
28235SOL    HW186379   5.993   8.081   0.662 -1.8117 -0.4196  0.5831
28235SOL    HW286380   5.873   8.166   0.625 -0.0743  1.4817 -0.9042
28236SOL     OW86381   5.477   5.835   2.632 -0.0923  0.2425  0.3815
28236SOL    HW186382   5.459   5.826   2.725 -0.0512 -1.2998  0.2661
28236SOL    HW286383   5.572   5.830   2.625 -0.1559 -0.8469  0.1636
28237SOL     OW86384   0.609   4.513   3.411 -0.0097  0.1135  0.0403
28237SOL    HW186385   0.689   4.461   3.414 -0.3024 -0.2955  1.3002
28237SOL    HW286386   0.562   4.481   3.334  0.3674 -0.6505  0.1196
28238SOL     OW86387   8.597   8.106   5.935  0.4516  0.3051  0.1440
28238SOL    HW186388   8.554   8.032   5.978 -0.0258  1.1587  1.1894
28238SOL    HW286389   8.531   8.174   5.932  1.0605  0.8936 -0.2813
28239SOL     OW86390   3.052   4.764   1.881 -0.3157  0.7563  0.0363
28239SOL    HW186391   3.071   4.817   1.804  0.4342 -1.0342 -1.0773
28239SOL    HW286392   2.963   4.787   1.906 -0.1436  2.2217 -0.6269
28240SOL     OW86393   5.347   8.331   3.913 -0.6845 -0.0251 -0.4611
28240SOL    HW186394   5.268   8.377   3.883  0.4682  1.8714 -0.7415
28240SOL    HW286395   5.411   8.345   3.844  0.4910  0.1089  0.6198
28241SOL     OW86396   3.095   8.986   1.271 -0.2902 -0.1456 -0.2468
28241SOL    HW186397   3.160   8.918   1.288  1.4422  1.6158  0.5888
28241SOL    HW286398   3.116   9.019   1.184 -1.4541 -0.9607 -0.8711
28242SOL     OW86399   6.368   5.084   2.567  0.6547 -0.4878 -0.3927
28242SOL    HW186400   6.357   4.995   2.602  3.1031 -0.4147  0.7954
28242SOL    HW286401   6.419   5.072   2.487 -0.3887 -0.2286 -1.1224
28243SOL     OW86402   2.078   3.906   2.042  0.0135  0.4452 -0.5413
28243SOL    HW186403   2.138   3.838   2.072 -0.8261  0.4354  1.1780
28243SOL    HW286404   2.076   3.895   1.946  2.9203  0.6141 -0.7131
28244SOL     OW86405   7.969   9.344   4.979  0.7479 -0.0838  0.0051
28244SOL    HW186406   7.928   9.393   4.907 -0.0487 -0.3403  0.2691
28244SOL    HW286407   8.002   9.411   5.038  0.0091  0.1460  0.1719
28245SOL     OW86408   4.273   7.117   0.975  0.4396  0.1593  0.5739
28245SOL    HW186409   4.351   7.069   1.005  0.5851  0.3828  0.5577
28245SOL    HW286410   4.295   7.144   0.886 -1.4840 -3.8647 -1.3521
28246SOL     OW86411   3.794   2.999   7.159  0.0304 -0.6950 -0.3725
28246SOL    HW186412   3.859   2.992   7.090 -2.0918  0.5185 -2.6695
28246SOL    HW286413   3.788   2.911   7.196  1.2474 -1.3665 -1.7016
28247SOL     OW86414   7.139   4.308   0.402 -0.0892 -0.0292  0.0448
28247SOL    HW186415   7.135   4.354   0.486  0.7383 -1.7160  1.0693
28247SOL    HW286416   7.114   4.218   0.423  0.1943 -0.5028 -1.5183
28248SOL     OW86417   6.834   6.630   2.235 -0.2046  0.1469  0.0543
28248SOL    HW186418   6.768   6.618   2.303 -0.4070  1.7282  0.1853
28248SOL    HW286419   6.783   6.649   2.156  0.0334 -1.5470 -0.5425
28249SOL     OW86420   6.290   6.098   3.587 -0.1226  0.0517 -0.6852
28249SOL    HW186421   6.223   6.152   3.629 -0.2689 -0.8863  0.3568
28249SOL    HW286422   6.327   6.153   3.519 -0.6895  1.2271 -0.0677
28250SOL     OW86423   2.448   2.653   8.066 -0.0961  0.2252 -0.1367
28250SOL    HW186424   2.451   2.702   8.148  0.0625 -0.9661  0.5977
28250SOL    HW286425   2.510   2.698   8.008  1.0073  0.1411  0.9452
28251SOL     OW86426   0.283   2.580   3.416 -0.3997 -0.3768  0.2225
28251SOL    HW186427   0.330   2.497   3.411  1.1662  0.4458  0.6435
28251SOL    HW286428   0.351   2.646   3.431 -1.8975  0.6058  3.6379
28252SOL     OW86429   5.798   5.124   0.085  0.1795  0.5729 -0.8587
28252SOL    HW186430   5.894   5.124   0.090  0.1706 -0.6454 -0.1570
28252SOL    HW286431   5.779   5.078   0.003  0.2104 -0.2925 -0.3984
28253SOL     OW86432   3.826   7.605   5.282 -0.0946  0.2265  0.4315
28253SOL    HW186433   3.856   7.609   5.373  0.4383  0.2307  0.2565
28253SOL    HW286434   3.758   7.537   5.283  0.5435 -0.4234  0.6566
28254SOL     OW86435   5.429   7.962   0.455  0.2848  0.1825  0.3542
28254SOL    HW186436   5.491   7.934   0.387  0.0761  0.6230 -0.0220
28254SOL    HW286437   5.353   7.905   0.444  0.2499  0.2555  0.2158
28255SOL     OW86438   9.183   4.843   4.866  0.4261  0.5858 -0.2853
28255SOL    HW186439   9.132   4.850   4.946 -1.1181 -0.7612 -1.0759
28255SOL    HW286440   9.235   4.763   4.877  1.7119  1.4558  0.1407
28256SOL     OW86441   7.912   3.241   9.493  0.2744 -0.1269 -0.0402
28256SOL    HW186442   7.862   3.317   9.523  1.5514  1.0701 -0.7912
28256SOL    HW286443   7.993   3.278   9.458  0.2601 -1.7052 -1.9334
28257SOL     OW86444   1.994   1.620   5.937 -0.2318  0.3583  0.8435
28257SOL    HW186445   1.917   1.661   5.896 -0.6365  0.2274  1.4565
28257SOL    HW286446   1.959   1.545   5.984  0.3411  0.0375  0.7679
28258SOL     OW86447   1.773   7.233   3.652  0.5815  0.1031 -0.3810
28258SOL    HW186448   1.804   7.286   3.579  0.3173  0.3227 -0.3335
28258SOL    HW286449   1.761   7.295   3.724 -0.3112  0.0794 -0.5025
28259SOL     OW86450   8.993   4.596   3.852 -0.4835 -0.1391 -0.3373
28259SOL    HW186451   8.913   4.553   3.882 -0.1213  0.3433  1.4609
28259SOL    HW286452   8.963   4.662   3.790 -1.4655 -0.1450  0.1084
28260SOL     OW86453   3.729   3.278   0.284  0.0935 -0.1693  0.5844
28260SOL    HW186454   3.762   3.361   0.317  1.6865 -1.3028  2.0313
28260SOL    HW286455   3.805   3.237   0.242 -0.3837 -1.3397  0.8269
28261SOL     OW86456   3.743   1.196   2.661 -0.2260  0.0293  0.7499
28261SOL    HW186457   3.663   1.215   2.612  0.7351  1.1775 -0.4193
28261SOL    HW286458   3.813   1.197   2.596  0.9454  0.4836  1.9680
28262SOL     OW86459   8.888   1.850   4.975  0.1170  0.2461 -0.2248
28262SOL    HW186460   8.932   1.933   4.993  3.2064 -0.9009 -1.8028
28262SOL    HW286461   8.849   1.826   5.059  2.1895  1.6016  1.2265
28263SOL     OW86462   4.587   0.981   6.461  0.3644 -0.0691 -0.2843
28263SOL    HW186463   4.520   0.942   6.517  0.6907  0.2091  0.3134
28263SOL    HW286464   4.555   1.070   6.445  1.4297  0.7090  1.5231
28264SOL     OW86465   7.259   3.989   7.058  0.6630 -0.4013 -0.5310
28264SOL    HW186466   7.252   3.941   6.975  1.9791  0.2942 -1.0864
28264SOL    HW286467   7.348   3.972   7.088  0.5557  0.2450  0.1826
28265SOL     OW86468   2.114   2.396   0.786 -0.4980 -0.8551  0.2458
28265SOL    HW186469   2.209   2.400   0.783 -0.5582  0.9116 -1.1840
28265SOL    HW286470   2.094   2.303   0.774  1.0328 -1.2284  0.3883
28266SOL     OW86471   5.501   5.400   1.483 -0.1186  0.3387  0.4051
28266SOL    HW186472   5.551   5.354   1.550 -1.1246 -1.2170  0.1368
28266SOL    HW286473   5.459   5.472   1.530  0.5186  0.2723  1.0897
28267SOL     OW86474   9.648   7.704   8.671 -0.4124  0.5659  0.3720
28267SOL    HW186475   9.567   7.689   8.623  0.1084  0.7918 -0.5950
28267SOL    HW286476   9.666   7.797   8.659  1.3201  0.0324 -1.5753
28268SOL     OW86477   3.552   6.435   0.328  0.2171  0.0306 -0.3922
28268SOL    HW186478   3.611   6.376   0.281  1.0057  1.8668 -1.8183
28268SOL    HW286479   3.524   6.384   0.405  1.0445 -2.0737 -1.3988
28269SOL     OW86480   4.757   7.314   0.056  0.5187 -0.0852 -0.1636
28269SOL    HW186481   4.692   7.257   0.098 -1.1409  0.7552 -1.4711
28269SOL    HW286482   4.761   7.392   0.111 -1.3205  0.8232 -1.2277
28270SOL     OW86483   4.528   3.478   9.455  0.0508  0.1094  0.3116
28270SOL    HW186484   4.472   3.514   9.524 -0.8296  0.1585 -0.4085
28270SOL    HW286485   4.515   3.383   9.461 -0.4568  0.1466 -0.1342
28271SOL     OW86486   3.279   5.121   2.707 -0.0202  0.5045 -0.2209
28271SOL    HW186487   3.308   5.112   2.798  0.6902 -0.4004 -0.5114
28271SOL    HW286488   3.224   5.199   2.706  2.8707  2.7004  0.2783
28272SOL     OW86489   3.843   3.282   1.845 -0.2226  0.0723 -0.1955
28272SOL    HW186490   3.838   3.194   1.809  0.7928  0.2030 -0.6975
28272SOL    HW286491   3.752   3.310   1.855 -0.5680 -0.1744 -2.1784
28273SOL     OW86492   1.782   9.098   4.239  0.0138  0.1021  0.1817
28273SOL    HW186493   1.791   9.030   4.173  2.1588 -0.4350  0.9192
28273SOL    HW286494   1.709   9.152   4.209 -1.1471 -1.9525 -0.9188
28274SOL     OW86495   6.993   1.429   1.719  0.3217  0.0715 -0.0164
28274SOL    HW186496   6.908   1.425   1.675  0.8073  0.4960 -1.0052
28274SOL    HW286497   7.015   1.522   1.722 -0.0218  0.1386  1.7880
28275SOL     OW86498   7.537   5.940   5.835  0.0584 -0.0412  0.2163
28275SOL    HW186499   7.623   5.981   5.846 -0.2859  0.6300  0.4970
28275SOL    HW286500   7.487   5.969   5.911 -0.8942  0.8315 -0.7066
28276SOL     OW86501   6.884   8.105   2.874  0.5631  0.5712 -0.5708
28276SOL    HW186502   6.949   8.175   2.885  0.3425  0.4958  1.7322
28276SOL    HW286503   6.935   8.029   2.847  0.9792  1.2719 -1.8523
28277SOL     OW86504   5.660   8.513   2.886  0.8634  0.1047 -0.6843
28277SOL    HW186505   5.646   8.419   2.871 -0.2630  0.2319 -0.5245
28277SOL    HW286506   5.680   8.519   2.980 -1.1465  0.2114 -0.2263
28278SOL     OW86507   1.670   7.561   3.064 -0.4098  0.2547 -0.3558
28278SOL    HW186508   1.765   7.565   3.076 -0.4942  0.2653  0.3510
28278SOL    HW286509   1.653   7.471   3.035 -0.0601  0.6147 -1.7484
28279SOL     OW86510   6.777   1.897   8.040  0.4561 -0.1125 -0.2363
28279SOL    HW186511   6.833   1.910   8.117 -0.2150  1.6009  0.0162
28279SOL    HW286512   6.690   1.881   8.077  0.3908 -0.6864 -0.6370
28280SOL     OW86513   2.861   5.655   8.509  0.4577 -0.1400  0.0244
28280SOL    HW186514   2.921   5.726   8.484 -1.8932  1.2817 -1.9995
28280SOL    HW286515   2.828   5.680   8.595  1.9176 -0.4139  0.6932
28281SOL     OW86516   3.811   8.037   8.760  0.1157  0.4253  0.8988
28281SOL    HW186517   3.744   7.969   8.773  0.5048  0.0482  0.9676
28281SOL    HW286518   3.853   8.046   8.845  1.4160 -0.7085  0.4107
28282SOL     OW86519   4.788   6.256   2.437  0.0822  0.4315 -0.3152
28282SOL    HW186520   4.828   6.225   2.356  0.1955 -2.5485  0.7550
28282SOL    HW286521   4.710   6.202   2.447  0.2899  0.4566  1.7415
28283SOL     OW86522   4.840   8.761   5.055  0.1977 -0.5076  0.3055
28283SOL    HW186523   4.793   8.753   5.139 -0.9936  1.4598 -0.1207
28283SOL    HW286524   4.885   8.677   5.046 -0.7339 -1.2996  2.2631
28284SOL     OW86525   3.314   4.697   3.768 -0.3996  0.2933 -0.7224
28284SOL    HW186526   3.282   4.781   3.736  1.1188  1.0614 -0.3332
28284SOL    HW286527   3.358   4.657   3.693 -0.1095  0.3800 -0.6001
28285SOL     OW86528   7.515   2.792   5.552 -0.3661  0.4312  0.4352
28285SOL    HW186529   7.543   2.823   5.466  0.6936  1.2305  1.0336
28285SOL    HW286530   7.423   2.768   5.541 -0.3704  0.9605 -0.8036
28286SOL     OW86531   3.810   7.640   0.220 -0.6302  0.2869 -0.1709
28286SOL    HW186532   3.829   7.724   0.178  1.1824  0.1162  0.2192
28286SOL    HW286533   3.816   7.576   0.150 -1.2551  0.3940 -0.3258
28287SOL     OW86534   5.307   6.471   9.279  0.2046  0.5371 -0.1435
28287SOL    HW186535   5.217   6.502   9.283  0.5053  1.3296  1.0028
28287SOL    HW286536   5.300   6.376   9.266 -0.8511  0.2851  1.9635
28288SOL     OW86537   7.317   0.948   5.588  0.0751 -0.3883  0.1808
28288SOL    HW186538   7.370   0.893   5.646  0.2498 -0.6345 -0.2067
28288SOL    HW286539   7.240   0.895   5.568 -0.2359 -0.1003  0.5991
28289SOL     OW86540   4.970   5.677   1.271 -0.9582  0.7903 -0.0465
28289SOL    HW186541   4.979   5.667   1.176 -3.3019 -2.2538 -0.1093
28289SOL    HW286542   5.006   5.596   1.307 -0.1674  1.8644  1.7383
28290SOL     OW86543   4.381   6.221   1.903  0.3017 -0.1773  0.0779
28290SOL    HW186544   4.418   6.134   1.893  0.9404  0.2636 -1.7099
28290SOL    HW286545   4.286   6.208   1.896  0.1976 -0.9807  2.1751
28291SOL     OW86546   5.258   1.161   6.270  0.1324 -0.1685  0.5515
28291SOL    HW186547   5.201   1.090   6.299  1.3518 -0.9428  1.0845
28291SOL    HW286548   5.330   1.162   6.332  0.6605  0.8725 -0.0444
28292SOL     OW86549   3.674   4.508   7.556  0.7332 -0.1062 -0.7726
28292SOL    HW186550   3.718   4.579   7.601  0.1862 -0.4685  0.3668
28292SOL    HW286551   3.745   4.458   7.515  1.1184  1.0510 -1.5692
28293SOL     OW86552   2.751   9.284   8.411  0.4260 -0.5812 -0.0487
28293SOL    HW186553   2.788   9.217   8.468  0.0670 -1.7354 -1.1349
28293SOL    HW286554   2.689   9.237   8.355  2.3322  0.0519 -2.8933
28294SOL     OW86555   1.985   9.213   8.390 -0.0071 -0.0355 -0.3746
28294SOL    HW186556   2.042   9.154   8.439 -0.5609 -0.1939  0.0880
28294SOL    HW286557   2.026   9.299   8.396 -0.7078  0.2012  1.4290
28295SOL     OW86558   4.994   7.557   8.245  0.0666 -0.6629 -0.1338
28295SOL    HW186559   4.906   7.592   8.258  0.7616  1.2690 -0.3121
28295SOL    HW286560   4.994   7.526   8.154 -0.3466 -0.4040 -0.2260
28296SOL     OW86561   8.803   4.270   5.595  0.0042  0.1402  0.4367
28296SOL    HW186562   8.780   4.335   5.529  0.4354  0.6250  0.7504
28296SOL    HW286563   8.898   4.279   5.605 -0.3078  1.6113  2.6840
28297SOL     OW86564   4.387   8.121   5.659 -0.5629 -0.3165 -0.2255
28297SOL    HW186565   4.355   8.089   5.575 -0.4652 -1.7396  0.2550
28297SOL    HW286566   4.340   8.204   5.672 -0.0869  0.2606 -1.9570
28298SOL     OW86567   6.695   4.609   4.801 -0.6254  0.0563 -0.0834
28298SOL    HW186568   6.673   4.608   4.708 -0.1295 -0.9041 -0.2020
28298SOL    HW286569   6.713   4.701   4.820  1.4241  0.0173 -1.4722
28299SOL     OW86570   7.517   9.104   0.744  0.0476 -0.2816  0.8863
28299SOL    HW186571   7.562   9.131   0.824 -0.1699  1.8604  0.3391
28299SOL    HW286572   7.443   9.164   0.736  0.3070 -0.1362 -1.1339
28300SOL     OW86573   2.778   7.463   5.614 -0.1943 -0.0399 -0.1645
28300SOL    HW186574   2.685   7.458   5.638  0.0947 -0.1339  0.9961
28300SOL    HW286575   2.781   7.524   5.541 -0.9112  1.8734  1.3179
28301SOL     OW86576   5.237   4.385   5.680 -0.0975 -0.1344 -0.3316
28301SOL    HW186577   5.188   4.371   5.761 -0.2583 -1.3677 -0.6195
28301SOL    HW286578   5.178   4.435   5.625 -0.0110  0.6621  0.2808
28302SOL     OW86579   0.440   3.745   4.184  0.6074 -0.3140 -0.2042
28302SOL    HW186580   0.402   3.659   4.168 -3.1833  1.1816 -0.2814
28302SOL    HW286581   0.438   3.788   4.098  1.5204  0.2189  0.0314
28303SOL     OW86582   8.190   6.215   1.882 -0.8835 -0.3181 -0.1662
28303SOL    HW186583   8.185   6.189   1.974  0.3642  1.0398  0.3128
28303SOL    HW286584   8.206   6.133   1.835  0.3945 -0.7969  1.0336
28304SOL     OW86585   5.901   6.529   8.314 -0.4506  0.6962 -0.2583
28304SOL    HW186586   5.839   6.532   8.241 -0.7962 -0.7838 -0.0726
28304SOL    HW286587   5.941   6.442   8.308  1.2318  1.4313 -0.0480
28305SOL     OW86588   2.272   1.799   1.184 -0.0648 -0.3633 -0.0994
28305SOL    HW186589   2.283   1.757   1.269 -2.7969  0.3216  0.6796
28305SOL    HW286590   2.342   1.865   1.181  0.5874 -0.9564  1.2201
28306SOL     OW86591   6.179   1.807   0.342  0.7299 -0.0320 -0.8651
28306SOL    HW186592   6.266   1.810   0.303  0.4520 -0.9272 -1.5953
28306SOL    HW286593   6.159   1.714   0.348 -1.1729  0.1485 -3.0365
28307SOL     OW86594   4.141   8.474   2.713 -0.0591 -0.6603  0.0389
28307SOL    HW186595   4.085   8.407   2.752 -0.1774 -0.9715 -0.6491
28307SOL    HW286596   4.089   8.554   2.715 -0.2817 -0.8052 -0.0189
28308SOL     OW86597   3.568   8.058   6.733 -0.4018 -0.1687  0.1035
28308SOL    HW186598   3.562   8.146   6.695 -0.8700  0.3559  1.3225
28308SOL    HW286599   3.477   8.032   6.746 -0.2663 -0.0907  1.3408
28309SOL     OW86600   7.175   0.176   0.144 -0.0592 -0.1951  0.0930
28309SOL    HW186601   7.259   0.147   0.110 -1.5450 -2.0803 -2.3788
28309SOL    HW286602   7.174   0.271   0.128  1.9766  0.0682  1.2565
28310SOL     OW86603   1.672   4.091   4.628 -0.0817  0.2396  0.4007
28310SOL    HW186604   1.754   4.122   4.666  0.8490 -0.1943 -1.1264
28310SOL    HW286605   1.665   4.137   4.544 -0.8081 -0.5783 -0.0102
28311SOL     OW86606   5.223   6.458   6.134 -0.5775  0.0400  0.2619
28311SOL    HW186607   5.284   6.491   6.068  1.4159  1.0695  2.4746
28311SOL    HW286608   5.269   6.385   6.175 -2.3634 -1.5124 -0.3445
28312SOL     OW86609   8.890   5.099   7.006 -0.0215  0.7296 -0.0294
28312SOL    HW186610   8.921   5.147   6.929  1.3597 -0.1326 -0.0367
28312SOL    HW286611   8.806   5.061   6.978 -1.0061  2.8073 -0.1267
28313SOL     OW86612   1.801   8.519   8.315  0.3186 -0.1087  0.4226
28313SOL    HW186613   1.730   8.549   8.258  0.5870 -1.2510 -0.5544
28313SOL    HW286614   1.776   8.549   8.402 -2.3245 -1.9528  0.4423
28314SOL     OW86615   0.933   3.328   3.328  0.4810  0.2015 -0.0556
28314SOL    HW186616   0.950   3.421   3.312 -1.3226  0.3048 -1.6980
28314SOL    HW286617   1.013   3.297   3.371  2.1294  1.9671 -1.6277
28315SOL     OW86618   6.329   4.764   4.889 -0.4902  0.7033 -0.3181
28315SOL    HW186619   6.323   4.817   4.968 -0.7042  0.9361 -0.4904
28315SOL    HW286620   6.375   4.819   4.826  0.3346  0.2511 -0.1333
28316SOL     OW86621   3.967   2.591   2.979 -1.0512  0.5144 -0.0191
28316SOL    HW186622   3.942   2.619   3.067 -1.1143  0.5434 -0.0462
28316SOL    HW286623   3.890   2.609   2.925 -0.7265  1.2799 -0.2471
28317SOL     OW86624   7.996   4.304   0.101 -0.1707  0.0887 -0.0934
28317SOL    HW186625   8.036   4.240   0.042  1.0262  0.6760  0.0575
28317SOL    HW286626   7.902   4.295   0.086  0.0604 -0.5723 -1.2412
28318SOL     OW86627   4.370   7.577   8.958  0.5356  0.4470 -0.6520
28318SOL    HW186628   4.421   7.615   9.029 -0.4260  0.3400  0.1329
28318SOL    HW286629   4.298   7.639   8.945  0.4904  0.2686 -1.2700
28319SOL     OW86630   1.081   2.161   4.664  0.0791  0.3877 -0.3755
28319SOL    HW186631   1.099   2.071   4.690  1.6206  0.4594 -1.0701
28319SOL    HW286632   1.009   2.189   4.721 -0.0590 -1.0929  0.2141
28320SOL     OW86633   8.876   0.246   9.279  0.3578  0.3151 -0.1951
28320SOL    HW186634   8.880   0.332   9.238  0.9596 -0.1941 -1.2440
28320SOL    HW286635   8.852   0.264   9.370 -1.1138  1.4793 -0.7627
28321SOL     OW86636   8.748   7.334   4.798 -0.3508  0.0508  0.0352
28321SOL    HW186637   8.770   7.372   4.883  1.3446 -0.9074  0.0637
28321SOL    HW286638   8.696   7.402   4.754  0.3177  1.3032  1.1145
28322SOL     OW86639   5.143   5.198   5.085  0.0093  0.2098  0.8916
28322SOL    HW186640   5.129   5.124   5.145 -1.2811 -0.1941  0.1234
28322SOL    HW286641   5.056   5.235   5.072 -0.0245 -0.6107 -1.8452
28323SOL     OW86642   1.058   6.244   7.456 -0.2751  0.1966  0.1747
28323SOL    HW186643   1.032   6.305   7.387  1.0461 -1.3063 -1.7969
28323SOL    HW286644   1.153   6.256   7.464 -0.4046  0.3674  1.8173
28324SOL     OW86645   8.483   8.741   6.312 -0.2508  0.4037  0.0750
28324SOL    HW186646   8.461   8.661   6.264  0.3771  1.5856 -2.3142
28324SOL    HW286647   8.488   8.713   6.404 -0.6471 -2.1479 -0.6094
28325SOL     OW86648   6.905   1.144   2.108  0.0199  0.0877  0.3466
28325SOL    HW186649   6.954   1.099   2.177 -1.4935 -2.0477  0.1281
28325SOL    HW286650   6.954   1.123   2.028  1.3021  1.8680  0.6116
28326SOL     OW86651   5.008   7.106   4.470  0.3105 -0.1211 -0.3143
28326SOL    HW186652   4.948   7.034   4.452  0.4885 -0.5011  0.5380
28326SOL    HW286653   5.055   7.119   4.388  1.6513 -2.3020  0.0174
28327SOL     OW86654   2.765   8.299   4.891 -0.5091  0.5923  0.4768
28327SOL    HW186655   2.845   8.248   4.901 -0.0825  0.9281 -0.9317
28327SOL    HW286656   2.772   8.368   4.957 -0.2938 -0.1798  1.2668
28328SOL     OW86657   4.281   3.002   7.019  0.3543 -0.0341  0.2067
28328SOL    HW186658   4.342   2.930   7.037  1.1792  0.4528 -0.6162
28328SOL    HW286659   4.331   3.064   6.966  0.0041  1.6962  1.8027
28329SOL     OW86660   1.229   4.460   4.260 -0.7083 -0.0120  0.2313
28329SOL    HW186661   1.199   4.385   4.311  0.1528 -0.4634  0.0929
28329SOL    HW286662   1.229   4.428   4.169 -0.9010  0.3483  0.0999
28330SOL     OW86663   7.251   9.585   3.873 -0.0486  0.3418 -0.1208
28330SOL    HW186664   7.236   9.501   3.917  1.4940 -0.3676 -0.8451
28330SOL    HW286665   7.341   9.608   3.898 -0.0981  1.2487 -0.7623
28331SOL     OW86666   8.830   4.580   2.360 -0.1393 -0.1504 -0.3783
28331SOL    HW186667   8.896   4.575   2.429 -1.5632 -0.3607  1.0312
28331SOL    HW286668   8.810   4.488   2.340  0.8171 -0.1024 -1.6588
28332SOL     OW86669   8.295   4.748   4.455  0.0953 -0.4871  0.7778
28332SOL    HW186670   8.269   4.788   4.538  0.6432 -0.0188  0.7333
28332SOL    HW286671   8.277   4.816   4.390  1.3946 -0.1408  0.7479
28333SOL     OW86672   5.780   7.428   9.105 -0.5258 -0.0387  0.3373
28333SOL    HW186673   5.737   7.434   9.190 -1.1999  0.7305 -0.0502
28333SOL    HW286674   5.714   7.456   9.042  0.5351  1.1857 -0.2685
28334SOL     OW86675   7.704   8.006   0.213 -0.0879  0.3351  0.3398
28334SOL    HW186676   7.778   7.992   0.155 -0.8746  0.2084 -0.6767
28334SOL    HW286677   7.733   7.974   0.298  0.0835 -2.4219 -0.6555
28335SOL     OW86678   6.792   4.892   1.177 -0.1178  0.7539 -0.2107
28335SOL    HW186679   6.709   4.846   1.170  0.1760 -0.0252  1.1346
28335SOL    HW286680   6.823   4.874   1.266  1.2863  1.3747 -0.5334
28336SOL     OW86681   6.900   1.826   8.908 -0.1460  0.5195 -0.6964
28336SOL    HW186682   6.822   1.878   8.889  0.5689  1.4576 -1.1556
28336SOL    HW286683   6.951   1.828   8.827 -0.3947 -1.4759 -0.9513
28337SOL     OW86684   9.211   8.347   7.729  0.2883  0.4222  0.3174
28337SOL    HW186685   9.151   8.342   7.654  0.0054 -1.5510  0.6344
28337SOL    HW286686   9.295   8.318   7.695  0.2041 -0.2973  0.6998
28338SOL     OW86687   5.920   7.819   2.227 -0.5227 -0.1621  0.4750
28338SOL    HW186688   5.918   7.906   2.266 -1.6188  0.0764 -0.0587
28338SOL    HW286689   5.944   7.834   2.136 -1.2302 -0.3463  0.2467
28339SOL     OW86690   7.168   5.140   2.282 -0.2681 -0.2750 -0.0631
28339SOL    HW186691   7.128   5.167   2.200  0.6797  2.9734  0.3951
28339SOL    HW286692   7.143   5.208   2.345  0.8403 -1.4743  1.7873
28340SOL     OW86693   9.632   6.391   3.991  0.0834 -0.1110 -0.1972
28340SOL    HW186694   9.652   6.422   3.903 -0.3777  1.5266  0.2504
28340SOL    HW286695   9.559   6.329   3.979 -0.1802  0.3339 -0.9285
28341SOL     OW86696   3.325   5.120   3.305  0.5443  0.0256 -0.0022
28341SOL    HW186697   3.243   5.116   3.257  0.7566  1.4025 -0.5389
28341SOL    HW286698   3.356   5.210   3.291  1.3453  0.0078  1.5041
28342SOL     OW86699   0.615   7.378   3.995  0.0530  0.1542  0.4588
28342SOL    HW186700   0.572   7.310   3.943  0.1176  0.0600  0.5283
28342SOL    HW286701   0.546   7.443   4.010  0.4970  1.1111 -1.3335
28343SOL     OW86702   1.332   2.395   1.738 -0.3954 -0.2206 -0.1110
28343SOL    HW186703   1.256   2.421   1.789 -0.2086 -1.6430  0.9465
28343SOL    HW286704   1.407   2.413   1.795 -0.1052 -0.8865 -0.2654
28344SOL     OW86705   7.976   2.152   2.261 -0.2389 -0.1220  0.2489
28344SOL    HW186706   8.007   2.227   2.212 -0.4700 -0.2852 -0.1515
28344SOL    HW286707   7.991   2.077   2.203  0.9946 -0.5428  1.0513
28345SOL     OW86708   3.147   7.300   9.600 -0.0501  0.6935 -0.4561
28345SOL    HW186709   3.110   7.259   9.522  1.1880 -0.1131 -0.6383
28345SOL    HW286710   3.134   7.236   9.669 -1.3393  1.4938  0.0853
28346SOL     OW86711   8.010   6.511   1.355 -0.2272 -0.2690 -0.2130
28346SOL    HW186712   7.965   6.574   1.297 -0.0992  1.0212  1.0240
28346SOL    HW286713   8.103   6.523   1.335 -0.2435 -0.6332 -0.5182
28347SOL     OW86714   5.169   7.832   0.535 -0.2331 -0.5096  0.4735
28347SOL    HW186715   5.125   7.914   0.556 -0.3589 -0.9084  1.8991
28347SOL    HW286716   5.138   7.770   0.601 -1.3634 -2.1727 -1.5062
28348SOL     OW86717   9.233   0.498   2.123  0.5267 -0.1642  1.0164
28348SOL    HW186718   9.157   0.484   2.180  1.0852 -1.2886  1.5166
28348SOL    HW286719   9.288   0.422   2.138  0.2464 -1.0343 -1.7742
28349SOL     OW86720   9.317   3.694   5.755  0.0590  0.4657 -0.1684
28349SOL    HW186721   9.410   3.701   5.735 -0.1287  0.6781 -1.0213
28349SOL    HW286722   9.274   3.695   5.669 -0.7858  1.2486  0.2513
28350SOL     OW86723   5.125   5.979   8.179  0.5050  0.0552 -0.7291
28350SOL    HW186724   5.033   6.003   8.173 -0.0828 -1.7002  0.6646
28350SOL    HW286725   5.172   6.061   8.160 -1.2041  0.3451 -4.6433
28351SOL     OW86726   8.640   9.023   7.104 -0.0267 -0.2930 -0.2820
28351SOL    HW186727   8.642   9.088   7.033 -2.9028  0.9031  0.5979
28351SOL    HW286728   8.654   9.074   7.184 -2.0068 -0.7392  0.3994
28352SOL     OW86729   5.294   1.690   1.876  0.2575  0.0340 -0.5198
28352SOL    HW186730   5.363   1.666   1.938  0.7263  0.2329 -0.9542
28352SOL    HW286731   5.340   1.704   1.794 -0.1728  1.1537 -0.5838
28353SOL     OW86732   7.053   3.672   0.649 -0.4565 -0.0673  0.5182
28353SOL    HW186733   7.141   3.673   0.610  0.1968  0.4771  1.9342
28353SOL    HW286734   6.996   3.640   0.579  0.4104  2.2107 -1.3425
28354SOL     OW86735   1.744   6.645   0.491  0.4356  0.1428  0.7112
28354SOL    HW186736   1.752   6.552   0.510  0.5096  0.1517  0.7244
28354SOL    HW286737   1.726   6.649   0.397 -2.1008 -0.0077  1.1289
28355SOL     OW86738   8.626   0.870   7.591  0.5100  0.0172  0.1835
28355SOL    HW186739   8.542   0.865   7.636 -0.7640 -1.2990 -2.1882
28355SOL    HW286740   8.644   0.964   7.583 -0.6973  0.3086  0.7111
28356SOL     OW86741   5.446   5.168   8.371  0.0633  0.0068 -0.3915
28356SOL    HW186742   5.430   5.116   8.292  1.1375 -0.8364 -0.0748
28356SOL    HW286743   5.404   5.252   8.353 -1.2911 -0.7806 -1.1118
28357SOL     OW86744   6.226   3.793   8.800  0.0857 -0.0151 -0.0111
28357SOL    HW186745   6.198   3.884   8.795  1.4971  0.5800  1.9716
28357SOL    HW286746   6.314   3.793   8.762 -0.3574 -0.8025 -1.0816
28358SOL     OW86747   4.066   0.738   2.952  0.5993  0.0886  0.4992
28358SOL    HW186748   4.089   0.698   3.036  0.3564 -1.7265 -0.2531
28358SOL    HW286749   4.053   0.664   2.893 -0.4620  1.2751 -0.8331
28359SOL     OW86750   6.561   3.791   8.958 -0.4790  0.3277 -0.6073
28359SOL    HW186751   6.551   3.773   8.864 -1.0621  0.3716 -0.5610
28359SOL    HW286752   6.646   3.834   8.965 -0.3995  0.2677 -1.1083
28360SOL     OW86753   3.894   0.231   1.391 -0.8337  0.7279 -0.1652
28360SOL    HW186754   3.899   0.326   1.394  0.9246  0.6566  0.4362
28360SOL    HW286755   3.811   0.210   1.433 -1.1167  1.9762 -0.0585
28361SOL     OW86756   1.652   2.261   2.953 -0.3115  0.1050  0.1763
28361SOL    HW186757   1.596   2.271   3.030 -0.4942  1.1695 -0.0744
28361SOL    HW286758   1.658   2.349   2.916  0.9734 -0.1089 -0.1950
28362SOL     OW86759   1.933   6.510   4.171 -0.0586  0.3445  0.1154
28362SOL    HW186760   1.961   6.571   4.103 -0.0662 -0.0527 -0.2483
28362SOL    HW286761   1.939   6.424   4.130 -2.4010  0.2661 -0.1911
28363SOL     OW86762   1.570   2.383   6.390  0.0327  0.4324  0.1110
28363SOL    HW186763   1.652   2.425   6.364  0.3169 -0.2632 -0.1488
28363SOL    HW286764   1.505   2.453   6.385  0.1907  0.5007 -1.8883
28364SOL     OW86765   7.968   8.774   6.836 -0.2436  0.2068 -0.1142
28364SOL    HW186766   8.037   8.715   6.804  1.6328  1.1311  1.9448
28364SOL    HW286767   7.974   8.850   6.779  1.0772  0.6295  0.5426
28365SOL     OW86768   5.134   0.365   2.094  0.4568 -0.0053 -0.2937
28365SOL    HW186769   5.211   0.316   2.123  0.5003  0.1728 -0.1063
28365SOL    HW286770   5.130   0.440   2.153  0.3598  0.1884 -0.5445
28366SOL     OW86771   0.431   6.104   2.207  0.1008 -0.3713  0.1152
28366SOL    HW186772   0.461   6.107   2.298  0.2959 -1.5193  0.1085
28366SOL    HW286773   0.501   6.057   2.161  0.9516  1.8484 -1.0367
28367SOL     OW86774   0.739   1.266   0.661  0.1636 -0.0045 -0.7667
28367SOL    HW186775   0.725   1.359   0.679  0.7544 -0.0130 -0.2333
28367SOL    HW286776   0.745   1.225   0.747  0.0523 -0.5182 -0.9980
28368SOL     OW86777   6.909   2.973   3.444  0.0231  0.2488  0.0283
28368SOL    HW186778   6.825   3.017   3.453  0.7965  1.7564  0.1242
28368SOL    HW286779   6.971   3.029   3.490  1.1110 -0.7653 -0.1528
28369SOL     OW86780   5.005   5.605   8.341 -0.4861 -0.3729  0.0201
28369SOL    HW186781   4.998   5.689   8.386  1.0555 -1.1128  1.7857
28369SOL    HW286782   4.988   5.625   8.249 -1.7520  1.5591  0.6152
28370SOL     OW86783   6.655   0.236   5.531 -1.0957 -0.2871  0.1960
28370SOL    HW186784   6.600   0.309   5.559  0.2483  0.8746 -0.0638
28370SOL    HW286785   6.664   0.248   5.436 -0.8475 -0.7704  0.1592
28371SOL     OW86786   6.002   3.565   4.422  0.6591 -0.2737  0.9797
28371SOL    HW186787   5.998   3.636   4.486 -0.3367  2.7487 -2.1272
28371SOL    HW286788   6.091   3.569   4.387 -0.1078  1.3412 -0.9923
28372SOL     OW86789   8.516   6.448   2.953  0.6473 -0.7931 -0.0647
28372SOL    HW186790   8.473   6.528   2.984  1.1967 -0.3349 -0.4611
28372SOL    HW286791   8.606   6.455   2.986  0.4880 -1.6652  0.6219
28373SOL     OW86792   4.162   5.256   2.851  0.2764 -0.1225 -0.4525
28373SOL    HW186793   4.161   5.342   2.893 -0.2248  0.6198 -1.9066
28373SOL    HW286794   4.216   5.202   2.908 -1.1135  0.5589  1.6101
28374SOL     OW86795   4.980   0.372   8.192  0.5260 -0.2610 -0.2108
28374SOL    HW186796   4.924   0.392   8.118 -1.1233  0.2131  1.0954
28374SOL    HW286797   5.066   0.351   8.154 -0.2749 -0.0454 -2.2017
28375SOL     OW86798   4.797   2.070   1.179 -0.0822 -0.0485 -0.7138
28375SOL    HW186799   4.836   2.079   1.266  0.2955 -1.5354 -0.6917
28375SOL    HW286800   4.703   2.073   1.195 -0.0462 -1.4103 -0.0682
28376SOL     OW86801   8.999   4.494   9.161 -0.0178 -0.0336 -0.7361
28376SOL    HW186802   8.962   4.422   9.213  3.0019 -0.8368  0.5079
28376SOL    HW286803   9.067   4.452   9.108  1.0743  1.7465 -0.8008
28377SOL     OW86804   5.114   7.757   0.195 -0.0288  0.2242  0.3857
28377SOL    HW186805   5.072   7.747   0.109  0.4002  0.3359  0.1598
28377SOL    HW286806   5.201   7.791   0.175  1.5368 -3.2823  0.5755
28378SOL     OW86807   4.704   3.732   5.636 -0.5034  0.0102  0.1552
28378SOL    HW186808   4.782   3.734   5.581  0.5286  1.3569  1.5855
28378SOL    HW286809   4.719   3.662   5.699 -0.1592  0.6538  0.8023
28379SOL     OW86810   1.677   1.916   7.642 -0.6998  0.5376 -0.2519
28379SOL    HW186811   1.767   1.932   7.671 -0.8029  0.3721  0.1581
28379SOL    HW286812   1.624   1.924   7.721 -0.9829  0.0815 -0.3913
28380SOL     OW86813   4.133   8.942   2.078 -0.0077 -0.4171 -0.2909
28380SOL    HW186814   4.213   8.995   2.078 -0.6663  0.6276 -0.1285
28380SOL    HW286815   4.107   8.939   2.171 -2.0452  2.3441 -0.6098
28381SOL     OW86816   8.333   7.952   4.531  0.8748  0.1703  0.3208
28381SOL    HW186817   8.242   7.962   4.560  0.0054 -1.9931 -1.2835
28381SOL    HW286818   8.379   7.919   4.607 -0.0244 -0.0053  0.8081
28382SOL     OW86819   7.489   5.855   0.972  0.6786 -0.2787 -0.5146
28382SOL    HW186820   7.432   5.799   1.025  0.1114  0.8590  0.1197
28382SOL    HW286821   7.560   5.797   0.944  0.1532 -1.2911  0.1733
28383SOL     OW86822   8.064   9.012   1.490  0.5026  0.3405 -0.1921
28383SOL    HW186823   8.119   9.085   1.463 -0.8840  1.6149  0.2733
28383SOL    HW286824   8.023   9.043   1.571 -0.4455 -0.7860 -0.2268
28384SOL     OW86825   7.222   4.308   3.594 -0.6246  0.4634 -0.3030
28384SOL    HW186826   7.141   4.360   3.604  0.4108  2.4812 -1.7013
28384SOL    HW286827   7.288   4.372   3.569  1.1780 -1.3272 -0.3377
28385SOL     OW86828   3.687   8.552   1.392  0.2383 -0.4926 -0.5124
28385SOL    HW186829   3.737   8.486   1.440 -0.2688  0.0649  0.8344
28385SOL    HW286830   3.711   8.538   1.301  1.8738 -1.0669 -0.0380
28386SOL     OW86831   8.392   2.826   9.433 -0.2103 -0.1838 -0.4563
28386SOL    HW186832   8.451   2.751   9.424  1.1261  0.5157  1.6984
28386SOL    HW286833   8.346   2.811   9.516 -0.6360  0.9198 -0.4720
28387SOL     OW86834   3.365   6.031   6.273 -0.2004 -0.3789  0.4219
28387SOL    HW186835   3.426   6.027   6.199  1.0924 -1.1848  1.4787
28387SOL    HW286836   3.280   6.015   6.234  0.0731  1.7488 -1.2574
28388SOL     OW86837   6.600   8.213   1.932  0.3282  0.2240 -0.8372
28388SOL    HW186838   6.654   8.140   1.962  0.2601 -0.2800 -1.8997
28388SOL    HW286839   6.540   8.175   1.868 -1.8391  0.6288  0.8435
28389SOL     OW86840   2.772   1.033   4.549 -0.0750  0.1717  0.4144
28389SOL    HW186841   2.764   1.036   4.454 -0.7942 -0.4777  0.4461
28389SOL    HW286842   2.682   1.043   4.581 -0.1575 -1.9020  0.9615
28390SOL     OW86843   8.036   7.168   5.789 -0.4593 -0.2191 -0.0418
28390SOL    HW186844   7.991   7.252   5.788 -1.3873 -0.6676  1.2565
28390SOL    HW286845   7.968   7.105   5.766  0.4009 -0.5746 -1.7896
28391SOL     OW86846   4.223   0.024   5.132  0.2564 -0.0675 -0.2099
28391SOL    HW186847   4.140   0.052   5.172 -0.6105 -1.9863 -0.5309
28391SOL    HW286848   4.284   0.018   5.206 -0.5125 -0.7127  0.3991
28392SOL     OW86849   5.293   6.787   1.881 -1.1272 -0.0310 -0.4738
28392SOL    HW186850   5.270   6.821   1.968 -1.7102  0.7877 -0.9350
28392SOL    HW286851   5.255   6.850   1.820  0.6425  0.2905 -1.3152
28393SOL     OW86852   0.133   4.839   5.554 -0.1897  0.0191  0.2539
28393SOL    HW186853   0.106   4.916   5.604  0.0289  1.9850 -2.4143
28393SOL    HW286854   0.071   4.836   5.481  0.7816 -1.3863 -0.5477
28394SOL     OW86855   4.252   3.186   3.504 -0.1962  0.0416  0.2164
28394SOL    HW186856   4.298   3.178   3.420 -1.8324 -0.2015 -0.7032
28394SOL    HW286857   4.271   3.275   3.533  1.0792 -0.1501  0.0361
28395SOL     OW86858   5.887   3.240   8.277  0.0666  0.1014  0.7080
28395SOL    HW186859   5.887   3.302   8.351  0.5663  0.0760  0.7281
28395SOL    HW286860   5.976   3.205   8.275  0.1388  0.3259 -0.0956
28396SOL     OW86861   4.121   7.215   0.173 -0.6424 -0.1151 -0.3491
28396SOL    HW186862   4.027   7.210   0.184 -0.5991 -1.0363 -0.3289
28396SOL    HW286863   4.154   7.132   0.208  0.0925 -0.1809 -1.1563
28397SOL     OW86864   7.081   0.855   0.139  0.8480  0.0599  0.0439
28397SOL    HW186865   7.048   0.790   0.201  0.8341 -1.7186 -1.7219
28397SOL    HW286866   7.012   0.921   0.134 -0.5058 -1.3052 -0.2553
28398SOL     OW86867   5.392   9.335   1.482 -0.0205 -0.4363 -0.0700
28398SOL    HW186868   5.389   9.255   1.534 -0.5166 -0.8285 -0.6841
28398SOL    HW286869   5.418   9.403   1.544  2.2618 -1.3638  0.0886
28399SOL     OW86870   3.945   4.940   0.648 -0.4278  0.6654  0.4208
28399SOL    HW186871   3.957   4.925   0.554 -2.4726 -0.2101  0.2452
28399SOL    HW286872   3.925   5.033   0.655  3.2168  1.5903  0.4685
28400SOL     OW86873   8.501   4.556   1.631  0.3605 -0.0020 -0.4887
28400SOL    HW186874   8.577   4.538   1.575  1.8609 -1.4462  1.8308
28400SOL    HW286875   8.527   4.523   1.717 -3.0622 -0.8965  0.3307
28401SOL     OW86876   9.185   2.874   9.241 -0.5031  0.2216  0.2256
28401SOL    HW186877   9.275   2.856   9.214 -0.6745  0.5195 -0.5608
28401SOL    HW286878   9.135   2.876   9.159 -1.1541  0.4449  0.6214
28402SOL     OW86879   6.836   1.985   9.219 -0.0934 -0.3292 -0.1208
28402SOL    HW186880   6.829   1.891   9.205 -0.3610 -0.3258 -0.0138
28402SOL    HW286881   6.825   1.997   9.313 -3.3780  0.0811 -0.4340
28403SOL     OW86882   8.571   8.636   6.613  0.4749 -0.0313 -0.3509
28403SOL    HW186883   8.497   8.579   6.634  0.9989 -0.6400 -0.1288
28403SOL    HW286884   8.636   8.578   6.573  0.7565  0.5346 -0.7344
28404SOL     OW86885   1.416   2.977   0.386 -0.0254  0.0773  0.4341
28404SOL    HW186886   1.323   2.956   0.396 -0.5468  2.1275  0.3686
28404SOL    HW286887   1.453   2.903   0.338 -1.7691 -0.4454 -0.1489
28405SOL     OW86888   5.782   1.671   3.348  0.0162 -0.1764  0.7297
28405SOL    HW186889   5.806   1.617   3.273 -0.6172  0.9657 -0.3414
28405SOL    HW286890   5.699   1.634   3.379 -0.0137 -0.3063  0.4948
28406SOL     OW86891   3.959   1.671   0.188  0.3626  0.3980 -0.3438
28406SOL    HW186892   4.047   1.697   0.213  0.7988 -0.7380 -0.6497
28406SOL    HW286893   3.956   1.681   0.093  0.5755 -0.7272 -0.4813
28407SOL     OW86894   6.724   6.519   4.846  0.3257  0.2309 -0.0507
28407SOL    HW186895   6.753   6.450   4.905  2.1496  0.6520 -0.4207
28407SOL    HW286896   6.662   6.570   4.899 -2.7188 -2.7583 -0.3924
28408SOL     OW86897   6.279   5.422   4.832 -0.1010  0.4450 -0.4244
28408SOL    HW186898   6.297   5.424   4.925 -0.9190 -0.5581 -0.2211
28408SOL    HW286899   6.217   5.494   4.818  0.0823  0.6447 -0.2046
28409SOL     OW86900   2.148   1.730   8.734 -0.1549  0.0582  0.2580
28409SOL    HW186901   2.213   1.669   8.767  1.3052  0.5666 -1.5235
28409SOL    HW286902   2.080   1.675   8.695 -0.0012 -0.4516  0.7015
28410SOL     OW86903   7.875   6.629   2.104 -0.3542  0.3033 -0.1283
28410SOL    HW186904   7.805   6.569   2.130 -1.3006  2.2984  2.2715
28410SOL    HW286905   7.940   6.623   2.175  0.6858  0.4088 -1.0347
28411SOL     OW86906   7.192   6.824   7.085 -0.5074  0.5414  0.1370
28411SOL    HW186907   7.106   6.813   7.045 -0.4125 -0.8765  0.2510
28411SOL    HW286908   7.193   6.914   7.117 -1.5944  0.8572 -0.6803
28412SOL     OW86909   4.448   8.638   7.064  0.4784  0.5091  0.1470
28412SOL    HW186910   4.525   8.682   7.027 -0.6231  0.9999 -1.6824
28412SOL    HW286911   4.449   8.551   7.024 -0.5012  0.9059 -0.7990
28413SOL     OW86912   8.327   5.560   1.650 -0.3556 -0.0408 -0.1578
28413SOL    HW186913   8.237   5.539   1.624 -0.2179 -0.3993 -0.3512
28413SOL    HW286914   8.345   5.645   1.609 -0.2877 -0.4035 -0.9040
28414SOL     OW86915   3.865   6.669   0.447 -0.2243 -0.4048 -0.4814
28414SOL    HW186916   3.868   6.678   0.352 -0.9353 -2.6793 -0.7935
28414SOL    HW286917   3.928   6.733   0.479 -0.1840  0.6322 -2.4516
28415SOL     OW86918   6.432   4.571   6.513  0.1835 -0.1508  0.2643
28415SOL    HW186919   6.473   4.610   6.436  0.7752  1.2864  1.2643
28415SOL    HW286920   6.350   4.618   6.524  0.5430  0.3253  1.0375
28416SOL     OW86921   0.033   9.323   1.213  0.0487 -0.3794  0.2090
28416SOL    HW186922   0.022   9.390   1.280  0.7867 -0.7583  0.7264
28416SOL    HW286923  -0.053   9.282   1.205 -0.2316  0.1683  0.3784
28417SOL     OW86924   9.485   8.687   5.899 -0.5661 -0.6883 -0.1642
28417SOL    HW186925   9.493   8.626   5.825  0.6462 -2.0247  0.9871
28417SOL    HW286926   9.558   8.748   5.888  0.8904 -2.1319  0.9418
28418SOL     OW86927   7.043   2.531   7.665  0.3967  0.1393  0.0035
28418SOL    HW186928   7.065   2.620   7.637  1.1939 -0.7570 -2.5256
28418SOL    HW286929   6.947   2.528   7.663  0.2753  1.4129  1.9128
28419SOL     OW86930   0.882   7.070   9.561  0.2898 -0.1291  0.0392
28419SOL    HW186931   0.817   7.003   9.541  0.2793 -0.1050 -0.0069
28419SOL    HW286932   0.881   7.077   9.656  0.2596 -0.1629  0.0413
28420SOL     OW86933   2.871   7.920   0.769 -0.3006  0.3123 -0.2540
28420SOL    HW186934   2.875   8.014   0.784 -0.6427  0.3197 -0.1924
28420SOL    HW286935   2.874   7.911   0.674 -3.3150  0.5834 -0.4801
28421SOL     OW86936   1.759   3.272   0.442  0.2093  0.2888 -0.3275
28421SOL    HW186937   1.795   3.357   0.469  0.3888 -0.4506  1.9222
28421SOL    HW286938   1.834   3.212   0.446 -0.4480 -0.4959  0.7553
28422SOL     OW86939   7.786   3.371   4.392  0.6843  0.0379  0.1152
28422SOL    HW186940   7.836   3.301   4.352 -1.4422 -1.2460 -0.4306
28422SOL    HW286941   7.786   3.351   4.486  0.6387 -0.3242  0.0365
28423SOL     OW86942   0.135   3.801   5.706 -0.2257 -0.2820 -0.0681
28423SOL    HW186943   0.197   3.861   5.749 -0.0397 -1.0329  0.7450
28423SOL    HW286944   0.108   3.847   5.627  1.7230 -0.1012 -0.6848
28424SOL     OW86945   2.728   7.563   7.316  0.4715 -0.1384 -0.1289
28424SOL    HW186946   2.709   7.493   7.379 -0.0036  1.0782  1.1332
28424SOL    HW286947   2.809   7.602   7.348  0.9805 -0.3849 -1.0919
28425SOL     OW86948   7.574   1.745   1.946  0.5705 -0.7868 -0.2064
28425SOL    HW186949   7.630   1.713   1.876  0.0929 -0.1807 -0.8671
28425SOL    HW286950   7.634   1.764   2.018  1.2409  0.0172 -0.9612
28426SOL     OW86951   8.652   3.254   5.470  0.1473  0.4128  0.1671
28426SOL    HW186952   8.650   3.346   5.497  2.0418  0.8384 -0.9592
28426SOL    HW286953   8.563   3.237   5.439 -0.9476  1.0728  2.6701
28427SOL     OW86954   0.673   3.016   6.677  0.8037 -0.0529 -0.0403
28427SOL    HW186955   0.749   3.069   6.653 -0.1696  0.7995 -1.4197
28427SOL    HW286956   0.598   3.076   6.669 -0.0620 -0.9409  0.9937
28428SOL     OW86957   0.179   0.082   3.994 -0.7441 -0.2176  0.2421
28428SOL    HW186958   0.237   0.033   4.053  0.6888 -1.1998 -1.8676
28428SOL    HW286959   0.101   0.027   3.986 -0.6800 -0.3842  0.7284
28429SOL     OW86960   5.256   3.674   6.484  0.6369 -0.1439  0.0140
28429SOL    HW186961   5.257   3.693   6.390 -0.0403  0.3239  0.0888
28429SOL    HW286962   5.164   3.655   6.503  1.0957 -2.4213  0.1844
28430SOL     OW86963   7.473   3.188   6.563 -0.1625 -0.0608 -0.1587
28430SOL    HW186964   7.544   3.245   6.592  0.4800 -0.5460 -0.7726
28430SOL    HW286965   7.394   3.227   6.602  0.1429  1.7417 -1.2580
28431SOL     OW86966   8.124   9.050   8.597 -0.3521 -0.0628  0.1166
28431SOL    HW186967   8.153   9.032   8.686 -1.3675 -0.8729  0.3028
28431SOL    HW286968   8.153   9.140   8.579 -0.1746  0.1172  1.2731
28432SOL     OW86969   0.974   1.387   0.127 -0.1795 -0.3956  0.2412
28432SOL    HW186970   1.032   1.453   0.166 -0.6300  0.4749 -0.5425
28432SOL    HW286971   0.946   1.334   0.202 -0.0385  0.4672  0.9269
28433SOL     OW86972   3.324   9.031   2.221 -0.4692 -0.0938  0.2909
28433SOL    HW186973   3.276   8.975   2.282 -0.3091 -1.1084 -0.5025
28433SOL    HW286974   3.388   9.077   2.275 -1.0140 -0.2047  1.0430
28434SOL     OW86975   3.323   5.647   8.811  0.3641  0.1031  0.1858
28434SOL    HW186976   3.319   5.735   8.775  0.0238  0.6032  1.3843
28434SOL    HW286977   3.237   5.635   8.853  0.3446 -0.8673 -0.1010
28435SOL     OW86978   9.202   1.130   2.409  0.0832 -0.1537 -0.5118
28435SOL    HW186979   9.289   1.152   2.441 -0.2999  0.3070  0.2103
28435SOL    HW286980   9.219   1.079   2.329  1.0714 -1.9534  0.7584
28436SOL     OW86981   3.179   1.575   0.906  0.1148 -0.1287  0.3090
28436SOL    HW186982   3.101   1.568   0.961  0.4704 -1.1264  0.6994
28436SOL    HW286983   3.249   1.599   0.966  0.3961 -0.6996  0.2213
28437SOL     OW86984   2.694   0.786   1.146  0.3744 -0.4553  0.0296
28437SOL    HW186985   2.658   0.711   1.193  2.5785 -0.8085  1.2875
28437SOL    HW286986   2.654   0.863   1.187  1.1033 -0.8266  1.4659
28438SOL     OW86987   8.074   9.469   0.568 -0.0344  1.0308 -0.0974
28438SOL    HW186988   8.128   9.545   0.586  2.8559 -1.1586  1.3256
28438SOL    HW286989   8.114   9.429   0.491  0.1876 -0.4173  0.7343
28439SOL     OW86990   1.431   0.365   1.858  0.5245 -0.8216 -0.1342
28439SOL    HW186991   1.360   0.426   1.878 -1.2019 -3.1834  1.5848
28439SOL    HW286992   1.507   0.400   1.906 -0.2428  0.2566  0.3306
28440SOL     OW86993   9.004   6.506   7.993 -0.3365 -0.6556 -0.3604
28440SOL    HW186994   8.980   6.593   7.962 -1.0649 -0.2431  1.2293
28440SOL    HW286995   8.921   6.459   8.000 -0.1461 -0.9111  0.3467
28441SOL     OW86996   7.785   4.761   8.564 -0.1137  0.2783  0.0634
28441SOL    HW186997   7.826   4.697   8.622  3.3202  0.6974 -1.6568
28441SOL    HW286998   7.735   4.708   8.502  2.3174 -0.8299 -1.0747
28442SOL     OW86999   5.183   5.058   1.614 -0.4907 -0.1851  0.6512
28442SOL    HW187000   5.271   5.052   1.651  0.0606 -0.9241 -0.6973
28442SOL    HW287001   5.182   5.141   1.566  0.7546 -1.7424 -2.3141
28443SOL     OW87002   2.953   0.690   3.586 -1.1632  0.3303  0.4188
28443SOL    HW187003   3.032   0.706   3.534 -1.1565  0.1525  0.3723
28443SOL    HW287004   2.985   0.650   3.667 -0.9899  2.3474  1.4088
28444SOL     OW87005   6.917   7.953   9.670 -0.1134  0.1799  0.1753
28444SOL    HW187006   6.889   8.039   9.640 -1.7926 -0.1928  0.5634
28444SOL    HW287007   6.987   7.927   9.609 -1.7145  0.4870 -1.8911
28445SOL     OW87008   3.479   6.692   6.546 -0.2981 -0.0404 -0.0465
28445SOL    HW187009   3.476   6.763   6.611  0.5817 -0.7470  0.7895
28445SOL    HW287010   3.472   6.737   6.462  0.1092  1.0314  0.4727
28446SOL     OW87011   1.029   0.592   4.401 -0.3022  0.2661 -0.1167
28446SOL    HW187012   0.998   0.674   4.439  0.4021  1.1577 -1.3621
28446SOL    HW287013   1.124   0.594   4.414 -0.2788 -0.3534 -0.1613
28447SOL     OW87014   5.766   0.732   9.426  0.3768 -0.7265  0.0411
28447SOL    HW187015   5.747   0.726   9.333  0.4744 -1.5061  0.0694
28447SOL    HW287016   5.846   0.786   9.431  1.5136 -2.3033 -0.4704
28448SOL     OW87017   3.665   5.388   2.004  0.1183  0.4958 -0.5186
28448SOL    HW187018   3.618   5.329   2.063 -0.3799  1.2990 -0.0952
28448SOL    HW287019   3.676   5.469   2.054  1.2088  0.6162 -0.9231
28449SOL     OW87020   0.177   9.294   3.676 -0.7787  0.0180 -0.2682
28449SOL    HW187021   0.148   9.225   3.735 -2.9390 -0.4371 -1.7334
28449SOL    HW287022   0.130   9.277   3.595  3.2424 -0.3461 -2.7818
28450SOL     OW87023   5.315   7.250   2.262 -0.3419 -0.5851 -0.4719
28450SOL    HW187024   5.307   7.315   2.192  0.1186  0.5364  0.4831
28450SOL    HW287025   5.293   7.167   2.220 -1.4760  0.2473 -1.5975
28451SOL     OW87026   7.824   6.052   5.786 -0.5169  0.1688  0.7633
28451SOL    HW187027   7.829   5.968   5.742 -0.7422  0.0105  1.0335
28451SOL    HW287028   7.778   6.109   5.724  1.6792  0.7673 -0.4101
28452SOL     OW87029   1.596   8.160   4.565 -0.3283 -0.2521 -0.2884
28452SOL    HW187030   1.542   8.082   4.570 -0.0460 -0.4836 -0.8079
28452SOL    HW287031   1.539   8.231   4.594 -0.5804 -0.6471  0.2059
28453SOL     OW87032   5.005   5.324   5.531 -0.1840  0.7423 -0.6491
28453SOL    HW187033   5.092   5.325   5.570 -1.0385 -0.9143  1.4961
28453SOL    HW287034   4.950   5.371   5.594 -1.3563 -0.7491 -0.5207
28454SOL     OW87035   7.405   4.139   7.452 -0.0048  0.0881 -0.2982
28454SOL    HW187036   7.335   4.088   7.413 -1.8370  0.4708  2.2202
28454SOL    HW287037   7.414   4.105   7.541  1.5342  1.4790  0.1524
28455SOL     OW87038   5.416   1.194   4.812  0.2811  0.1162 -0.2335
28455SOL    HW187039   5.466   1.113   4.801 -0.1520 -0.6960  2.8784
28455SOL    HW287040   5.480   1.258   4.844 -0.0086  0.0074  0.5866
28456SOL     OW87041   3.140   0.220   5.674 -0.4106  0.2192 -0.3675
28456SOL    HW187042   3.109   0.212   5.584  0.9693  2.1977 -1.0730
28456SOL    HW287043   3.127   0.312   5.697 -1.2423 -0.3500  1.6828
28457SOL     OW87044   2.810   3.188   3.324 -0.1913 -0.3746 -0.2924
28457SOL    HW187045   2.774   3.277   3.317  0.4152 -0.1622 -0.7831
28457SOL    HW287046   2.765   3.150   3.400 -2.4096 -0.5882 -1.6285
28458SOL     OW87047   0.984   7.263   2.093  0.0340  0.4190 -0.4244
28458SOL    HW187048   0.920   7.192   2.090  2.0157 -1.5706  1.1454
28458SOL    HW287049   0.972   7.303   2.179  0.6903  0.1908 -0.2169
28459SOL     OW87050   4.100   9.493   4.972 -0.3153 -0.3962  0.1056
28459SOL    HW187051   4.020   9.502   5.024  0.3386 -0.3822  1.1518
28459SOL    HW287052   4.153   9.568   4.997 -0.5882  0.4497 -1.7559
28460SOL     OW87053   2.093   6.795   2.805 -0.3354 -0.2284  0.1843
28460SOL    HW187054   2.098   6.700   2.813  0.6756 -0.2138 -0.0516
28460SOL    HW287055   2.144   6.814   2.726  0.1012  0.5636  0.6443
28461SOL     OW87056   6.584   1.466   7.208 -0.1782  0.1616  0.0469
28461SOL    HW187057   6.615   1.555   7.189  0.8327 -0.3882 -0.9697
28461SOL    HW287058   6.494   1.465   7.175  0.0713  0.5709 -0.6713
28462SOL     OW87059   1.893   9.380   0.957 -0.0651 -0.4056 -0.1227
28462SOL    HW187060   1.873   9.451   0.895  0.0337  0.3538  0.6930
28462SOL    HW287061   1.944   9.317   0.905  0.8404  0.6669 -0.5927
28463SOL     OW87062   2.230   8.272   5.789  0.5308  0.5332  0.0090
28463SOL    HW187063   2.291   8.337   5.755  2.4388 -1.4842 -0.6029
28463SOL    HW287064   2.186   8.317   5.861  1.9432  2.4135 -0.2149
28464SOL     OW87065   4.987   0.938   6.708  0.2096  0.5732  0.4015
28464SOL    HW187066   4.998   0.844   6.696  1.9717  0.7471  0.3938
28464SOL    HW287067   4.895   0.954   6.689 -0.0192 -1.0737 -0.0363
28465SOL     OW87068   8.313   8.201   0.568 -0.1196  0.4141 -0.9555
28465SOL    HW187069   8.371   8.128   0.590  2.4214  1.8463 -2.3183
28465SOL    HW287070   8.298   8.192   0.474 -1.9208  0.2770 -0.6920
28466SOL     OW87071   2.715   5.779   5.069  0.0733 -0.0371 -0.1293
28466SOL    HW187072   2.745   5.829   5.145 -1.9020 -1.6349  1.8450
28466SOL    HW287073   2.661   5.840   5.019 -0.5370  0.4337  1.0595
28467SOL     OW87074   6.354   2.807   2.550 -0.0397 -0.7858  0.3468
28467SOL    HW187075   6.336   2.733   2.493 -1.2619 -0.2017 -0.0462
28467SOL    HW287076   6.419   2.859   2.502 -0.2599 -0.8575 -0.0314
28468SOL     OW87077   6.101   8.949   3.264 -0.1523 -0.1428 -0.1665
28468SOL    HW187078   6.068   8.867   3.302  1.1968 -0.7663 -0.2785
28468SOL    HW287079   6.025   8.986   3.218 -1.0958 -0.7278  0.8632
28469SOL     OW87080   6.561   7.354   8.875 -0.0119 -0.4559 -0.0707
28469SOL    HW187081   6.558   7.326   8.966 -0.1754 -0.4066 -0.0593
28469SOL    HW287082   6.470   7.379   8.855  0.4033  1.6201  0.4093
28470SOL     OW87083   9.603   0.761   5.224  0.0294 -0.0082  0.6134
28470SOL    HW187084   9.649   0.842   5.247  0.2489 -0.2625  1.0893
28470SOL    HW287085   9.514   0.789   5.204 -0.0807  0.2723  1.4525
28471SOL     OW87086   5.045   1.541   5.992  0.0754  0.1731 -0.2388
28471SOL    HW187087   5.108   1.492   6.045 -1.1006 -0.2024  0.8635
28471SOL    HW287088   4.973   1.560   6.052 -1.5093 -0.6242 -1.8059
28472SOL     OW87089   4.531   9.359   2.430  0.0620  0.2637  0.3410
28472SOL    HW187090   4.622   9.332   2.443 -0.0508 -0.8440 -1.0208
28472SOL    HW287091   4.488   9.340   2.513  0.5986 -1.2348  0.2932
28473SOL     OW87092   0.048   6.115   5.717  0.0091  0.4387 -0.1835
28473SOL    HW187093   0.008   6.028   5.712  0.5484  0.1112  0.8879
28473SOL    HW287094   0.142   6.098   5.724  0.0559  1.0424  0.9936
28474SOL     OW87095   2.823   7.340   3.330  0.0668 -0.1231  0.2463
28474SOL    HW187096   2.912   7.376   3.324  0.4333 -0.9946  0.2418
28474SOL    HW287097   2.831   7.252   3.293 -1.0365  0.1678 -0.7187
28475SOL     OW87098   1.256   6.436   3.745 -0.5172  0.1078  0.3316
28475SOL    HW187099   1.246   6.530   3.756 -2.1129 -0.2604  2.6117
28475SOL    HW287100   1.167   6.402   3.737 -0.0522 -1.3158  0.7859
28476SOL     OW87101   8.192   0.481   0.623  0.0039  0.2730  0.2451
28476SOL    HW187102   8.159   0.547   0.563  0.0911  0.7471  0.7109
28476SOL    HW287103   8.203   0.527   0.706 -0.8853 -0.5571  0.8416
28477SOL     OW87104   1.397   1.610   4.840 -0.5992 -0.0293 -0.6892
28477SOL    HW187105   1.421   1.700   4.820  0.6919  0.4420  2.4808
28477SOL    HW287106   1.457   1.557   4.788  1.4955  1.0495  0.5090
28478SOL     OW87107   5.916   2.636   8.971 -0.2799 -0.2133  0.8722
28478SOL    HW187108   5.947   2.706   9.028 -3.1390  0.3598  1.8765
28478SOL    HW287109   5.941   2.556   9.017 -0.2456  0.2048  1.6030
28479SOL     OW87110   7.034   4.207   0.945  0.6479  0.2718 -0.5063
28479SOL    HW187111   7.078   4.221   1.029 -0.4145  1.5200 -0.1182
28479SOL    HW287112   7.018   4.295   0.912  1.0958 -0.2064 -2.0664
28480SOL     OW87113   2.830   3.881   9.564  0.5716 -0.2688 -0.2400
28480SOL    HW187114   2.865   3.840   9.643  2.9727  0.5752 -0.7631
28480SOL    HW287115   2.779   3.955   9.596 -1.5178 -1.9761  0.5971
28481SOL     OW87116   8.467   5.767   1.540  0.4754  0.0338  0.5212
28481SOL    HW187117   8.561   5.785   1.547  0.8619 -1.6000  0.0082
28481SOL    HW287118   8.448   5.775   1.447 -0.4024  2.4744  0.8516
28482SOL     OW87119   9.195   8.065   7.391  0.6530 -0.4508  0.2170
28482SOL    HW187120   9.285   8.098   7.388  0.1950  0.8548  0.0612
28482SOL    HW287121   9.174   8.045   7.299  0.4793  0.1818  0.1075
28483SOL     OW87122   3.037   4.569   7.425 -0.1104  0.4021  0.8411
28483SOL    HW187123   3.018   4.661   7.409 -0.7399  0.1380 -0.0138
28483SOL    HW287124   2.998   4.523   7.351 -2.6900 -0.8471  2.7967
28484SOL     OW87125   3.243   7.985   1.429 -0.4569 -0.1315 -0.1012
28484SOL    HW187126   3.179   8.026   1.371 -0.8943 -1.3013 -0.4579
28484SOL    HW287127   3.190   7.943   1.497 -0.0492 -0.7162 -0.1436
28485SOL     OW87128   0.911   7.108   4.249  0.2480  0.2384  0.4330
28485SOL    HW187129   0.869   7.158   4.179  2.0355  0.5365 -0.5042
28485SOL    HW287130   0.945   7.174   4.310 -0.3741  0.0180  1.0284
28486SOL     OW87131   3.480   1.294   2.200 -0.5895  0.1293  0.0742
28486SOL    HW187132   3.559   1.242   2.191 -0.9362 -0.7222  1.6186
28486SOL    HW287133   3.417   1.254   2.140 -0.8239 -1.2076  1.1773
28487SOL     OW87134   8.145   3.628   1.486  0.2993  0.5490  0.4605
28487SOL    HW187135   8.236   3.636   1.458 -0.2181  1.4270 -1.0763
28487SOL    HW287136   8.094   3.640   1.406 -1.1907  0.8743  1.4196
28488SOL     OW87137   4.992   7.722   9.620 -0.0462  0.0519 -0.6063
28488SOL    HW187138   5.007   7.664   9.545 -0.7391 -0.4497 -0.3656
28488SOL    HW287139   5.010   7.810   9.586 -2.4456  0.0846 -1.9883
28489SOL     OW87140   5.362   0.083   1.823  0.4317 -0.2912  0.0033
28489SOL    HW187141   5.349   0.177   1.808 -1.2106 -0.6697 -1.1965
28489SOL    HW287142   5.445   0.078   1.870  0.1042  1.8314  0.9463
28490SOL     OW87143   2.869   0.110   0.100 -0.8337 -0.3059 -0.0845
28490SOL    HW187144   2.923   0.118   0.021  0.7081  2.2295  1.0936
28490SOL    HW287145   2.784   0.145   0.076 -0.6569 -0.3999 -0.8592
28491SOL     OW87146   1.898   6.938   8.326  0.0291 -0.1873 -0.2316
28491SOL    HW187147   1.880   7.030   8.306 -1.0319 -0.2762  0.2953
28491SOL    HW287148   1.972   6.916   8.268  1.5771  1.5052  0.9762
28492SOL     OW87149   0.042   8.685   8.460  0.7228 -0.1082 -0.5310
28492SOL    HW187150   0.001   8.721   8.539 -0.9762  0.7857 -1.7385
28492SOL    HW287151  -0.012   8.609   8.438  1.2179 -0.3848 -0.8067
28493SOL     OW87152   0.255   5.660   8.268  0.1579 -0.7587 -0.3659
28493SOL    HW187153   0.240   5.644   8.361 -0.2070  0.2365 -0.2407
28493SOL    HW287154   0.272   5.755   8.263 -1.6077 -0.4627 -1.5265
28494SOL     OW87155   4.987   1.901   2.047  0.0523  0.8538 -0.3148
28494SOL    HW187156   4.958   1.809   2.052  2.3368  0.0749 -0.0404
28494SOL    HW287157   4.938   1.938   1.975  0.4835 -1.1983 -1.7436
28495SOL     OW87158   7.896   4.395   7.159  0.2064  0.2178 -0.1329
28495SOL    HW187159   7.921   4.486   7.177 -0.8126  0.2173  1.4313
28495SOL    HW287160   7.808   4.387   7.195  1.0625 -1.9480  1.6371
28496SOL     OW87161   6.723   4.137   1.038 -0.0974  0.8064  0.5473
28496SOL    HW187162   6.662   4.063   1.036  1.7898 -0.8687  1.9513
28496SOL    HW287163   6.787   4.114   1.105  1.6263  2.8816 -0.2748
28497SOL     OW87164   4.201   1.983   6.025  0.1154  0.3987 -0.1362
28497SOL    HW187165   4.229   1.947   6.110  2.4174  0.2933 -0.8598
28497SOL    HW287166   4.237   2.071   6.024  1.1781 -0.0206 -1.4561
28498SOL     OW87167   4.507   6.661   7.214  0.0782 -0.3321  0.5685
28498SOL    HW187168   4.454   6.638   7.291  0.4562 -0.9948  0.6398
28498SOL    HW287169   4.520   6.755   7.221 -1.0245 -0.1676  0.5910
28499SOL     OW87170   5.420   3.068   4.384  0.3950  0.1466 -0.6019
28499SOL    HW187171   5.427   3.055   4.289 -0.5271 -0.7987 -0.5566
28499SOL    HW287172   5.409   2.980   4.419  0.6224  0.5005  0.3832
28500SOL     OW87173   8.346   3.995   6.995  0.2351  0.3689 -0.2494
28500SOL    HW187174   8.344   3.900   7.008  1.8487  0.4950  1.3637
28500SOL    HW287175   8.340   4.031   7.084  1.3708  1.7230 -0.6881
28501SOL     OW87176   0.697   4.703   0.993 -0.1253  0.1335  0.2773
28501SOL    HW187177   0.737   4.657   1.067 -0.8374  0.8525  1.1218
28501SOL    HW287178   0.623   4.649   0.967 -0.0183  0.0048  0.2373
28502SOL     OW87179   9.539   0.909   1.268  0.0341  0.1034  0.0275
28502SOL    HW187180   9.460   0.915   1.323  0.4003  1.0213  0.4687
28502SOL    HW287181   9.539   0.990   1.217  1.8219  1.1830  1.6082
28503SOL     OW87182   3.656   6.947   0.608  0.0036  0.0014  0.2626
28503SOL    HW187183   3.680   6.868   0.656 -1.9745  0.6404  2.5348
28503SOL    HW287184   3.677   7.018   0.668  2.0725  1.3122 -1.8672
28504SOL     OW87185   0.026   3.504   0.055  0.1289 -0.6313 -0.3128
28504SOL    HW187186  -0.046   3.567   0.053  2.4752  2.3406  0.7915
28504SOL    HW287187   0.064   3.509  -0.033  1.4012  0.9699  0.2898
28505SOL     OW87188   5.874   1.470   0.962  0.0713  0.2986 -0.5304
28505SOL    HW187189   5.812   1.415   0.913  0.0321  0.9068 -1.1898
28505SOL    HW287190   5.960   1.448   0.926  0.1031  0.3191 -0.4667
28506SOL     OW87191   5.121   0.481   5.675  0.1913 -0.1029 -0.2292
28506SOL    HW187192   5.190   0.522   5.623  2.2275 -0.7086  1.8657
28506SOL    HW287193   5.043   0.487   5.619  1.7015  1.3581 -2.3448
28507SOL     OW87194   5.260   7.999   9.052 -0.6716 -0.3791 -0.0773
28507SOL    HW187195   5.277   8.013   8.959  1.5908  0.2463  0.3868
28507SOL    HW287196   5.333   8.041   9.097 -0.9021 -1.9778  1.9402
28508SOL     OW87197   0.489   4.385   7.503 -0.1517  0.7855 -0.3428
28508SOL    HW187198   0.446   4.382   7.418  0.4376 -1.4084 -0.6211
28508SOL    HW287199   0.460   4.468   7.542 -0.8932  1.5569 -2.4081
28509SOL     OW87200   1.599   9.211   9.321  0.0997 -0.0867  0.1301
28509SOL    HW187201   1.670   9.183   9.263 -0.7063 -0.5247 -0.6646
28509SOL    HW287202   1.519   9.178   9.279 -0.6884  1.4011  0.3916
28510SOL     OW87203   9.166   8.540   9.636  0.0078  0.0154 -0.3120
28510SOL    HW187204   9.190   8.495   9.555 -0.5321  1.7505 -1.4758
28510SOL    HW287205   9.071   8.543   9.635  0.0248  1.0752 -0.2166
28511SOL     OW87206   1.961   1.926   6.795 -0.8473  0.0530  0.0750
28511SOL    HW187207   1.972   1.915   6.890 -1.5103 -1.6592 -0.0165
28511SOL    HW287208   2.049   1.940   6.762 -0.3668 -1.2818  0.7318
28512SOL     OW87209   1.215   6.008   2.362  0.7448  0.4933  0.3458
28512SOL    HW187210   1.302   5.981   2.334  0.1859  1.5569 -2.8644
28512SOL    HW287211   1.199   6.090   2.316 -2.0732  0.1496  0.5001
28513SOL     OW87212   6.809   6.883   5.015  0.4456 -0.1740  0.7039
28513SOL    HW187213   6.751   6.808   5.025  1.1024 -0.6597  0.9488
28513SOL    HW287214   6.751   6.956   4.992 -0.3351 -0.5150  1.5347
28514SOL     OW87215   2.084   6.174   1.858  0.0453  0.2727 -0.2590
28514SOL    HW187216   2.139   6.096   1.849 -0.7146 -0.2114 -0.8226
28514SOL    HW287217   2.083   6.192   1.952 -0.2213 -0.7281 -0.0638
28515SOL     OW87218   8.119   8.094   6.245  0.0688  0.5179 -0.0352
28515SOL    HW187219   8.029   8.063   6.257 -0.1636  1.3365  0.4373
28515SOL    HW287220   8.173   8.029   6.289 -0.3854  0.5950  0.6584
28516SOL     OW87221   2.182   5.559   6.698 -0.0715 -0.0963  0.2660
28516SOL    HW187222   2.139   5.521   6.774 -0.5924  0.7398  0.4086
28516SOL    HW287223   2.121   5.543   6.626 -0.1824  0.2431  0.2813
28517SOL     OW87224   9.117   4.126   9.150  0.1189  0.5900  0.1195
28517SOL    HW187225   9.029   4.151   9.122  0.0792 -0.5616 -0.8609
28517SOL    HW287226   9.174   4.194   9.113 -0.3262  1.2930  0.6875
28518SOL     OW87227   5.926   5.193   9.246 -0.2763  0.1338 -0.4481
28518SOL    HW187228   5.933   5.215   9.339  0.3073 -2.4523  0.2127
28518SOL    HW287229   6.013   5.163   9.222 -0.0606  1.9754 -2.2522
28519SOL     OW87230   0.014   7.694   6.430 -0.0330  0.4833 -0.0571
28519SOL    HW187231   0.106   7.694   6.406  0.1615 -0.5197  0.6069
28519SOL    HW287232   0.002   7.775   6.480  0.7966  0.0564  0.8821
28520SOL     OW87233   8.371   1.373   1.505  0.7363 -0.2296  0.5339
28520SOL    HW187234   8.374   1.461   1.544 -0.8892  0.9611 -1.8398
28520SOL    HW287235   8.367   1.314   1.581  0.5258  1.7945  2.1940
28521SOL     OW87236   2.069   7.860   7.448  0.8111 -0.3921  0.0027
28521SOL    HW187237   2.105   7.843   7.360 -0.1106  0.4453 -0.5564
28521SOL    HW287238   2.051   7.773   7.483  1.0749 -0.7380 -0.6950
28522SOL     OW87239   3.036   7.628   4.240  0.5092  0.1822 -0.2680
28522SOL    HW187240   3.008   7.683   4.313 -1.7898  0.0164 -0.9455
28522SOL    HW287241   3.118   7.667   4.210  1.1366  0.6570  1.9299
28523SOL     OW87242   1.245   5.843   2.582 -0.4767  0.2735  0.8058
28523SOL    HW187243   1.247   5.929   2.538  0.2302  0.3143  0.8963
28523SOL    HW287244   1.163   5.843   2.631  0.5726  1.8670  2.6942
28524SOL     OW87245   6.030   1.886   2.936  0.0366  0.4221 -0.3125
28524SOL    HW187246   5.966   1.865   3.004 -0.6235  0.6677 -0.8529
28524SOL    HW287247   5.981   1.937   2.872  0.7275  0.4403 -0.8343
28525SOL     OW87248   6.227   6.370   1.788 -0.1028  0.2010  0.2024
28525SOL    HW187249   6.192   6.287   1.755 -1.0329 -0.0367  1.7089
28525SOL    HW287250   6.198   6.435   1.724  1.2621 -0.6670 -1.4137
28526SOL     OW87251   7.016   0.052   8.915  0.3542 -0.5131 -0.2155
28526SOL    HW187252   7.107   0.068   8.891  0.3411 -0.1953 -0.0493
28526SOL    HW287253   6.974   0.138   8.910  0.5432 -0.2540  1.7861
28527SOL     OW87254   5.425   9.041   5.311 -0.1764  0.2233 -0.3960
28527SOL    HW187255   5.458   9.131   5.308 -1.0366  0.5435 -1.1542
28527SOL    HW287256   5.359   9.042   5.381  0.8928 -0.2298  0.6365
28528SOL     OW87257   0.311   8.476   1.723 -0.4133  0.6154  0.4579
28528SOL    HW187258   0.220   8.482   1.694 -0.0251 -0.6926 -1.1760
28528SOL    HW287259   0.305   8.468   1.818 -2.0999 -0.7751  0.2871
28529SOL     OW87260   0.874   8.287   2.652 -0.9208  0.0433  0.4859
28529SOL    HW187261   0.869   8.210   2.709 -0.6048 -0.9677 -0.8163
28529SOL    HW287262   0.888   8.360   2.712 -0.7318 -0.9704  1.7171
28530SOL     OW87263   9.566   9.551   3.714  0.1145 -0.1864  0.1264
28530SOL    HW187264   9.662   9.558   3.708 -0.1016  3.1025 -2.4025
28530SOL    HW287265   9.542   9.492   3.643  0.1947  1.8107 -1.6665
28531SOL     OW87266   3.895   3.794   3.550 -0.0807 -0.0828 -0.0431
28531SOL    HW187267   3.918   3.716   3.601 -0.2824 -0.9483 -1.2192
28531SOL    HW287268   3.946   3.865   3.590 -0.0847 -0.7535  1.2137
28532SOL     OW87269   5.954   2.155   4.564 -0.4237  0.2292  0.3457
28532SOL    HW187270   6.019   2.153   4.493  2.4216  0.8617  2.7270
28532SOL    HW287271   5.878   2.197   4.525  0.2262 -1.2167 -2.8452
28533SOL     OW87272   8.244   9.185   2.222  0.1398  0.5103 -0.3199
28533SOL    HW187273   8.324   9.230   2.194  0.6213 -1.0250 -1.6260
28533SOL    HW287274   8.241   9.198   2.317  1.3198  1.5728 -0.3979
28534SOL     OW87275   8.421   0.523   5.576 -0.1657 -0.0786 -0.0356
28534SOL    HW187276   8.480   0.452   5.549 -1.8738 -1.5788  0.0463
28534SOL    HW287277   8.430   0.589   5.506  0.9220 -0.6616 -0.4766
28535SOL     OW87278   1.740   8.281   7.412  0.3351 -0.4949  0.3599
28535SOL    HW187279   1.770   8.371   7.430  1.4368 -0.3879 -1.6530
28535SOL    HW287280   1.821   8.230   7.407 -0.1853 -1.3035  0.0132
28536SOL     OW87281   8.122   2.907   0.332  0.3330 -0.0736  0.5607
28536SOL    HW187282   8.183   2.940   0.397 -0.0179  1.1142  0.3284
28536SOL    HW287283   8.063   2.981   0.315  1.1073  0.0784 -1.9371
28537SOL     OW87284   4.839   5.327   4.795  0.3531  0.2934  0.1132
28537SOL    HW187285   4.768   5.339   4.859 -0.0130  2.4807 -0.6039
28537SOL    HW287286   4.873   5.416   4.781  2.2572 -0.5149 -0.6916
28538SOL     OW87287   8.306   4.335   8.514 -0.1929 -0.7278 -0.5886
28538SOL    HW187288   8.276   4.250   8.545  0.5296 -0.2306  1.6365
28538SOL    HW287289   8.260   4.399   8.568  0.7845  0.2125 -0.8242
28539SOL     OW87290   3.398   6.912   7.102  0.4194 -0.1867  0.1827
28539SOL    HW187291   3.397   6.829   7.054 -0.7350  0.4089 -0.8836
28539SOL    HW287292   3.490   6.937   7.104  0.6155 -0.7610 -0.8081
28540SOL     OW87293   1.237   3.039   6.447  0.2910 -0.9565  0.3596
28540SOL    HW187294   1.299   3.111   6.458 -0.0383 -0.7433  0.8916
28540SOL    HW287295   1.246   2.987   6.527 -0.8702 -0.3999  0.8770
28541SOL     OW87296   5.992   7.432   2.739 -0.5516 -0.3346 -0.5524
28541SOL    HW187297   6.074   7.467   2.703 -1.0500  0.4205 -0.9742
28541SOL    HW287298   6.020   7.356   2.790  1.0741  2.3499  3.0903
28542SOL     OW87299   9.676   3.139   7.034 -0.0034 -0.0228 -0.0120
28542SOL    HW187300   9.582   3.134   7.051 -0.2870  0.0923 -1.4480
28542SOL    HW287301   9.685   3.125   6.940  1.3046  1.2965 -0.1241
28543SOL     OW87302   8.743   6.641   7.595  0.6207  0.1249 -0.1646
28543SOL    HW187303   8.829   6.597   7.596  0.6399  0.1330 -1.1549
28543SOL    HW287304   8.755   6.717   7.538  0.4615  1.2031  1.1746
28544SOL     OW87305   8.711   0.111   9.122  0.1952  0.0385 -0.6620
28544SOL    HW187306   8.765   0.173   9.171 -0.9258  0.9466 -0.5381
28544SOL    HW287307   8.676   0.052   9.189 -0.5906  0.7133 -0.4578
28545SOL     OW87308   5.520   8.068   9.452 -0.0017  0.4108  0.2717
28545SOL    HW187309   5.469   8.096   9.376  1.4257 -0.6586 -1.1349
28545SOL    HW287310   5.575   8.144   9.473  0.4373  0.3344 -0.5346
28546SOL     OW87311   1.778   4.962   5.181  0.3346  0.1179  0.3137
28546SOL    HW187312   1.683   4.964   5.185  0.2938 -1.1245  0.5693
28546SOL    HW287313   1.808   5.009   5.259 -0.0054  2.3858 -0.8392
28547SOL     OW87314   7.868   4.067   5.443 -0.6469  0.3160 -0.0423
28547SOL    HW187315   7.850   4.041   5.533 -0.0783 -1.1200 -0.3011
28547SOL    HW287316   7.964   4.071   5.439 -0.6597  0.0943 -0.6341
28548SOL     OW87317   0.373   5.485   4.112 -0.0793  0.3675  0.2315
28548SOL    HW187318   0.373   5.389   4.102  0.9120  0.2809  0.9235
28548SOL    HW287319   0.465   5.507   4.128  0.1667  1.7447 -2.5719
28549SOL     OW87320   0.447   8.798   1.784 -0.0444  0.1297  0.6698
28549SOL    HW187321   0.375   8.768   1.840  0.1039 -0.6557  0.4575
28549SOL    HW287322   0.414   8.878   1.742 -1.4730 -1.1077 -0.7211
28550SOL     OW87323   5.164   1.980   4.734 -0.3482 -0.1979 -0.7746
28550SOL    HW187324   5.252   1.946   4.719  0.0567 -0.4003  1.6690
28550SOL    HW287325   5.147   1.964   4.827 -2.9032  0.0173 -1.1237
28551SOL     OW87326   3.856   2.517   1.750 -0.4679  0.0620  0.1533
28551SOL    HW187327   3.779   2.466   1.776 -0.1996  0.0696  0.9799
28551SOL    HW287328   3.819   2.602   1.722 -0.7549  0.0991  0.6298
28552SOL     OW87329   5.745   3.821   3.879  0.6767 -0.0183  0.0057
28552SOL    HW187330   5.667   3.794   3.831  0.1404 -0.9529  1.3207
28552SOL    HW287331   5.814   3.826   3.813 -0.1028 -0.9023 -0.9053
28553SOL     OW87332   0.310   1.562   3.580 -0.5067  1.0523  0.0757
28553SOL    HW187333   0.373   1.620   3.538 -1.9968  1.9849 -0.9631
28553SOL    HW287334   0.330   1.475   3.546 -0.6500  1.5532 -1.3469
28554SOL     OW87335   7.254   3.859   0.887  0.6566 -0.3047  0.8485
28554SOL    HW187336   7.234   3.765   0.884  1.1266 -0.4092  0.8630
28554SOL    HW287337   7.222   3.888   0.973  0.9103 -0.5470  1.0258
28555SOL     OW87338   1.262   5.993   4.747 -0.5303  0.2783 -0.3080
28555SOL    HW187339   1.296   5.908   4.775 -0.1990  0.7910  0.9026
28555SOL    HW287340   1.315   6.016   4.671  1.1086  0.5287  0.8571
28556SOL     OW87341   5.400   4.037   0.513  0.6583  0.1505  0.0706
28556SOL    HW187342   5.436   4.047   0.425  4.0046  0.4450  1.3275
28556SOL    HW287343   5.368   4.124   0.536  0.0329  0.1389 -0.6998
28557SOL     OW87344   0.366   5.930   8.252  0.1682 -0.0109 -0.4772
28557SOL    HW187345   0.276   5.959   8.237 -1.0980 -2.3278  1.7948
28557SOL    HW287346   0.395   5.980   8.329  0.0547 -0.6889  0.0148
28558SOL     OW87347   3.594   7.446   3.316  0.4746 -0.1116  0.3558
28558SOL    HW187348   3.648   7.383   3.267  0.2843  1.3093 -1.8195
28558SOL    HW287349   3.602   7.418   3.407  3.5137 -0.9541 -0.0594
28559SOL     OW87350   0.467   3.671   5.840  0.1202 -0.5851 -0.6136
28559SOL    HW187351   0.415   3.718   5.905  2.4911  1.3513  0.0311
28559SOL    HW287352   0.460   3.579   5.867  0.9765  0.1174  2.4524
28560SOL     OW87353   3.992   0.975   9.195  0.1736  0.1077 -0.0033
28560SOL    HW187354   4.060   1.007   9.136 -0.1760 -1.2025 -1.1767
28560SOL    HW287355   4.012   0.882   9.206 -2.8808 -1.0340 -2.6030
28561SOL     OW87356   5.616   3.571   1.097  0.1163  0.1386 -0.2752
28561SOL    HW187357   5.584   3.492   1.139  0.0061 -0.0917 -0.7908
28561SOL    HW287358   5.616   3.637   1.167 -0.3295 -0.1665  0.0169
28562SOL     OW87359   2.279   5.082   7.146  0.2221 -0.0349  0.0808
28562SOL    HW187360   2.259   5.064   7.054  0.6595  0.3061 -0.0860
28562SOL    HW287361   2.198   5.120   7.181  0.5065  1.1931 -0.5423
28563SOL     OW87362   0.678   2.861   8.604  0.0422 -0.1428 -0.1142
28563SOL    HW187363   0.611   2.889   8.542 -0.4133 -1.6861 -0.3639
28563SOL    HW287364   0.634   2.862   8.689  0.1999  0.4417 -0.0360
28564SOL     OW87365   9.033   0.015   2.373  0.4818  0.2631  0.2862
28564SOL    HW187366   9.011   0.006   2.466  0.9030  1.6798  0.5411
28564SOL    HW287367   8.978  -0.050   2.329 -2.4000  1.9483  1.1542
28565SOL     OW87368   4.519   8.833   4.996  0.3630  0.1497  0.6170
28565SOL    HW187369   4.507   8.872   5.083  1.1962  1.9332 -0.0148
28565SOL    HW287370   4.450   8.871   4.943 -0.3753 -1.2248  0.5472
28566SOL     OW87371   2.107   2.474   2.805  0.2747 -0.1398 -0.0146
28566SOL    HW187372   2.095   2.462   2.899 -0.6428  1.6393  0.1488
28566SOL    HW287373   2.166   2.549   2.798  0.8034 -0.6269 -0.8586
28567SOL     OW87374   6.060   5.206   6.888 -0.5211 -0.0799 -1.1176
28567SOL    HW187375   6.042   5.300   6.886 -0.2896 -0.0350 -1.0971
28567SOL    HW287376   6.099   5.187   6.803  0.3756  0.0350 -0.7477
28568SOL     OW87377   4.778   6.118   3.102 -0.3495  0.1374  0.2817
28568SOL    HW187378   4.710   6.058   3.131 -1.0685  1.7029  2.0517
28568SOL    HW287379   4.842   6.118   3.173  0.1552  0.6952 -0.1552
28569SOL     OW87380   1.939   4.734   6.541 -0.1662  0.5901 -0.3671
28569SOL    HW187381   1.907   4.735   6.451 -0.4977  0.5244 -0.2494
28569SOL    HW287382   1.938   4.641   6.566  3.2592  0.1193 -1.4778
28570SOL     OW87383   1.147   7.958   0.399  0.2482  0.1834  0.1614
28570SOL    HW187384   1.067   8.005   0.377  0.8480  1.6725  0.9921
28570SOL    HW287385   1.145   7.879   0.344 -1.1648  0.8022 -0.7245
28571SOL     OW87386   8.646   4.097   5.773  0.2274 -0.2477  0.1125
28571SOL    HW187387   8.627   4.146   5.853  1.3981  0.6020 -0.1103
28571SOL    HW287388   8.703   4.155   5.722  0.4480 -1.2556 -0.8157
28572SOL     OW87389   7.130   8.372   4.424 -0.1661 -0.3974  0.4848
28572SOL    HW187390   7.182   8.303   4.383 -1.9971 -1.4130 -0.2229
28572SOL    HW287391   7.079   8.410   4.352  1.9899  2.9255  0.4932
28573SOL     OW87392   6.623   5.553   6.631  0.3334  0.2962 -0.6046
28573SOL    HW187393   6.714   5.581   6.626  0.0453  1.5532  0.6109
28573SOL    HW287394   6.572   5.633   6.617 -0.5588 -0.0564  0.4743
28574SOL     OW87395   4.196   4.267   5.071 -0.9848 -0.1069  0.0219
28574SOL    HW187396   4.187   4.188   5.123 -0.5987 -0.0705  0.1493
28574SOL    HW287397   4.143   4.332   5.117  0.5390  0.3398  1.2401
28575SOL     OW87398   2.223   0.203   7.780 -0.3140  0.1775 -0.1804
28575SOL    HW187399   2.264   0.211   7.866 -0.2905 -0.0699 -0.1665
28575SOL    HW287400   2.247   0.115   7.750 -1.2773 -0.1845  0.0642
28576SOL     OW87401   3.389   3.056   3.246  0.4008 -0.2282  0.3472
28576SOL    HW187402   3.313   3.020   3.292  0.7106  0.2878  1.2887
28576SOL    HW287403   3.418   3.128   3.301 -0.5619  1.9068 -1.7765
28577SOL     OW87404   6.128   5.804   5.294  0.4950 -0.2200 -0.1223
28577SOL    HW187405   6.190   5.816   5.222  0.9750 -1.2265  0.0941
28577SOL    HW287406   6.178   5.756   5.360 -0.8031 -2.0440 -0.3847
28578SOL     OW87407   1.046   3.594   3.307 -0.2014  0.3362  0.2779
28578SOL    HW187408   1.048   3.674   3.255  0.1522 -0.7922 -1.5030
28578SOL    HW287409   1.108   3.610   3.378 -0.3049  1.7051  0.0891
28579SOL     OW87410   7.546   3.975   5.698  0.0009 -0.4761 -0.2163
28579SOL    HW187411   7.619   3.915   5.679 -0.1286 -0.9622  0.7516
28579SOL    HW287412   7.543   4.034   5.622  1.3127 -0.5344 -0.3403
28580SOL     OW87413   7.255   5.898   0.817 -0.2042 -0.2336 -0.0073
28580SOL    HW187414   7.324   5.891   0.883 -1.4202  1.4178  1.5316
28580SOL    HW287415   7.250   5.991   0.796 -2.2675 -0.2264  0.2948
28581SOL     OW87416   0.615   6.271   2.418  0.1093 -0.4845 -0.4607
28581SOL    HW187417   0.585   6.182   2.438 -1.7476  0.2709  0.2994
28581SOL    HW287418   0.694   6.282   2.470 -0.7293 -1.0283  0.9717
28582SOL     OW87419   7.348   4.841   0.582  0.3450 -0.0584 -0.2409
28582SOL    HW187420   7.408   4.789   0.529  1.0678  0.1267  0.3897
28582SOL    HW287421   7.266   4.791   0.580  0.8318 -0.8767 -0.2086
28583SOL     OW87422   5.873   1.746   1.752  0.3891  0.1826  0.4554
28583SOL    HW187423   5.868   1.715   1.842 -0.2840  1.3595  0.8511
28583SOL    HW287424   5.929   1.823   1.756 -0.4099  0.7999  0.0455
28584SOL     OW87425   2.713   4.009   3.863  0.7942  0.0359  0.3466
28584SOL    HW187426   2.661   3.940   3.904 -0.7383 -0.1850 -1.8111
28584SOL    HW287427   2.800   3.969   3.852 -0.1957 -1.8151 -1.3506
28585SOL     OW87428   3.313   4.662   1.063 -0.1208  0.0801 -0.3039
28585SOL    HW187429   3.335   4.579   1.020  1.2338 -0.6387  1.6435
28585SOL    HW287430   3.219   4.654   1.083 -0.2206 -0.5717 -0.9983
28586SOL     OW87431   9.393   9.292   1.315  0.3303 -0.2110  0.3048
28586SOL    HW187432   9.302   9.302   1.284 -0.4825 -1.9323  1.9766
28586SOL    HW287433   9.431   9.379   1.303 -1.6671  0.6793 -0.0242
28587SOL     OW87434   4.498   7.951   6.892 -0.4907  0.2676  0.4953
28587SOL    HW187435   4.584   7.944   6.850 -0.5747 -1.4874  0.5265
28587SOL    HW287436   4.509   7.907   6.976 -1.5205 -0.3483  0.3278
28588SOL     OW87437   9.407   0.711   2.204  0.6894 -0.4157 -0.3797
28588SOL    HW187438   9.366   0.629   2.175 -0.7501  0.4768 -0.9176
28588SOL    HW287439   9.373   0.725   2.292  2.9180 -1.6735  0.7707
28589SOL     OW87440   4.283   5.861   8.127  0.5851  0.4615 -0.2275
28589SOL    HW187441   4.278   5.938   8.070 -1.6875  0.4695 -0.1062
28589SOL    HW287442   4.246   5.790   8.075  0.7960 -0.1064  0.3799
28590SOL     OW87443   5.169   5.848   3.313  0.4535  0.1761 -0.3058
28590SOL    HW187444   5.252   5.821   3.274  0.4812 -0.0757 -0.0808
28590SOL    HW287445   5.155   5.785   3.385  0.7281  1.0309  0.5134
28591SOL     OW87446   8.514   7.674   7.515  0.4792 -0.3463 -0.1394
28591SOL    HW187447   8.526   7.580   7.504  2.9547 -0.3455  1.5587
28591SOL    HW287448   8.440   7.682   7.576  1.1323 -1.2938  0.8178
28592SOL     OW87449   5.360   6.898   8.573 -0.0198 -0.4247 -0.3349
28592SOL    HW187450   5.364   6.980   8.525  0.7438  0.8045  1.7082
28592SOL    HW287451   5.269   6.892   8.605 -0.4136 -1.0357 -1.5211
28593SOL     OW87452   4.651   2.297   7.955 -0.3840 -0.0634 -0.4492
28593SOL    HW187453   4.601   2.235   7.901 -0.1236 -0.5006 -0.2009
28593SOL    HW287454   4.742   2.272   7.942 -0.4004 -2.5188  2.8304
28594SOL     OW87455   7.248   1.080   7.861  0.4541 -0.7491  0.1078
28594SOL    HW187456   7.174   1.124   7.819  0.0495 -0.3827  1.1538
28594SOL    HW287457   7.212   0.998   7.894  0.1672 -0.0492  1.6582
28595SOL     OW87458   3.620   8.254   5.960 -0.1077 -0.1928 -0.0356
28595SOL    HW187459   3.568   8.290   5.888 -0.6007  0.7951  0.7922
28595SOL    HW287460   3.656   8.173   5.925 -0.2615  0.3115 -1.4310
28596SOL     OW87461   3.244   0.934   4.695 -0.3227  0.0370  0.2312
28596SOL    HW187462   3.165   0.926   4.641  0.0712 -0.7788 -0.2492
28596SOL    HW287463   3.237   0.863   4.759  0.2187 -0.3308 -0.1006
28597SOL     OW87464   3.336   0.332   6.325  0.3437  0.2529  0.5067
28597SOL    HW187465   3.243   0.312   6.331  0.2762  0.2800 -0.3136
28597SOL    HW287466   3.343   0.390   6.249  0.9442  0.8062  0.9724
28598SOL     OW87467   6.180   1.137   5.766  0.3715  0.4168  0.2597
28598SOL    HW187468   6.099   1.181   5.791  0.4659  0.5019  0.4196
28598SOL    HW287469   6.161   1.044   5.779  1.3346  0.5414  3.5520
28599SOL     OW87470   6.732   8.307   8.880  0.4016  0.3618 -0.2075
28599SOL    HW187471   6.770   8.295   8.967  1.4976 -0.1255 -0.7267
28599SOL    HW287472   6.773   8.239   8.826 -0.0222  0.8466 -1.1761
28600SOL     OW87473   7.145   6.680   9.675  0.5270 -0.0190  0.1736
28600SOL    HW187474   7.237   6.657   9.689  0.5854 -0.6268 -1.1347
28600SOL    HW287475   7.131   6.757   9.731  1.4233 -0.7786  1.4985
28601SOL     OW87476   4.941   6.261   1.765  0.2605 -0.1200 -0.0998
28601SOL    HW187477   4.986   6.257   1.849 -0.6775 -2.6899  0.3737
28601SOL    HW287478   4.897   6.346   1.765  1.7536  0.7134  1.1593
28602SOL     OW87479   7.522   4.612   8.920 -0.2196 -0.0034  0.1704
28602SOL    HW187480   7.609   4.611   8.881  0.2941 -0.7027  1.2783
28602SOL    HW287481   7.464   4.636   8.848  1.1352  3.3054 -0.0262
28603SOL     OW87482   4.250   6.049   8.326  0.2956 -0.0685  0.0800
28603SOL    HW187483   4.322   6.043   8.388 -0.5478  0.5369  1.1354
28603SOL    HW287484   4.265   5.975   8.266  1.6022 -0.1406  0.4606
28604SOL     OW87485   1.194   3.156   7.271  0.0899 -0.1107 -0.1619
28604SOL    HW187486   1.256   3.134   7.201 -2.2403 -1.7307 -1.8671
28604SOL    HW287487   1.156   3.240   7.244  1.7666  1.1499  1.1482
28605SOL     OW87488   0.778   8.082   7.907 -0.2284 -0.1210  0.2622
28605SOL    HW187489   0.789   8.067   8.001  0.9250 -0.5396  0.0786
28605SOL    HW287490   0.827   8.012   7.865 -2.6210 -1.3410 -0.7061
28606SOL     OW87491   8.683   9.292   8.288 -0.2470 -0.4601  0.7666
28606SOL    HW187492   8.603   9.298   8.341  0.1643 -1.7093  1.5621
28606SOL    HW287493   8.657   9.328   8.203 -1.9665 -1.7432  0.6799
28607SOL     OW87494   4.139   4.693   2.140 -0.2228  0.6972  0.3864
28607SOL    HW187495   4.142   4.755   2.068 -0.0646  0.7047  0.3973
28607SOL    HW287496   4.081   4.623   2.110  1.1097 -0.1188 -0.4210
28608SOL     OW87497   9.241   2.380   3.250 -0.1503 -0.2194  0.7716
28608SOL    HW187498   9.292   2.302   3.273 -0.7700 -1.0271 -0.4562
28608SOL    HW287499   9.216   2.366   3.158  0.2348  1.7289  0.3347
28609SOL     OW87500   2.702   4.464   8.110  0.9025  0.1232 -0.0179
28609SOL    HW187501   2.672   4.539   8.059 -0.1203 -0.3087 -0.0766
28609SOL    HW287502   2.663   4.477   8.197  2.3464  0.6720  0.5802
28610SOL     OW87503   5.293   4.639   4.692 -0.7366 -0.9521 -0.1547
28610SOL    HW187504   5.287   4.659   4.786 -1.8458  2.0158 -0.7217
28610SOL    HW287505   5.289   4.544   4.687  1.9352 -1.4245  2.9241
28611SOL     OW87506   3.030   8.684   6.961  0.7676  0.2010  0.0908
28611SOL    HW187507   3.003   8.592   6.963  0.8024  0.1947  0.4699
28611SOL    HW287508   3.125   8.680   6.952  0.7642  0.2003  0.0555
28612SOL     OW87509   2.662   3.428   3.313  0.1177 -0.0617  0.6689
28612SOL    HW187510   2.612   3.420   3.232  1.4896  1.0554 -0.3325
28612SOL    HW287511   2.691   3.519   3.315  2.2999 -0.7127  1.0796
28613SOL     OW87512   4.164   4.526   2.406 -0.0012 -0.4891 -0.7518
28613SOL    HW187513   4.231   4.500   2.470  0.3212  3.6366  0.9435
28613SOL    HW287514   4.207   4.593   2.352 -2.1462  0.8850 -0.8908
28614SOL     OW87515   1.757   1.000   3.862 -0.3747 -0.3144  0.1489
28614SOL    HW187516   1.840   0.978   3.819 -0.8841 -0.9521 -0.5467
28614SOL    HW287517   1.743   1.092   3.842 -1.0740 -0.8183 -1.9344
28615SOL     OW87518   9.598   4.159   4.921 -0.2217  0.0576  0.4006
28615SOL    HW187519   9.688   4.191   4.919 -0.2637  0.2698  1.4132
28615SOL    HW287520   9.606   4.065   4.938 -0.1926  0.1484  0.9178
28616SOL     OW87521   3.305   7.460   3.291  0.0899  0.3535  0.1629
28616SOL    HW187522   3.301   7.419   3.204 -1.5982 -1.2812  0.9380
28616SOL    HW287523   3.372   7.410   3.338  0.6818  0.9416 -0.0522
28617SOL     OW87524   4.812   5.130   7.774 -0.2304 -0.2847  0.1661
28617SOL    HW187525   4.850   5.207   7.732 -0.7251  0.3611  0.8612
28617SOL    HW287526   4.791   5.071   7.702 -0.4302  0.5115 -0.4456
28618SOL     OW87527   8.448   4.676   6.950 -0.0839  0.3382 -0.1117
28618SOL    HW187528   8.356   4.675   6.926  0.2929  1.7293 -1.7843
28618SOL    HW287529   8.463   4.591   6.991 -2.3939  0.5719  1.4413
28619SOL     OW87530   2.586   7.926   8.163  0.4858 -0.6893  0.1960
28619SOL    HW187531   2.598   7.929   8.068  0.8275  0.6872  0.2666
28619SOL    HW287532   2.675   7.925   8.199  0.3759 -2.2411  0.5082
28620SOL     OW87533   4.648   6.320   9.199 -0.6312  0.1258  0.5400
28620SOL    HW187534   4.585   6.301   9.129 -0.8618  1.0072  0.4932
28620SOL    HW287535   4.619   6.268   9.273 -1.5859  0.7244  0.6044
28621SOL     OW87536   9.073   8.883   0.893 -0.1777  0.3218 -0.2433
28621SOL    HW187537   9.160   8.902   0.928  0.7662  1.8683 -3.0700
28621SOL    HW287538   9.085   8.805   0.839 -1.2180 -1.0581  1.4385
28622SOL     OW87539   1.000   0.634   2.897  0.5203 -0.1172 -0.1793
28622SOL    HW187540   0.928   0.611   2.956 -1.1833 -0.7448 -2.3848
28622SOL    HW287541   1.073   0.580   2.928  0.1871  0.6902  2.2538
28623SOL     OW87542   0.142   8.911   6.142  0.3276 -0.3134 -0.4964
28623SOL    HW187543   0.160   8.957   6.224 -0.5254 -0.3600 -0.2793
28623SOL    HW287544   0.169   8.820   6.159 -0.1746 -0.3998 -0.1479
28624SOL     OW87545   6.372   3.267   6.226 -0.1744  0.1189 -0.2177
28624SOL    HW187546   6.303   3.318   6.268  0.4862 -0.1615  1.2921
28624SOL    HW287547   6.446   3.328   6.220  0.4183 -0.4319  1.0288
28625SOL     OW87548   6.078   5.179   0.771 -0.4918  0.4416 -0.3880
28625SOL    HW187549   6.124   5.253   0.812  3.2367 -1.5981 -0.4673
28625SOL    HW287550   6.073   5.113   0.840 -1.3112 -0.2213 -1.0636
28626SOL     OW87551   0.093   7.097   2.197  0.3213 -0.1372  0.1688
28626SOL    HW187552   0.081   7.101   2.292 -1.9999 -0.2429 -0.0707
28626SOL    HW287553   0.047   7.018   2.169 -0.1444  0.5765 -1.1847
28627SOL     OW87554   9.050   3.664   5.116  0.7311 -0.0831 -0.0296
28627SOL    HW187555   9.064   3.720   5.040  2.5102 -0.6022 -0.1337
28627SOL    HW287556   9.033   3.577   5.080 -1.8084  0.2716  0.1381
28628SOL     OW87557   7.718   2.131   2.702 -0.1783 -0.1262  0.1348
28628SOL    HW187558   7.766   2.112   2.783  0.6873 -1.3652 -0.6350
28628SOL    HW287559   7.778   2.184   2.650 -0.5032  0.1757  0.0678
28629SOL     OW87560   6.926   4.560   2.092  0.0934  0.1601  0.3840
28629SOL    HW187561   6.956   4.472   2.072  1.0097  0.3472  0.8985
28629SOL    HW287562   6.858   4.548   2.158  0.0055 -0.1792  0.2328
28630SOL     OW87563   5.095   2.818   3.682  0.0944 -0.2285  0.5999
28630SOL    HW187564   5.014   2.832   3.633  0.8765 -1.4145 -1.1257
28630SOL    HW287565   5.157   2.785   3.617  2.2170  1.3704  1.6892
28631SOL     OW87566   2.522   9.114   3.506  0.0720 -0.1627 -0.2975
28631SOL    HW187567   2.446   9.140   3.454  1.2836 -0.0695 -2.1175
28631SOL    HW287568   2.518   9.168   3.585 -0.5809  1.4035 -1.3610
28632SOL     OW87569   4.118   4.743   0.751  0.3805  0.1314 -0.1466
28632SOL    HW187570   4.061   4.817   0.731  1.1127  0.8342  0.2937
28632SOL    HW287571   4.099   4.722   0.842 -0.3984 -0.7532 -0.5031
28633SOL     OW87572   5.094   8.973   2.576 -0.0159 -0.5414 -0.1419
28633SOL    HW187573   5.181   8.935   2.587  0.2496 -0.0105 -0.3925
28633SOL    HW287574   5.043   8.936   2.648  0.1215 -1.6912 -0.6249
28634SOL     OW87575   7.517   5.062   1.033 -0.3284 -0.3349  0.1466
28634SOL    HW187576   7.581   4.996   1.059  2.2469  1.7431 -0.4374
28634SOL    HW287577   7.476   5.027   0.954  1.2788 -1.0649 -0.3866
28635SOL     OW87578   7.905   7.369   1.596  0.2803  0.6796  0.2596
28635SOL    HW187579   7.974   7.307   1.620 -0.6219 -1.1966 -1.7503
28635SOL    HW287580   7.944   7.423   1.527  0.2691  0.7630  0.3176
28636SOL     OW87581   6.643   4.093   3.931 -1.0810 -0.4807  0.3218
28636SOL    HW187582   6.555   4.126   3.951 -0.9273  1.5343 -1.8725
28636SOL    HW287583   6.699   4.139   3.994 -1.4853 -1.0697  1.1257
28637SOL     OW87584   5.146   3.796   1.180  0.1170 -0.2678 -0.8632
28637SOL    HW187585   5.183   3.838   1.257 -0.7038 -0.0762 -0.5612
28637SOL    HW287586   5.181   3.847   1.106 -2.5801  2.4870 -0.4458
28638SOL     OW87587   5.615   5.915   8.277  0.1842 -0.2122 -0.2982
28638SOL    HW187588   5.608   5.827   8.239 -1.8576  0.6643 -2.1128
28638SOL    HW287589   5.550   5.916   8.347  2.3821 -1.0698  1.9320
28639SOL     OW87590   0.093   7.014   7.910 -0.6939  0.1079  0.0143
28639SOL    HW187591   0.034   7.026   7.984 -0.7238 -0.2749  0.0550
28639SOL    HW287592   0.162   7.079   7.922 -1.6067  1.2113 -0.5401
28640SOL     OW87593   7.499   8.867   5.657 -0.0495 -0.1995 -0.0212
28640SOL    HW187594   7.459   8.881   5.571  0.7386 -1.2418 -0.5830
28640SOL    HW287595   7.592   8.879   5.642 -0.0244  1.2600  1.0695
28641SOL     OW87596   3.956   0.419   9.465  0.1478 -0.1749 -0.1498
28641SOL    HW187597   4.032   0.472   9.489 -0.3122  0.2838  0.3319
28641SOL    HW287598   3.920   0.461   9.387 -0.7606  0.8125  0.7602
28642SOL     OW87599   4.813   1.789   5.695 -0.3911  0.1414  0.3745
28642SOL    HW187600   4.832   1.816   5.605  0.0110  1.3609  0.8047
28642SOL    HW287601   4.891   1.740   5.722 -0.8561 -0.9564 -0.1939
28643SOL     OW87602   1.956   4.064   6.579  0.0852  0.2082  0.0200
28643SOL    HW187603   1.875   4.116   6.578  1.5404  2.5983 -1.4328
28643SOL    HW287604   1.925   3.973   6.573 -2.4997  0.9907  0.0529
28644SOL     OW87605   0.116   6.255   0.795  0.4133  0.9316  0.1075
28644SOL    HW187606   0.035   6.244   0.846 -0.0856  0.6604 -0.7109
28644SOL    HW287607   0.138   6.347   0.806 -2.1223  2.0583 -2.5817
28645SOL     OW87608   6.739   2.726   3.991  0.7612  0.2224  0.5454
28645SOL    HW187609   6.807   2.685   4.045  2.4217 -0.3134 -1.7862
28645SOL    HW287610   6.786   2.758   3.914 -1.5392  0.4218 -0.8711
28646SOL     OW87611   6.473   7.796   2.099 -0.3594 -0.5646 -0.0128
28646SOL    HW187612   6.453   7.716   2.051  0.0652 -0.1043 -0.9789
28646SOL    HW287613   6.468   7.866   2.033 -0.4427  0.1690  0.7523
28647SOL     OW87614   4.067   9.594   5.605 -0.2188  0.2754  0.0219
28647SOL    HW187615   3.975   9.609   5.582 -0.5938 -0.1824  1.1240
28647SOL    HW287616   4.063   9.559   5.694  0.9930 -0.2713 -0.1222
28648SOL     OW87617   9.288   5.782   6.868 -0.3245  0.5481  0.6559
28648SOL    HW187618   9.355   5.832   6.820  0.1578  0.2046  0.9590
28648SOL    HW287619   9.219   5.845   6.885 -0.6671  0.5950 -0.7945
28649SOL     OW87620   8.779   0.581   4.837  0.2442 -0.0673 -0.6543
28649SOL    HW187621   8.710   0.517   4.851  0.7356 -0.3043  0.9103
28649SOL    HW287622   8.842   0.537   4.779  0.7031 -1.1249  0.6076
28650SOL     OW87623   4.954   4.086   7.584  0.4288  0.0661  0.2128
28650SOL    HW187624   4.922   4.054   7.668  2.0668 -2.5160 -0.0337
28650SOL    HW287625   4.939   4.013   7.523  2.0567  0.6850 -1.0160
28651SOL     OW87626   7.993   2.878   6.011 -0.1793  0.3037 -0.4702
28651SOL    HW187627   8.074   2.867   6.061  1.2632  1.8849 -2.2551
28651SOL    HW287628   8.004   2.820   5.935 -1.2861 -0.3369 -0.1694
28652SOL     OW87629   8.025   8.534   7.550  0.0658  0.1153  0.2596
28652SOL    HW187630   7.931   8.517   7.550  0.0508 -0.0240  1.9901
28652SOL    HW287631   8.052   8.522   7.459 -2.0232  2.8210 -0.8628
28653SOL     OW87632   0.082   9.536   6.050  0.2767 -0.1072 -0.3538
28653SOL    HW187633   0.066   9.600   5.981 -0.0586 -0.3813 -0.5338
28653SOL    HW287634   0.176   9.541   6.067  0.3751 -0.1061 -0.8965
28654SOL     OW87635   3.206   9.163   8.139 -0.2247 -0.2116  0.4979
28654SOL    HW187636   3.162   9.246   8.159 -2.3657 -1.7490  2.8277
28654SOL    HW287637   3.135   9.106   8.109  1.2748 -1.1640 -1.4595
28655SOL     OW87638   8.865   5.417   2.787 -0.3377  0.1957  0.4301
28655SOL    HW187639   8.782   5.464   2.784 -0.5931 -0.2861 -0.2152
28655SOL    HW287640   8.854   5.344   2.726  0.4246 -0.0936  0.6253
28656SOL     OW87641   2.636   2.539   0.878 -0.1576  0.0614 -0.1933
28656SOL    HW187642   2.586   2.578   0.806 -1.1146 -0.4850  0.1612
28656SOL    HW287643   2.726   2.534   0.845 -0.2767  1.2887 -0.7479
28657SOL     OW87644   7.542   7.942   7.410  0.1673  0.2519 -0.4486
28657SOL    HW187645   7.618   7.988   7.373 -1.1159  1.7310 -1.3870
28657SOL    HW287646   7.471   7.960   7.348 -1.0025 -0.9677  0.4761
28658SOL     OW87647   9.132   4.323   2.271  0.1249  0.0837 -0.1628
28658SOL    HW187648   9.044   4.298   2.299  0.2993  0.6012  0.9058
28658SOL    HW287649   9.171   4.241   2.241 -1.1593  0.0724 -1.9795
28659SOL     OW87650   1.023   5.764   0.865  0.7836 -0.4155 -0.2995
28659SOL    HW187651   0.955   5.720   0.815 -0.2290 -1.5260  1.9056
28659SOL    HW287652   0.980   5.842   0.902  0.8035 -0.8791  0.7373
28660SOL     OW87653   4.982   6.460   4.500  0.2020  0.2816  0.1388
28660SOL    HW187654   5.013   6.370   4.509 -1.3355 -0.2022  0.7328
28660SOL    HW287655   4.913   6.470   4.565  0.1779  1.8334 -0.0645
28661SOL     OW87656   5.832   6.596   2.453 -0.0768 -0.5537  0.7670
28661SOL    HW187657   5.903   6.603   2.390  0.9734 -0.5809  1.9108
28661SOL    HW287658   5.852   6.518   2.504 -0.6528 -0.2851  1.4276
28662SOL     OW87659   3.710   7.698   1.157  0.0481 -0.2724 -0.2802
28662SOL    HW187660   3.804   7.711   1.172  0.2884 -1.1152 -0.9671
28662SOL    HW287661   3.705   7.667   1.066 -0.8570 -0.7201 -0.0812
28663SOL     OW87662   1.397   3.599   2.912  0.4003  0.3005 -0.2115
28663SOL    HW187663   1.487   3.575   2.937  0.6301  0.4803 -0.8484
28663SOL    HW287664   1.342   3.551   2.974  0.9301  0.0733  0.0956
28664SOL     OW87665   7.503   2.275   8.718 -0.5342 -0.2744 -0.2242
28664SOL    HW187666   7.513   2.191   8.673 -0.8127 -0.1824 -0.4634
28664SOL    HW287667   7.462   2.333   8.652  1.6291  0.6958 -0.8135
28665SOL     OW87668   1.933   0.272   9.379  0.2870 -0.1929  0.3543
28665SOL    HW187669   1.844   0.237   9.367  0.1323  0.6412 -1.2153
28665SOL    HW287670   1.930   0.316   9.464 -1.4787  1.6313 -0.5636
28666SOL     OW87671   0.623   9.601   2.544 -0.4304 -0.0455  0.1639
28666SOL    HW187672   0.638   9.656   2.621  0.8910  0.7061 -0.5983
28666SOL    HW287673   0.555   9.647   2.494  1.7992  1.9189 -1.3086
28667SOL     OW87674   9.324   3.174   9.490  0.2011  0.0680  0.7101
28667SOL    HW187675   9.382   3.179   9.566  1.1116  0.1526  0.0303
28667SOL    HW287676   9.285   3.087   9.495 -0.1374  0.2577  1.5454
28668SOL     OW87677   7.116   8.725   4.466  0.1865  0.0281  0.2389
28668SOL    HW187678   7.028   8.748   4.494  0.1198  0.2847 -0.1635
28668SOL    HW287679   7.107   8.708   4.372  1.0002  2.4245 -0.3235
28669SOL     OW87680   7.110   5.623   4.779 -0.1156 -0.3250  0.6005
28669SOL    HW187681   7.028   5.606   4.826 -0.9023  0.4526 -0.4398
28669SOL    HW287682   7.096   5.584   4.692 -0.5672  2.2949 -0.5880
28670SOL     OW87683   4.998   7.496   9.110 -0.0115  0.0154  0.1020
28670SOL    HW187684   5.054   7.508   9.034  1.3522 -1.4092  0.8390
28670SOL    HW287685   5.020   7.409   9.144 -1.5514  0.0579  1.3378
28671SOL     OW87686   9.333   3.806   7.113  0.4205  1.0450 -0.2134
28671SOL    HW187687   9.353   3.716   7.088 -0.5755  0.6532  0.3427
28671SOL    HW287688   9.395   3.859   7.063  2.7393 -0.0528  1.2753
28672SOL     OW87689   8.585   3.831   2.251 -0.0510 -0.0389  0.5953
28672SOL    HW187690   8.675   3.854   2.228 -0.5272  1.8157  0.4221
28672SOL    HW287691   8.593   3.758   2.313  1.4586 -1.3469 -1.0548
28673SOL     OW87692   6.376   2.461   6.289 -0.2977  0.2360  0.2681
28673SOL    HW187693   6.427   2.475   6.209  1.1441 -2.4693  0.6208
28673SOL    HW287694   6.296   2.513   6.275  0.4656  0.8648 -2.3407
28674SOL     OW87695   9.606   4.145   6.167 -0.2673 -0.2484  0.0388
28674SOL    HW187696   9.674   4.194   6.121  0.3568 -0.8112  0.3384
28674SOL    HW287697   9.529   4.150   6.110  0.2892 -0.3706 -0.7386
28675SOL     OW87698   9.038   9.495   9.618 -0.2859  0.0389  0.5148
28675SOL    HW187699   9.118   9.527   9.576 -0.4672 -1.9603 -1.5583
28675SOL    HW287700   9.057   9.497   9.712  1.7944  0.6181  0.1206
28676SOL     OW87701   6.406   8.206   3.581  0.2267 -0.7184 -0.2177
28676SOL    HW187702   6.356   8.244   3.508 -0.1435 -1.7999 -0.5363
28676SOL    HW287703   6.469   8.148   3.538  1.0640 -0.1780  0.2453
28677SOL     OW87704   2.665   2.939   3.167  0.9498 -0.6752 -0.0156
28677SOL    HW187705   2.620   3.019   3.194  0.1960 -0.6866 -1.1521
28677SOL    HW287706   2.728   2.968   3.100 -2.4282 -1.4225 -3.9051
28678SOL     OW87707   6.151   9.090   0.987 -0.1272  0.3771  0.3790
28678SOL    HW187708   6.237   9.104   0.948 -0.8434  3.1386 -0.4283
28678SOL    HW287709   6.166   9.101   1.081  0.5859 -0.4304  0.3768
28679SOL     OW87710   1.479   3.294   8.313  0.8145  0.7214 -0.5885
28679SOL    HW187711   1.549   3.359   8.311 -1.5468  3.5188  0.8327
28679SOL    HW287712   1.500   3.239   8.389  1.4654  1.5212 -0.1728
28680SOL     OW87713   6.930   0.690   3.176 -0.2281  0.3285 -0.3061
28680SOL    HW187714   6.856   0.715   3.121 -0.0950  0.1805 -0.5512
28680SOL    HW287715   6.936   0.760   3.241 -1.8328 -0.6385  0.9475
28681SOL     OW87716   7.176   7.453   7.196  0.0922  0.3320  0.1200
28681SOL    HW187717   7.137   7.454   7.109 -0.5160 -1.9120  0.2863
28681SOL    HW287718   7.181   7.360   7.218  1.1115  0.8029  2.0993
28682SOL     OW87719   6.616   5.693   3.907 -0.7226 -0.0268 -0.0823
28682SOL    HW187720   6.584   5.604   3.921  0.0276 -0.5620 -1.5497
28682SOL    HW287721   6.638   5.725   3.994  0.7184 -1.9484  0.3223
28683SOL     OW87722   2.464   8.439   6.856  0.1125 -0.0089  1.0664
28683SOL    HW187723   2.493   8.351   6.879 -0.9480 -0.1173  2.0807
28683SOL    HW287724   2.499   8.495   6.925  0.6686  0.3632  0.5001
28684SOL     OW87725   6.256   6.770   7.779  0.1415  0.0776 -0.2140
28684SOL    HW187726   6.178   6.809   7.817  0.6614  3.0953 -1.9105
28684SOL    HW287727   6.266   6.686   7.825 -3.7240 -0.2231  0.4107
28685SOL     OW87728   2.493   8.453   0.616 -0.3065  0.2129  0.4387
28685SOL    HW187729   2.534   8.435   0.701  1.2547  0.7958 -0.1584
28685SOL    HW287730   2.411   8.403   0.619 -0.0448 -0.2073  2.0708
28686SOL     OW87731   6.772   2.796   6.122 -0.3241  0.2311  0.4673
28686SOL    HW187732   6.854   2.747   6.114 -0.0592  0.7132  0.1845
28686SOL    HW287733   6.728   2.757   6.197 -0.3620 -0.7978 -0.0655
28687SOL     OW87734   4.695   7.391   6.955  0.2374  0.1913 -0.3766
28687SOL    HW187735   4.694   7.319   6.892  1.4811  0.3269 -0.5670
28687SOL    HW287736   4.647   7.357   7.030 -2.0172  0.3247 -1.6680
28688SOL     OW87737   5.601   8.721   2.471  0.5716 -0.6536 -0.2847
28688SOL    HW187738   5.547   8.737   2.394  0.0988 -0.1789  0.1364
28688SOL    HW287739   5.661   8.795   2.476 -0.1169 -0.1278  0.3989
28689SOL     OW87740   8.305   0.875   3.040 -0.4166  0.5408 -0.3273
28689SOL    HW187741   8.276   0.837   2.958 -0.3634  2.0172 -1.0670
28689SOL    HW287742   8.233   0.934   3.066 -0.3508  0.2399  0.5885
28690SOL     OW87743   3.269   5.570   4.796  0.0881 -0.1689  0.4204
28690SOL    HW187744   3.193   5.576   4.854  0.7850 -0.5444  1.3971
28690SOL    HW287745   3.272   5.477   4.771  0.1798 -0.1405  0.3263
28691SOL     OW87746   1.314   8.173   9.620  0.2956 -0.3335 -0.3229
28691SOL    HW187747   1.323   8.238   9.551  0.5730  2.2054  1.9491
28691SOL    HW287748   1.248   8.209   9.679  1.7924 -1.1539  1.9894
28692SOL     OW87749   6.132   8.678   7.030 -0.5615  0.2567  0.4039
28692SOL    HW187750   6.074   8.603   7.019  0.1849 -0.2367 -0.2601
28692SOL    HW287751   6.204   8.662   6.969 -0.1971  1.3237  0.5348
28693SOL     OW87752   3.889   7.060   7.070 -0.2215  0.3836  0.2858
28693SOL    HW187753   3.978   7.056   7.036 -0.0993 -2.0213  0.6897
28693SOL    HW287754   3.900   7.074   7.164  0.0064 -2.8208  0.8743
28694SOL     OW87755   6.377   4.012   6.012 -0.0974 -0.6403 -0.4515
28694SOL    HW187756   6.341   3.929   6.043 -0.1394 -0.7823 -0.8740
28694SOL    HW287757   6.329   4.079   6.061  0.9395 -0.8847  0.9610
28695SOL     OW87758   2.395   5.918   0.455  0.1961 -0.1808  0.2784
28695SOL    HW187759   2.329   5.915   0.525 -0.3076 -1.1485 -0.2199
28695SOL    HW287760   2.349   5.888   0.377  0.6980  1.1100 -0.5368
28696SOL     OW87761   0.851   2.462   5.457 -0.0818 -0.9748 -0.4107
28696SOL    HW187762   0.848   2.433   5.366 -0.4187 -1.5866 -0.2117
28696SOL    HW287763   0.945   2.464   5.478  0.0547  0.1800 -1.0765
28697SOL     OW87764   1.048   7.784   6.008 -0.0140 -0.2428  0.0772
28697SOL    HW187765   1.047   7.739   6.093  0.0647 -2.6862 -1.1362
28697SOL    HW287766   0.970   7.839   6.010 -1.4177 -2.1305  0.8432
28698SOL     OW87767   1.990   7.699   4.726 -0.2480 -0.3642  0.0043
28698SOL    HW187768   1.896   7.717   4.734 -0.0838  1.0146 -0.8954
28698SOL    HW287769   2.002   7.674   4.635  0.3945  0.3447 -0.1125
28699SOL     OW87770   0.612   7.153   7.266  0.5161  0.4985  0.5431
28699SOL    HW187771   0.522   7.126   7.283  0.1006 -0.3988 -2.4774
28699SOL    HW287772   0.610   7.249   7.270 -0.5136  0.4752  0.7727
28700SOL     OW87773   6.121   4.965   2.302 -0.1738  0.1510  0.9651
28700SOL    HW187774   6.058   4.968   2.230  1.4566 -1.6580 -0.6796
28700SOL    HW287775   6.068   4.960   2.381 -2.0450  2.9530  0.0123
28701SOL     OW87776   1.315   2.179   4.206 -0.6132 -0.0882  0.7474
28701SOL    HW187777   1.238   2.190   4.262  0.7300  0.0637  2.6728
28701SOL    HW287778   1.345   2.268   4.188  0.4402 -0.1550  2.0132
28702SOL     OW87779   4.612   4.418   3.219 -0.4767  0.4290 -0.1715
28702SOL    HW187780   4.674   4.375   3.160  0.0150 -0.0518  0.6800
28702SOL    HW287781   4.553   4.348   3.247  0.4942  0.2016  1.4383
28703SOL     OW87782   1.791   1.441   7.016  0.0029 -0.1088 -0.6312
28703SOL    HW187783   1.733   1.394   7.077 -0.7280  0.4756 -0.8678
28703SOL    HW287784   1.735   1.461   6.941  0.7386 -0.2702 -1.2272
28704SOL     OW87785   7.271   3.628   6.531  0.1420 -0.5426  0.4667
28704SOL    HW187786   7.249   3.691   6.600  1.1686  0.5027 -0.1411
28704SOL    HW287787   7.353   3.589   6.560 -0.0888 -1.0420  0.4537
28705SOL     OW87788   5.425   5.624   0.505  0.0335  0.4461  0.2329
28705SOL    HW187789   5.437   5.718   0.514  1.8170  0.2130  0.6391
28705SOL    HW287790   5.496   5.596   0.447  0.2878 -0.8157  1.1201
28706SOL     OW87791   3.324   8.483   0.828 -0.6764 -0.6449 -0.1049
28706SOL    HW187792   3.403   8.436   0.855 -0.3921 -0.3073 -0.3386
28706SOL    HW287793   3.267   8.415   0.793  0.0004 -0.7408 -1.0707
28707SOL     OW87794   8.409   3.007   4.392 -0.2501  0.2811  0.1119
28707SOL    HW187795   8.389   2.916   4.369  0.0013  0.3840 -0.5336
28707SOL    HW287796   8.348   3.027   4.463 -1.0637 -0.0491 -0.4717
28708SOL     OW87797   4.108   0.803   2.505  0.1822 -0.0727 -0.5180
28708SOL    HW187798   4.164   0.839   2.436  0.0888 -1.2962 -1.2596
28708SOL    HW287799   4.064   0.728   2.464 -0.5799 -0.2657  0.6046
28709SOL     OW87800   1.169   4.213   2.268 -0.2930 -0.1112  0.0999
28709SOL    HW187801   1.138   4.271   2.199  0.9322  0.3525 -0.0789
28709SOL    HW287802   1.245   4.258   2.306  0.7574 -1.6200 -0.1123
28710SOL     OW87803   5.091   0.286   4.767 -0.3150 -0.0903 -0.6729
28710SOL    HW187804   4.996   0.281   4.770 -0.2588 -1.0852  0.5967
28710SOL    HW287805   5.119   0.273   4.858  1.0122  0.8926 -0.9065
28711SOL     OW87806   1.911   3.685   7.354  0.1359 -0.0400  0.5208
28711SOL    HW187807   1.939   3.715   7.267  2.3107 -1.1933  0.7440
28711SOL    HW287808   1.844   3.619   7.335 -1.5139  1.7120 -0.1110
28712SOL     OW87809   6.828   6.064   6.270 -0.8305  0.2804 -0.0413
28712SOL    HW187810   6.818   5.969   6.277  1.6196 -0.1540 -1.4392
28712SOL    HW287811   6.803   6.084   6.180  0.9057  0.5662 -0.4919
28713SOL     OW87812   1.781   4.441   3.563 -0.4458 -0.3564  0.3525
28713SOL    HW187813   1.697   4.397   3.580 -1.2620  0.6477 -0.8755
28713SOL    HW287814   1.843   4.369   3.549 -1.3503 -1.1247  0.1853
28714SOL     OW87815   2.761   2.488   4.693  0.4479 -0.0154 -0.4633
28714SOL    HW187816   2.785   2.438   4.771  1.5284  0.3579 -0.5362
28714SOL    HW287817   2.839   2.540   4.673 -0.1509  0.6167 -1.2304
28715SOL     OW87818   2.499   5.660   1.431  0.0492  0.4707 -0.4151
28715SOL    HW187819   2.442   5.583   1.428  0.2322  0.3395 -0.5720
28715SOL    HW287820   2.469   5.714   1.358 -0.1766  0.6195 -0.2147
28716SOL     OW87821   2.879   3.151   9.047 -0.5451  0.1345  0.0452
28716SOL    HW187822   2.868   3.081   9.110  0.1055 -0.1608 -0.1599
28716SOL    HW287823   2.856   3.231   9.094  0.9907  0.0495  1.0044
28717SOL     OW87824   4.909   9.251   3.290 -0.4690  0.4959  0.0731
28717SOL    HW187825   4.935   9.255   3.383  0.1333  1.1731 -0.1177
28717SOL    HW287826   4.990   9.229   3.244 -0.4996  1.3706 -0.4095
28718SOL     OW87827   1.476   5.994   9.244  0.0766  0.2979  0.5268
28718SOL    HW187828   1.445   5.955   9.162  0.0245 -0.5789  0.9503
28718SOL    HW287829   1.424   6.074   9.253 -0.0499  0.3105 -0.1977
28719SOL     OW87830   6.696   1.155   5.098 -0.6843  0.2362 -0.9306
28719SOL    HW187831   6.651   1.239   5.103 -2.7197 -0.6379 -2.9857
28719SOL    HW287832   6.693   1.120   5.187  0.0713  2.2128 -0.0770
28720SOL     OW87833   6.484   6.889   0.029 -1.0808  0.4191 -0.0912
28720SOL    HW187834   6.504   6.817   0.090 -2.0214  1.0869  1.0522
28720SOL    HW287835   6.548   6.957   0.052 -1.3109  0.5978  0.0164
28721SOL     OW87836   8.725   1.854   9.472 -0.4086  0.1113 -0.3473
28721SOL    HW187837   8.681   1.849   9.557  0.1914  0.9000  0.0278
28721SOL    HW287838   8.675   1.919   9.423  0.0933  0.7315 -0.0568
28722SOL     OW87839   4.234   8.117   3.164 -0.3178  0.1857 -0.2436
28722SOL    HW187840   4.325   8.138   3.187 -0.1032 -0.6766 -0.2915
28722SOL    HW287841   4.194   8.092   3.247 -0.2858 -0.2496 -0.3595
28723SOL     OW87842   1.420   8.234   3.854 -0.2022 -0.0910 -0.3337
28723SOL    HW187843   1.401   8.175   3.781  1.6206  0.8958 -1.6846
28723SOL    HW287844   1.442   8.318   3.812  0.8592  0.5205  1.3443
28724SOL     OW87845   5.037   5.687   4.010  0.4257 -0.2485 -0.2298
28724SOL    HW187846   5.070   5.604   4.046  0.9022  1.0915  2.6791
28724SOL    HW287847   5.115   5.737   3.987  0.4496  1.2041  2.5819
28725SOL     OW87848   8.597   3.475   6.220 -0.4396  0.0693 -0.4300
28725SOL    HW187849   8.638   3.433   6.145  0.7864  0.9823 -0.2908
28725SOL    HW287850   8.614   3.568   6.209 -0.1658  0.2244  1.0080
28726SOL     OW87851   9.427   8.185   7.418 -0.5523 -0.0075  0.1732
28726SOL    HW187852   9.483   8.178   7.340  0.6250  0.2049  0.9706
28726SOL    HW287853   9.398   8.276   7.418 -1.7856 -0.3638 -0.8020
28727SOL     OW87854   6.340   1.406   8.861  0.4916  0.3280  0.1824
28727SOL    HW187855   6.408   1.431   8.799 -0.4591  2.4639 -0.0843
28727SOL    HW287856   6.276   1.357   8.809  1.2217 -0.6779  0.1968
28728SOL     OW87857   7.242   7.691   5.847  0.0899 -0.1457 -0.0761
28728SOL    HW187858   7.153   7.690   5.810 -0.5352  3.2733  1.0316
28728SOL    HW287859   7.229   7.709   5.940  1.9642  0.1246  0.1712
28729SOL     OW87860   8.936   0.348   1.199 -0.1472 -0.7575  0.5718
28729SOL    HW187861   8.887   0.415   1.152  1.2215  0.4730  0.7926
28729SOL    HW287862   8.933   0.376   1.290 -0.3465 -1.5224  0.8051
28730SOL     OW87863   2.569   6.577   8.699 -0.3348  0.1872  0.6290
28730SOL    HW187864   2.537   6.639   8.634 -2.1927 -1.4222 -0.0722
28730SOL    HW287865   2.556   6.622   8.783 -0.8722  1.0610  0.0990
28731SOL     OW87866   2.872   2.952   2.200 -0.2127  0.5810  0.3247
28731SOL    HW187867   2.906   3.042   2.197 -1.2088  0.9521 -0.2528
28731SOL    HW287868   2.807   2.953   2.270 -0.7109  0.4906 -0.1324
28732SOL     OW87869   7.301   3.991   4.559  0.2780 -0.2865 -0.1555
28732SOL    HW187870   7.295   3.957   4.470  0.6159  0.4769 -0.4773
28732SOL    HW287871   7.310   3.913   4.614 -0.8149 -0.8178 -0.6976
28733SOL     OW87872   6.080   1.517   1.804  0.3320 -0.4117 -0.2134
28733SOL    HW187873   6.137   1.478   1.871  1.8257  1.8112 -0.0801
28733SOL    HW287874   5.991   1.496   1.833  1.0060 -1.6738  1.0632
28734SOL     OW87875   5.532   5.155   6.135  0.1213  0.5752 -0.2414
28734SOL    HW187876   5.484   5.235   6.112 -2.4018 -0.8739 -0.3352
28734SOL    HW287877   5.578   5.131   6.054 -0.5137  0.9673 -0.7290
28735SOL     OW87878   6.522   7.263   7.565 -0.1521 -0.1726 -0.0883
28735SOL    HW187879   6.516   7.271   7.660  0.6551 -0.4254 -0.0039
28735SOL    HW287880   6.607   7.221   7.550 -0.2030  0.0011 -0.9243
28736SOL     OW87881   8.482   7.826   8.804  0.3190 -0.5173 -0.3846
28736SOL    HW187882   8.576   7.812   8.794  0.4144  0.6687 -1.2934
28736SOL    HW287883   8.451   7.850   8.716 -0.0938  3.1573  0.6008
28737SOL     OW87884   4.032   9.219   5.479 -0.1529  0.0455  0.4434
28737SOL    HW187885   4.017   9.132   5.442  0.5378  0.4922 -0.9695
28737SOL    HW287886   4.051   9.274   5.403 -1.4242  1.6318  1.2193
28738SOL     OW87887   5.003   2.084   0.090  0.3525  0.6578 -0.1062
28738SOL    HW187888   5.012   2.029   0.169 -0.3527 -1.2441 -1.2713
28738SOL    HW287889   4.910   2.105   0.087  0.4446  1.0372 -0.2389
28739SOL     OW87890   6.489   4.400   8.469 -0.2647  0.4827 -0.3249
28739SOL    HW187891   6.460   4.488   8.494 -0.6675  0.1129  0.5743
28739SOL    HW287892   6.416   4.343   8.494  0.9101 -0.3843  1.3387
28740SOL     OW87893   3.601   4.907   0.103  0.0797 -0.4885  0.1224
28740SOL    HW187894   3.642   4.959   0.172 -0.5656 -0.8601  0.7971
28740SOL    HW287895   3.507   4.922   0.113  0.0128  0.8762 -1.8206
28741SOL     OW87896   8.258   6.967   2.352 -0.6433 -0.0313 -0.5030
28741SOL    HW187897   8.275   6.875   2.372 -1.1749 -0.1531 -0.6050
28741SOL    HW287898   8.301   6.982   2.267  2.4529  0.7365  1.0441
28742SOL     OW87899   1.278   3.122   2.672  0.1370  0.1587 -0.4545
28742SOL    HW187900   1.215   3.102   2.742  0.9667 -0.8734  0.0219
28742SOL    HW287901   1.223   3.148   2.598 -0.7345  2.0359  0.7851
28743SOL     OW87902   1.748   9.449   3.417  0.6694  0.1969 -0.2845
28743SOL    HW187903   1.678   9.389   3.444  1.2610 -0.8636 -1.0499
28743SOL    HW287904   1.707   9.535   3.416 -0.2357 -0.2031  0.7174
28744SOL     OW87905   6.083   2.825   2.646 -0.0841 -0.3667  0.0799
28744SOL    HW187906   6.169   2.834   2.604 -0.2689  0.8896 -0.0796
28744SOL    HW287907   6.032   2.770   2.586  1.1148 -2.6169  1.0200
28745SOL     OW87908   5.806   0.882   8.191  0.5500 -0.1701 -0.0594
28745SOL    HW187909   5.740   0.919   8.249  1.3359  1.3876 -0.1144
28745SOL    HW287910   5.781   0.790   8.181 -1.3038  0.2600  0.3290
28746SOL     OW87911   0.460   3.892   8.968 -0.1304 -0.2581 -0.9295
28746SOL    HW187912   0.523   3.963   8.954 -0.3198 -0.2600 -1.8871
28746SOL    HW287913   0.375   3.930   8.948 -0.3326 -0.5256 -0.6040
28747SOL     OW87914   4.914   0.939   4.083 -0.3622  0.0600  0.1779
28747SOL    HW187915   4.940   1.018   4.131 -0.8798  0.2274  0.1868
28747SOL    HW287916   4.931   0.961   3.991 -0.8209  0.3092  0.1493
28748SOL     OW87917   6.826   5.723   6.040  0.2305  0.3445  0.2954
28748SOL    HW187918   6.867   5.638   6.028 -0.8902 -0.0284 -1.1386
28748SOL    HW287919   6.759   5.727   5.972  0.2417  2.3645  0.3512
28749SOL     OW87920   6.354   0.496   2.783  0.4466  0.5391  0.2064
28749SOL    HW187921   6.415   0.454   2.722  0.0368 -0.5499  0.5283
28749SOL    HW287922   6.267   0.470   2.754  0.1382  1.6655  0.0626
28750SOL     OW87923   0.757   6.297   3.232  0.2198 -0.2858 -0.1141
28750SOL    HW187924   0.759   6.299   3.327 -1.1876  0.1964 -0.0768
28750SOL    HW287925   0.765   6.388   3.205 -2.3722 -0.0465 -0.3243
28751SOL     OW87926   3.729   5.503   9.584 -0.2205  0.7091 -0.1550
28751SOL    HW187927   3.639   5.472   9.596 -0.9047  1.1732 -3.1519
28751SOL    HW287928   3.779   5.423   9.566 -0.1148  0.5145  0.9217
28752SOL     OW87929   8.889   8.932   0.436  0.2447  0.0607  0.6610
28752SOL    HW187930   8.937   9.015   0.443 -0.9946  0.7590  1.2194
28752SOL    HW287931   8.843   8.924   0.519 -0.3590 -0.7381  0.2595
28753SOL     OW87932   7.894   1.468   5.047  0.6434  0.3571 -0.0339
28753SOL    HW187933   7.841   1.546   5.062  1.0031  0.5442  0.2847
28753SOL    HW287934   7.836   1.407   5.001 -0.0030  0.3712  0.7538
28754SOL     OW87935   2.926   0.521   8.250  0.6320  0.7600 -0.0987
28754SOL    HW187936   3.010   0.556   8.280  0.8132  2.7309 -2.5734
28754SOL    HW287937   2.874   0.598   8.228 -1.4242 -0.4505  0.2456
28755SOL     OW87938   8.525   6.361   9.005 -0.4048 -0.4386  0.4771
28755SOL    HW187939   8.561   6.317   9.081 -1.6564 -1.9772  0.2308
28755SOL    HW287940   8.579   6.330   8.932  0.5390  0.7279  0.6327
28756SOL     OW87941   3.938   3.299   8.015 -0.5629 -0.1538  0.2491
28756SOL    HW187942   3.935   3.205   8.000 -1.1915 -0.2672  1.0374
28756SOL    HW287943   4.017   3.311   8.068  0.1234 -0.0881 -0.7557
28757SOL     OW87944   2.652   9.079   2.510  0.2063  0.1098  0.1363
28757SOL    HW187945   2.744   9.104   2.495  0.6583 -1.5956 -0.1181
28757SOL    HW287946   2.618   9.149   2.567  1.1289  1.7326 -1.1891
28758SOL     OW87947   6.061   8.581   8.269 -0.4519 -0.0975  0.1497
28758SOL    HW187948   6.003   8.614   8.338 -0.9655  1.5702 -1.0149
28758SOL    HW287949   6.003   8.530   8.212  0.0261 -1.7180  1.0555
28759SOL     OW87950   4.252   9.317   5.282 -0.2044 -0.7716 -0.1638
28759SOL    HW187951   4.334   9.334   5.329  0.3491 -1.1051 -0.9793
28759SOL    HW287952   4.196   9.392   5.303  0.4452 -0.3544  0.1092
28760SOL     OW87953   9.081   5.892   8.841 -0.0267  0.5797 -0.1784
28760SOL    HW187954   9.071   5.899   8.936 -0.1104 -0.6399 -0.0759
28760SOL    HW287955   9.160   5.839   8.829 -0.1141  0.5821 -0.7846
28761SOL     OW87956   7.893   2.695   4.935 -0.2636  0.4016 -0.1551
28761SOL    HW187957   7.966   2.633   4.924 -0.4011  0.0195  0.9386
28761SOL    HW287958   7.818   2.639   4.957 -0.4819  0.9126  0.4359
28762SOL     OW87959   2.532   3.202   0.718  0.5783 -0.5591  0.3249
28762SOL    HW187960   2.601   3.221   0.655  0.1294 -0.2155 -0.0675
28762SOL    HW287961   2.533   3.277   0.778 -1.2120  0.8011 -1.2401
28763SOL     OW87962   5.401   9.229   3.805 -0.0937  0.1627  0.0783
28763SOL    HW187963   5.463   9.301   3.811 -0.8640  0.7542  1.3949
28763SOL    HW287964   5.433   9.175   3.733  1.8209  0.5644  0.5791
28764SOL     OW87965   4.242   2.727   2.917 -0.1148  0.3669 -0.7445
28764SOL    HW187966   4.221   2.652   2.974 -0.4952 -0.7386 -2.2739
28764SOL    HW287967   4.209   2.803   2.965 -1.6088 -0.6555 -0.0695
28765SOL     OW87968   9.286   9.116   1.804  0.0941 -0.3034 -0.1527
28765SOL    HW187969   9.238   9.034   1.817 -0.7790 -0.1341 -2.0173
28765SOL    HW287970   9.217   9.182   1.792  0.7860  0.3019 -0.8537
28766SOL     OW87971   4.513   0.485   5.343  0.0590  0.1000  0.0824
28766SOL    HW187972   4.554   0.411   5.388 -0.3586 -0.7349 -0.8839
28766SOL    HW287973   4.547   0.482   5.254 -0.4688  0.6776 -0.1475
28767SOL     OW87974   6.254   2.681   5.395  0.2108  0.0759  0.1792
28767SOL    HW187975   6.281   2.595   5.427 -0.7131 -0.1310  0.4361
28767SOL    HW287976   6.158   2.681   5.404  0.0355  0.4989 -1.3541
28768SOL     OW87977   7.724   8.558   1.671 -0.1504  0.5270  0.4957
28768SOL    HW187978   7.792   8.620   1.646  0.2469  0.1805  0.7040
28768SOL    HW287979   7.679   8.537   1.589 -0.6339  1.4895  0.5042
28769SOL     OW87980   8.936   4.856   8.011  0.5203  0.1997  0.4182
28769SOL    HW187981   9.031   4.854   8.004  0.5147  0.7344  0.1341
28769SOL    HW287982   8.905   4.850   7.921  0.3322  1.8612  0.3351
28770SOL     OW87983   2.490   7.013   2.281 -0.1253 -0.4814  0.1546
28770SOL    HW187984   2.498   7.034   2.188  0.7656  1.6460  0.6571
28770SOL    HW287985   2.418   7.069   2.312 -1.7616 -2.6012  0.4103
28771SOL     OW87986   7.994   1.520   0.453  0.2516  0.1005 -0.0771
28771SOL    HW187987   7.905   1.486   0.440  0.2594 -0.0037  0.1383
28771SOL    HW287988   8.047   1.472   0.390 -0.2738  2.0677 -2.1454
28772SOL     OW87989   0.519   3.912   3.137 -0.7028 -0.5044  0.3226
28772SOL    HW187990   0.590   3.851   3.117 -1.5325 -1.2196 -0.5002
28772SOL    HW287991   0.557   3.998   3.121  0.2071 -0.8324  0.6325
28773SOL     OW87992   6.381   4.314   2.482  0.4049 -0.0802  0.3648
28773SOL    HW187993   6.316   4.327   2.413  0.7258 -0.9625 -0.1210
28773SOL    HW287994   6.346   4.242   2.534 -0.3788  1.2845  1.8203
28774SOL     OW87995   3.257   5.781   3.556 -0.0361 -0.1744 -0.7325
28774SOL    HW187996   3.265   5.747   3.645  2.3320 -1.0959 -1.1986
28774SOL    HW287997   3.283   5.707   3.500  0.3075  0.9094 -2.0689
28775SOL     OW87998   6.063   3.540   9.089  0.4744  0.2594 -0.0960
28775SOL    HW187999   6.038   3.559   8.999 -1.0976 -1.2069 -0.0301
28775SOL    HW288000   6.006   3.594   9.142 -2.0520 -2.3060  0.0344
28776SOL     OW88001   3.971   4.553   6.552  0.6662 -0.0391  0.4730
28776SOL    HW188002   4.030   4.599   6.612  1.7215  0.3701 -0.8285
28776SOL    HW288003   3.965   4.610   6.475  0.9036 -1.3979 -0.6040
28777SOL     OW88004   3.794   8.250   2.680 -0.7702 -0.3095 -0.0491
28777SOL    HW188005   3.859   8.264   2.748 -0.3000 -0.7013 -0.4113
28777SOL    HW288006   3.751   8.168   2.705 -1.5341  0.2486  0.5056
28778SOL     OW88007   4.895   6.052   2.649  0.3079  0.3194 -0.2217
28778SOL    HW188008   4.882   6.144   2.626 -0.3571  0.4422  0.6001
28778SOL    HW288009   4.865   6.004   2.572  0.6709  0.7890 -0.6609
28779SOL     OW88010   4.431   0.676   9.136  0.6184 -0.2009  0.1726
28779SOL    HW188011   4.385   0.682   9.053 -0.2636 -1.9316  0.4860
28779SOL    HW288012   4.486   0.754   9.140  1.0246 -0.3118 -2.2201
28780SOL     OW88013   0.112   4.026   7.694  0.0650 -0.2618 -0.4386
28780SOL    HW188014   0.136   4.069   7.612  0.6073 -0.4274 -0.3701
28780SOL    HW288015   0.076   3.941   7.666  2.5565 -1.4080 -0.4411
28781SOL     OW88016   3.084   8.988   3.128 -0.1094  0.7923  0.5389
28781SOL    HW188017   3.048   8.956   3.045  0.7314  1.1177  0.0235
28781SOL    HW288018   3.177   8.968   3.122  0.1943  2.0159  0.8078
28782SOL     OW88019   0.991   7.561   8.297 -0.2286 -0.1931 -0.0407
28782SOL    HW188020   0.993   7.593   8.387  1.5761 -0.1730 -0.0420
28782SOL    HW288021   0.900   7.538   8.281 -0.8098  1.0223  1.3517
28783SOL     OW88022   0.605   9.600   1.138  0.1133  0.2437  0.6043
28783SOL    HW188023   0.647   9.600   1.052  0.7586 -0.0657  0.9101
28783SOL    HW288024   0.515   9.574   1.120  0.3996 -0.4350  0.0869
28784SOL     OW88025   1.139   6.295   1.199  0.7482  0.2643  0.5439
28784SOL    HW188026   1.230   6.296   1.168  0.2233 -1.1546 -1.2023
28784SOL    HW288027   1.134   6.221   1.259 -0.2076 -2.6981 -2.8810
28785SOL     OW88028   5.488   7.162   7.614 -0.5514 -0.2901 -0.2076
28785SOL    HW188029   5.544   7.223   7.565 -0.3088  0.6114  1.1585
28785SOL    HW288030   5.539   7.141   7.692 -1.2733 -1.0828  0.0615
28786SOL     OW88031   3.188   6.799   2.690 -0.4218  0.5976 -0.3360
28786SOL    HW188032   3.202   6.723   2.746 -0.2408  0.6193 -0.3515
28786SOL    HW288033   3.252   6.789   2.619  1.0311  1.8288  0.7502
28787SOL     OW88034   1.216   4.416   7.877  0.3918  0.4702 -0.0243
28787SOL    HW188035   1.183   4.388   7.792  1.6711 -0.8951 -0.1239
28787SOL    HW288036   1.143   4.462   7.917 -0.6123  0.1575 -1.4069
28788SOL     OW88037   1.956   7.616   9.335  0.0939 -0.9382  0.1533
28788SOL    HW188038   2.027   7.589   9.395  0.7485 -2.2303 -1.1361
28788SOL    HW288039   1.931   7.703   9.365  2.5518 -0.2385  0.3905
28789SOL     OW88040   5.842   9.431   1.706 -0.1321  0.1477 -0.8629
28789SOL    HW188041   5.749   9.408   1.717 -0.4591  1.4271 -0.7647
28789SOL    HW288042   5.858   9.496   1.773  1.2920 -1.1962  0.1603
28790SOL     OW88043   3.732   2.629   0.780  0.0736 -0.0296 -0.2706
28790SOL    HW188044   3.758   2.607   0.691  0.0013  0.0670 -0.3159
28790SOL    HW288045   3.638   2.644   0.775  0.1214  0.3032 -0.2460
28791SOL     OW88046   3.587   4.950   7.708  0.1633  0.0190 -0.4484
28791SOL    HW188047   3.546   4.891   7.771 -0.6897  0.3546 -0.6690
28791SOL    HW288048   3.524   5.022   7.700  0.8540  0.5965 -0.7273
28792SOL     OW88049   5.243   9.476   7.641  0.0851  0.6619  0.0557
28792SOL    HW188050   5.247   9.519   7.556 -0.6063 -0.2170 -0.4349
28792SOL    HW288051   5.295   9.396   7.629  1.1438  1.1956  0.8801
28793SOL     OW88052   2.473   9.025   7.155  0.1558 -0.6613 -0.7345
28793SOL    HW188053   2.402   9.087   7.169  0.0616 -0.0812 -3.3648
28793SOL    HW288054   2.547   9.062   7.204 -0.8118 -0.3172  0.5248
28794SOL     OW88055   3.185   3.362   3.438 -0.3122  0.1920  0.2373
28794SOL    HW188056   3.262   3.309   3.418 -0.4220 -0.9049  2.4490
28794SOL    HW288057   3.187   3.432   3.373  1.1285 -1.2170 -1.3415
28795SOL     OW88058   3.772   3.275   6.454  0.2262  0.4549  0.0406
28795SOL    HW188059   3.854   3.251   6.411  1.4892  0.4002  2.3036
28795SOL    HW288060   3.709   3.210   6.424  1.8479 -1.5561  0.7400
28796SOL     OW88061   8.115   8.946   5.698  0.0591  0.3545 -0.4902
28796SOL    HW188062   8.162   8.962   5.616 -1.1432 -0.1423 -1.2959
28796SOL    HW288063   8.141   9.018   5.754 -0.4578  1.7240 -1.9238
28797SOL     OW88064   2.350   6.753   8.758  0.3211  0.2080  0.9407
28797SOL    HW188065   2.400   6.824   8.719  0.3370 -1.0994 -1.6370
28797SOL    HW288066   2.262   6.762   8.721 -0.2104  0.0352  2.1358
28798SOL     OW88067   9.470   4.294   1.954  0.0873  0.2080  0.2109
28798SOL    HW188068   9.556   4.252   1.955  1.5896  3.0116 -0.0180
28798SOL    HW288069   9.421   4.249   1.885  1.6364 -0.9569 -0.1660
28799SOL     OW88070   6.585   2.875   2.431 -0.5387 -0.0254 -0.1611
28799SOL    HW188071   6.659   2.842   2.483 -0.3501  1.7962  0.7702
28799SOL    HW288072   6.625   2.934   2.367 -1.1098  0.2779 -0.2419
28800SOL     OW88073   7.503   2.642   9.492  0.3271 -0.2307 -0.0817
28800SOL    HW188074   7.504   2.663   9.399  0.5324  0.8846  0.1530
28800SOL    HW288075   7.559   2.708   9.532  2.5974 -2.3733  0.5205
28801SOL     OW88076   9.187   5.770   0.344 -0.0292 -0.2542  0.0539
28801SOL    HW188077   9.161   5.814   0.263  1.8110  0.2610 -0.3028
28801SOL    HW288078   9.233   5.838   0.394  1.1820 -1.2483  0.3375
28802SOL     OW88079   8.391   2.495   4.513 -0.0176 -0.0647  0.1820
28802SOL    HW188080   8.433   2.460   4.592  2.7912  3.0741  0.2748
28802SOL    HW288081   8.414   2.432   4.444  0.9389 -0.7925  1.1242
28803SOL     OW88082   7.342   7.490   3.577  0.0139  0.2250 -0.1303
28803SOL    HW188083   7.299   7.570   3.606  2.2887  1.4289  0.1049
28803SOL    HW288084   7.359   7.505   3.484 -1.4183 -0.9095 -0.6137
28804SOL     OW88085   2.344   7.579   5.081  0.4444 -0.2030  0.3758
28804SOL    HW188086   2.262   7.588   5.031  1.1946 -1.5936 -1.2491
28804SOL    HW288087   2.329   7.628   5.162 -1.3610  1.0083 -0.6155
28805SOL     OW88088   2.659   7.469   0.980 -0.0343  0.2734  0.2753
28805SOL    HW188089   2.737   7.488   0.929  0.7655 -1.7530  0.6542
28805SOL    HW288090   2.639   7.551   1.025  0.6913  1.3873 -1.3297
28806SOL     OW88091   4.714   3.537   8.235 -0.1608 -0.3269  0.0602
28806SOL    HW188092   4.748   3.454   8.268  1.7904  0.1579 -0.5908
28806SOL    HW288093   4.685   3.517   8.146 -0.4322 -0.4794  0.1819
28807SOL     OW88094   3.411   3.917   5.939 -1.1879  0.5352 -0.0770
28807SOL    HW188095   3.430   3.912   6.032 -1.7634 -0.9734 -0.0285
28807SOL    HW288096   3.387   4.009   5.925  1.2404  1.3854  0.7698
28808SOL     OW88097   8.764   8.194   7.184 -0.1001  0.0978  0.0457
28808SOL    HW188098   8.686   8.213   7.237  0.5406  3.5467 -0.0161
28808SOL    HW288099   8.833   8.181   7.249 -0.1343  0.1694  0.0976
28809SOL     OW88100   9.271   6.972   1.648 -0.0679 -0.1014 -0.0320
28809SOL    HW188101   9.253   7.018   1.565  1.1351 -0.7074 -0.6573
28809SOL    HW288102   9.214   7.015   1.711  1.6164  2.9686 -0.3666
28810SOL     OW88103   0.120   4.148   7.930 -0.4713 -0.3097 -0.2043
28810SOL    HW188104   0.136   4.240   7.911  2.8647 -0.8014 -0.2929
28810SOL    HW288105   0.112   4.106   7.845  0.1901 -0.4192 -0.2132
28811SOL     OW88106   6.028   0.890   0.963  0.3955 -0.2408 -0.3925
28811SOL    HW188107   5.976   0.970   0.955 -0.5743 -0.8687 -0.5611
28811SOL    HW288108   6.013   0.844   0.880 -0.3283 -1.3267  0.3196
28812SOL     OW88109   8.930   0.574   9.655  0.3066  0.3286  0.1758
28812SOL    HW188110   8.903   0.485   9.679  0.5185  0.0179 -0.7342
28812SOL    HW288111   8.982   0.604   9.730  1.5786 -0.8996 -0.1775
28813SOL     OW88112   3.336   9.462   8.691 -0.1822  0.3461  0.1645
28813SOL    HW188113   3.341   9.416   8.775  0.1816  0.6138  0.2912
28813SOL    HW288114   3.276   9.408   8.638 -0.9741  0.5499  0.8329
28814SOL     OW88115   1.563   7.510   7.238  0.2951 -0.1327  0.0806
28814SOL    HW188116   1.532   7.541   7.323 -0.8021  0.0468 -0.3664
28814SOL    HW288117   1.520   7.425   7.226 -1.0997  0.6719 -1.0916
28815SOL     OW88118   6.455   2.215   6.942  0.3723 -0.3451 -0.3072
28815SOL    HW188119   6.376   2.230   6.891 -0.1961  0.6398  0.8208
28815SOL    HW288120   6.520   2.274   6.904 -0.0455  0.3726  0.0703
28816SOL     OW88121   2.272   1.453   4.318  0.1060 -0.1277 -0.8740
28816SOL    HW188122   2.220   1.383   4.359  0.7685  0.4694  1.0785
28816SOL    HW288123   2.335   1.406   4.263 -0.8816 -0.9539 -1.3522
28817SOL     OW88124   1.120   5.773   6.884  0.3200  0.7500  0.1080
28817SOL    HW188125   1.140   5.718   6.960  2.0334  0.3306 -0.6053
28817SOL    HW288126   1.108   5.861   6.920 -1.2464  0.1703  1.1123
28818SOL     OW88127   9.647   3.587   5.296 -0.5505 -0.1048  0.2349
28818SOL    HW188128   9.705   3.590   5.373  1.8441 -0.9072 -1.4375
28818SOL    HW288129   9.663   3.670   5.251 -0.0809 -0.6494 -0.6330
28819SOL     OW88130   8.524   3.962   1.299  0.0375 -0.0705  0.7302
28819SOL    HW188131   8.436   3.926   1.286 -1.4531  3.0773  1.2927
28819SOL    HW288132   8.579   3.910   1.241 -2.4097 -1.2361 -0.7223
28820SOL     OW88133   9.311   4.640   3.171  0.4081 -0.1340  0.2023
28820SOL    HW188134   9.301   4.648   3.266  1.0870  0.7564  0.2121
28820SOL    HW288135   9.404   4.622   3.159  0.7277  1.6741 -0.3762
28821SOL     OW88136   5.358   3.202   4.615 -0.5090 -0.2848 -0.2770
28821SOL    HW188137   5.378   3.156   4.533 -2.3561 -1.8343  0.0837
28821SOL    HW288138   5.391   3.144   4.684  0.9293  0.9575  0.1456
28822SOL     OW88139   9.331   8.741   8.486 -0.4630 -0.1100 -0.0393
28822SOL    HW188140   9.296   8.741   8.397 -1.1367 -0.9398  0.2125
28822SOL    HW288141   9.273   8.798   8.536 -0.6615 -0.4226  0.0857
28823SOL     OW88142   1.690   0.695   5.846 -0.0414 -0.1132 -0.5718
28823SOL    HW188143   1.714   0.755   5.916  0.5150  2.1644 -2.5891
28823SOL    HW288144   1.772   0.651   5.822 -0.2489 -0.9604  0.1993
28824SOL     OW88145   5.505   2.978   7.254 -0.7591  1.0174 -0.8333
28824SOL    HW188146   5.438   3.017   7.198  0.0302  0.9885 -1.8353
28824SOL    HW288147   5.540   2.905   7.202 -1.0821 -0.0182  0.3466
28825SOL     OW88148   9.171   6.092   4.746 -0.5675 -0.4294  0.4372
28825SOL    HW188149   9.258   6.071   4.713 -0.6739  0.2620 -0.3162
28825SOL    HW288150   9.185   6.166   4.805 -0.5911 -0.5917  0.6466
28826SOL     OW88151   9.231   4.102   7.079  0.0091  0.0248 -0.2315
28826SOL    HW188152   9.248   4.054   6.998  1.5559 -1.6028  0.9843
28826SOL    HW288153   9.317   4.136   7.104 -0.8474  2.5231 -0.4294
28827SOL     OW88154   5.953   5.838   4.957 -0.0025  0.7499 -0.2053
28827SOL    HW188155   5.902   5.895   4.899 -0.0664  1.0808  0.1732
28827SOL    HW288156   5.918   5.856   5.045  0.6534  0.8629  0.0366
28828SOL     OW88157   6.244   6.702   7.358 -0.4378 -0.1875  0.5959
28828SOL    HW188158   6.241   6.770   7.290 -1.0882 -0.3410  0.4667
28828SOL    HW288159   6.153   6.676   7.370 -0.6893  1.6008  3.3301
28829SOL     OW88160   1.328   5.580   2.144  0.1887  0.0730  0.2681
28829SOL    HW188161   1.241   5.567   2.108  0.7946 -1.3494 -0.8047
28829SOL    HW288162   1.314   5.625   2.227 -1.5746 -0.3545  0.2273
28830SOL     OW88163   2.974   6.872   5.940 -0.1232  0.0745  0.4836
28830SOL    HW188164   2.908   6.890   5.873 -0.6611 -1.6791  0.4912
28830SOL    HW288165   3.056   6.866   5.892 -0.3718 -0.3021  0.0968
28831SOL     OW88166   4.985   4.680   0.549 -0.8052 -0.1817 -0.5709
28831SOL    HW188167   5.058   4.664   0.489 -0.3372 -1.1612  0.2287
28831SOL    HW288168   4.909   4.642   0.506 -0.3109 -1.6726 -0.1708
28832SOL     OW88169   5.457   5.728   3.634 -0.5157 -0.2638 -0.5425
28832SOL    HW188170   5.395   5.801   3.631 -1.8354 -1.2607  1.0704
28832SOL    HW288171   5.540   5.766   3.604 -1.7309  1.2472 -2.2170
28833SOL     OW88172   2.727   7.219   2.972 -0.9814  0.1488  0.8574
28833SOL    HW188173   2.640   7.255   2.958 -2.0175 -2.3400  0.2544
28833SOL    HW288174   2.768   7.222   2.886 -1.5718 -1.1700  0.4919
28834SOL     OW88175   6.714   0.929   4.185 -0.4875 -0.0745 -0.1718
28834SOL    HW188176   6.713   0.838   4.211 -0.9368 -0.7229 -2.2392
28834SOL    HW288177   6.704   0.927   4.090 -1.9490  2.1793 -0.1413
28835SOL     OW88178   3.237   7.743   4.973 -1.1010  0.2106  0.2678
28835SOL    HW188179   3.264   7.762   4.884 -3.1975 -0.2592 -0.5118
28835SOL    HW288180   3.242   7.827   5.018  1.9212  0.1016  0.3386
28836SOL     OW88181   7.691   4.117   1.163 -0.1557 -0.3353  0.2484
28836SOL    HW188182   7.678   4.065   1.242 -1.2242  0.4851  0.6259
28836SOL    HW288183   7.715   4.204   1.194  0.8870 -0.3774 -0.3697
28837SOL     OW88184   1.796   3.771   5.357  0.1238 -0.1890  0.2589
28837SOL    HW188185   1.719   3.720   5.334 -0.4041  0.3775  0.7563
28837SOL    HW288186   1.861   3.748   5.291 -0.2878 -1.0859  0.1568
28838SOL     OW88187   4.298   1.954   2.088  0.0954 -0.2503  0.1435
28838SOL    HW188188   4.257   2.034   2.120  1.7482  0.0734  1.5802
28838SOL    HW288189   4.267   1.886   2.148 -2.4903 -1.0992 -1.9223
28839SOL     OW88190   1.438   3.221   1.302 -0.2210  0.3838  0.5900
28839SOL    HW188191   1.365   3.234   1.242  0.5476 -0.0918 -0.4718
28839SOL    HW288192   1.504   3.175   1.251  0.2167 -0.6134  1.9873
28840SOL     OW88193   4.351   2.738   4.412  0.4403  0.5933 -0.4873
28840SOL    HW188194   4.258   2.759   4.420  0.5097  1.3657 -1.5102
28840SOL    HW288195   4.392   2.820   4.386  1.9205  1.1149  2.9732
28841SOL     OW88196   2.601   0.244   3.761  0.3431 -0.0595 -0.8124
28841SOL    HW188197   2.696   0.248   3.746  0.0944 -1.3241 -3.2649
28841SOL    HW288198   2.568   0.328   3.731  0.6935  0.6017  0.5611
28842SOL     OW88199   3.886   8.624   4.824 -0.0494  0.2802  0.0416
28842SOL    HW188200   3.800   8.638   4.865 -1.5067 -1.4283 -2.1883
28842SOL    HW288201   3.927   8.556   4.877 -0.7947 -0.0738  0.1804
28843SOL     OW88202   7.524   9.228   3.407 -1.0326  0.1638 -0.2708
28843SOL    HW188203   7.467   9.252   3.480  1.0582 -1.5765  2.1262
28843SOL    HW288204   7.607   9.273   3.426 -0.5139 -0.1083 -1.7456
28844SOL     OW88205   5.346   0.548   5.322 -0.0594 -0.5760  0.0680
28844SOL    HW188206   5.429   0.583   5.290 -0.9099  0.7540 -0.7108
28844SOL    HW288207   5.364   0.528   5.414  1.0301 -0.0143  0.0006
28845SOL     OW88208   8.111   5.837   2.636 -0.8647 -0.1203  0.0011
28845SOL    HW188209   8.163   5.776   2.583 -0.2855  0.3181  0.0543
28845SOL    HW288210   8.159   5.845   2.718 -1.1547  0.0979  0.1525
28846SOL     OW88211   3.799   8.563   6.806  0.3719 -0.0641  0.1654
28846SOL    HW188212   3.882   8.577   6.852  1.0878 -0.7248 -0.8800
28846SOL    HW288213   3.796   8.469   6.790 -0.2065  0.0541 -0.4787
28847SOL     OW88214   1.615   7.964   2.156  0.6936  0.5296  0.0602
28847SOL    HW188215   1.567   7.881   2.149  1.0500  0.4406 -1.9692
28847SOL    HW288216   1.572   8.010   2.228 -2.1578  0.2304 -1.3048
28848SOL     OW88217   3.369   9.002   3.440 -0.6404  0.0479  0.6142
28848SOL    HW188218   3.278   8.979   3.459 -0.6096 -1.5894 -0.9598
28848SOL    HW288219   3.374   9.095   3.459 -3.0871  0.5447 -0.7718
28849SOL     OW88220   4.889   8.472   0.396 -0.2436 -0.0540  0.8493
28849SOL    HW188221   4.836   8.528   0.453 -1.1656  2.6090 -2.2913
28849SOL    HW288222   4.838   8.392   0.386 -2.5837  1.4441 -0.0925
28850SOL     OW88223   1.250   0.200   6.005  0.6375  0.4630 -0.1436
28850SOL    HW188224   1.328   0.233   5.960  0.2746 -0.0566 -1.1921
28850SOL    HW288225   1.208   0.278   6.041  0.4055  1.0302 -1.5858
28851SOL     OW88226   0.630   4.240   2.675 -0.4418 -0.2487 -0.0646
28851SOL    HW188227   0.580   4.176   2.726 -1.7538  1.0725  0.3697
28851SOL    HW288228   0.611   4.218   2.584  0.5174 -1.5335  0.0210
28852SOL     OW88229   6.919   1.975   6.691 -0.1008  0.1436  0.0430
28852SOL    HW188230   6.864   1.968   6.769 -0.3636 -1.6797 -0.2594
28852SOL    HW288231   6.890   2.056   6.648 -1.0900  0.3083  0.9674
28853SOL     OW88232   0.806   4.166   5.482 -0.1865  0.0815 -0.4022
28853SOL    HW188233   0.716   4.163   5.513 -1.4260 -0.9664 -3.6301
28853SOL    HW288234   0.811   4.247   5.431  1.1788  0.8285  0.8405
28854SOL     OW88235   7.139   4.054   7.301  0.0401  1.0581 -0.1561
28854SOL    HW188236   7.155   4.034   7.209  0.2862 -0.8068  0.2611
28854SOL    HW288237   7.095   3.976   7.336  0.0461  1.6816  1.3304
28855SOL     OW88238   3.417   8.833   1.803  0.1973  0.5862  0.0382
28855SOL    HW188239   3.472   8.852   1.728  0.9793  1.8640  0.8911
28855SOL    HW288240   3.425   8.910   1.860 -1.9944  0.5593  0.4960
28856SOL     OW88241   0.690   2.345   5.640  1.2726 -0.2458  0.2960
28856SOL    HW188242   0.737   2.394   5.573 -0.7647  2.8000  0.8678
28856SOL    HW288243   0.685   2.405   5.714 -2.9929 -0.4511  0.4332
28857SOL     OW88244   5.513   9.372   6.636 -0.0132  1.0073 -0.0464
28857SOL    HW188245   5.448   9.354   6.568  0.4455  0.3926 -0.3228
28857SOL    HW288246   5.596   9.380   6.589  0.3750  0.1466  0.4787
28858SOL     OW88247   9.570   2.643   9.105  0.0945  0.4753 -0.8161
28858SOL    HW188248   9.526   2.690   9.035  1.0746  1.2714 -0.9169
28858SOL    HW288249   9.510   2.650   9.180 -0.9240 -0.3257 -1.5323
28859SOL     OW88250   3.560   4.966   3.665 -0.4709  0.3046  0.2085
28859SOL    HW188251   3.548   4.971   3.760 -2.0035 -2.1326  0.2203
28859SOL    HW288252   3.472   4.955   3.631  0.2503 -1.3419 -1.2680
28860SOL     OW88253   7.302   9.578   6.645 -0.1247  0.0576 -0.2970
28860SOL    HW188254   7.254   9.591   6.726 -2.8301 -0.7156 -1.6361
28860SOL    HW288255   7.269   9.645   6.586  1.3423  0.2326 -0.9642
28861SOL     OW88256   7.991   5.236   3.494  0.1858 -0.3771  0.3168
28861SOL    HW188257   7.962   5.146   3.507 -1.3982 -0.0052 -0.4139
28861SOL    HW288258   7.921   5.277   3.444  0.8617  1.2793  0.6566
28862SOL     OW88259   9.520   3.836   9.277 -0.6052 -0.2069 -0.2033
28862SOL    HW188260   9.447   3.861   9.222 -0.4860 -1.3912 -0.9377
28862SOL    HW288261   9.487   3.843   9.367 -1.1299  0.7160 -0.4641
28863SOL     OW88262   1.875   7.432   8.030 -0.1679  0.0185  0.3332
28863SOL    HW188263   1.803   7.487   8.060 -0.0627  0.5893 -0.4286
28863SOL    HW288264   1.878   7.359   8.093 -1.7872 -0.3330  0.0429
28864SOL     OW88265   1.230   7.401   4.663  0.6073 -0.3875  0.6383
28864SOL    HW188266   1.247   7.333   4.728 -0.2407 -1.2456 -0.0123
28864SOL    HW288267   1.151   7.444   4.693  1.3557  0.5871  1.2540
28865SOL     OW88268   8.582   7.045   8.902 -0.1182 -0.3880 -0.0257
28865SOL    HW188269   8.498   7.047   8.948 -0.3097  0.2696 -0.3970
28865SOL    HW288270   8.635   6.981   8.951 -0.7214 -0.5690  0.3963
28866SOL     OW88271   6.910   4.101   1.262 -0.0576  0.1745  0.0882
28866SOL    HW188272   6.993   4.092   1.308  0.5628  0.2424 -0.9778
28866SOL    HW288273   6.884   4.192   1.275 -0.2476  0.0116  0.8778
28867SOL     OW88274   1.416   8.774   6.355 -0.9013 -0.1724 -0.2087
28867SOL    HW188275   1.473   8.785   6.279 -1.0696  0.5199 -0.2376
28867SOL    HW288276   1.333   8.743   6.319 -0.2114 -2.3631 -0.0622
28868SOL     OW88277   1.993   6.421   8.091  0.7581 -0.3668  0.5944
28868SOL    HW188278   2.057   6.405   8.160  2.0946 -0.8082 -0.6859
28868SOL    HW288279   2.032   6.490   8.037 -0.2862  0.0146  0.2833
28869SOL     OW88280   3.060   4.786   8.487 -0.8909  0.4841 -0.0267
28869SOL    HW188281   3.088   4.712   8.541 -1.2346  0.0726 -0.4037
28869SOL    HW288282   3.065   4.862   8.545  2.9273  0.8349 -0.5804
28870SOL     OW88283   6.453   3.474   9.155 -0.3804 -0.1849 -0.1860
28870SOL    HW188284   6.384   3.511   9.211 -0.4635 -1.3571  0.5341
28870SOL    HW288285   6.531   3.473   9.211 -0.0811  0.0345 -0.5991
28871SOL     OW88286   2.105   0.746   3.933  0.2425 -0.1985  0.8904
28871SOL    HW188287   2.185   0.748   3.881 -0.1575  0.3087  0.2852
28871SOL    HW288288   2.101   0.657   3.967  0.5799 -0.4947  0.1655
28872SOL     OW88289   8.945   5.844   5.888 -0.2678  0.1158  0.0462
28872SOL    HW188290   8.885   5.869   5.818  0.1465  0.1560 -0.2989
28872SOL    HW288291   8.954   5.749   5.879  0.5694  0.2457 -0.5976
28873SOL     OW88292   8.809   2.963   2.167  0.1556 -0.2537 -0.2450
28873SOL    HW188293   8.743   3.028   2.190  0.6981  0.4624 -0.6589
28873SOL    HW288294   8.859   2.949   2.248  1.1342  1.1605 -0.5787
28874SOL     OW88295   7.017   5.486   7.255  0.2287 -0.5155  0.5842
28874SOL    HW188296   7.011   5.421   7.324  0.3694 -1.7969 -0.5657
28874SOL    HW288297   6.948   5.463   7.193  1.6320 -0.9424 -0.9104
28875SOL     OW88298   2.167   8.833   6.423 -0.9174  0.4871  0.8327
28875SOL    HW188299   2.207   8.813   6.507  0.4582  2.2469  0.6641
28875SOL    HW288300   2.081   8.867   6.445 -0.4863  1.1358  1.5693
28876SOL     OW88301   3.661   0.096   0.389  0.0202  0.1728  0.1006
28876SOL    HW188302   3.582   0.143   0.360  0.2349  0.1701 -0.4928
28876SOL    HW288303   3.628   0.031   0.452 -0.7998 -1.4596 -1.8883
28877SOL     OW88304   9.445   3.953   0.468 -0.0625  0.0659  0.2892
28877SOL    HW188305   9.356   3.971   0.499 -0.3510 -1.5289  0.4538
28877SOL    HW288306   9.457   4.014   0.395 -0.4840  1.7734  1.5541
28878SOL     OW88307   6.313   7.418   2.170 -0.0646 -0.4720 -0.5751
28878SOL    HW188308   6.331   7.469   2.091  0.9426 -0.8471 -0.5999
28878SOL    HW288309   6.370   7.342   2.163  2.1593  0.8232  1.8088
28879SOL     OW88310   3.020   5.878   9.412  0.0518 -0.1890 -0.3284
28879SOL    HW188311   3.113   5.899   9.403  0.4129 -0.8802  1.3287
28879SOL    HW288312   2.978   5.962   9.429  0.2373  0.2328 -1.8203
28880SOL     OW88313   8.877   5.593   4.948  0.2670 -0.3086 -0.5796
28880SOL    HW188314   8.970   5.611   4.960  0.0550 -0.1527  1.0884
28880SOL    HW288315   8.870   5.558   4.859  2.2980 -2.6821  0.0874
28881SOL     OW88316   8.285   3.935   2.309 -0.4556  0.2496 -0.3959
28881SOL    HW188317   8.240   3.944   2.225 -0.8553  1.3157 -0.0873
28881SOL    HW288318   8.369   3.978   2.296 -0.8282  1.1152 -0.0386
28882SOL     OW88319   9.414   8.481   8.542  0.1587  0.0890 -0.2737
28882SOL    HW188320   9.476   8.460   8.472  2.3233 -0.4909  1.6879
28882SOL    HW288321   9.376   8.564   8.516  1.5640  0.3346 -1.7012
28883SOL     OW88322   5.873   9.128   0.325 -0.5808  0.7252  0.6293
28883SOL    HW188323   5.945   9.147   0.385 -1.0441 -0.5825  1.6360
28883SOL    HW288324   5.913   9.132   0.238  0.2114  2.1600  1.0258
28884SOL     OW88325   4.132   2.817   9.360 -0.0442  0.6050 -0.0399
28884SOL    HW188326   4.182   2.739   9.384  0.7384  1.3041  0.6597
28884SOL    HW288327   4.132   2.871   9.439  0.4704  1.8509 -0.8557
28885SOL     OW88328   0.452   4.266   7.102 -0.3678  0.1738  0.6227
28885SOL    HW188329   0.511   4.340   7.119 -1.0174  1.3717 -1.8006
28885SOL    HW288330   0.468   4.244   7.010 -2.5511 -0.5225  0.3507
28886SOL     OW88331   5.051   0.283   3.401  0.2773 -0.9121 -0.3604
28886SOL    HW188332   5.133   0.301   3.447 -0.5149  1.0162  0.4204
28886SOL    HW288333   5.016   0.370   3.379 -1.9114 -1.6241 -0.0073
28887SOL     OW88334   9.674   8.147   5.445 -0.7704  0.3674  0.4558
28887SOL    HW188335   9.760   8.177   5.472 -0.3737 -0.8359  0.5870
28887SOL    HW288336   9.692   8.078   5.381 -1.6324 -0.0768  0.6841
28888SOL     OW88337   4.996   3.436   7.898 -0.7056 -0.1194  0.4063
28888SOL    HW188338   5.024   3.356   7.942  2.5375  2.2978  3.2866
28888SOL    HW288339   4.993   3.502   7.967 -0.0215  2.9803 -2.2818
28889SOL     OW88340   0.871   0.653   9.380 -0.7685 -0.3898  0.1505
28889SOL    HW188341   0.893   0.633   9.289 -0.3958 -0.5588  0.2727
28889SOL    HW288342   0.817   0.732   9.376  1.2837  1.0952 -0.0768
28890SOL     OW88343   4.584   2.332   2.774 -0.1617  0.2292 -0.5418
28890SOL    HW188344   4.602   2.240   2.755 -1.2572 -0.2264  0.5314
28890SOL    HW288345   4.499   2.348   2.734 -0.4561  0.4794  0.1736
28891SOL     OW88346   4.000   9.026   0.556 -0.4507  0.1067  0.3142
28891SOL    HW188347   4.006   9.089   0.628 -1.0829 -0.7717  1.1659
28891SOL    HW288348   3.956   9.074   0.486 -1.1647  0.5389  1.0398
28892SOL     OW88349   0.151   5.895   4.457 -0.4176 -0.3052 -0.4544
28892SOL    HW188350   0.220   5.850   4.506  0.1581  1.8679  0.8774
28892SOL    HW288351   0.168   5.871   4.366  0.0496 -2.4292  0.1196
28893SOL     OW88352   9.430   6.183   4.246 -1.2113  0.1522  0.6881
28893SOL    HW188353   9.339   6.212   4.251 -2.0167 -1.8261 -1.0455
28893SOL    HW288354   9.450   6.181   4.153 -0.1224 -1.4987  0.9136
28894SOL     OW88355   4.593   4.452   5.580 -0.0003  1.0458  0.0082
28894SOL    HW188356   4.640   4.535   5.571  0.4316  0.8585  0.5246
28894SOL    HW288357   4.603   4.428   5.672 -0.3858  0.5715 -0.0665
28895SOL     OW88358   7.452   4.270   0.701 -0.5564 -0.1466 -0.0411
28895SOL    HW188359   7.385   4.210   0.734 -0.1191 -0.1231  0.9119
28895SOL    HW288360   7.533   4.242   0.742 -0.0921  0.2616 -0.6464
28896SOL     OW88361   3.822   2.424   7.205 -0.5001 -0.5967  0.1586
28896SOL    HW188362   3.727   2.435   7.207 -0.6611 -1.6471 -0.8308
28896SOL    HW288363   3.856   2.503   7.248 -1.7547  0.6387 -1.0269
28897SOL     OW88364   2.995   1.712   5.597 -0.1940 -0.0671  0.0705
28897SOL    HW188365   2.942   1.638   5.627  1.3360 -1.2017  0.1492
28897SOL    HW288366   3.032   1.683   5.514  2.2037 -0.3659  1.1452
28898SOL     OW88367   6.662   9.491   7.576  0.4597 -0.0169  0.1204
28898SOL    HW188368   6.691   9.526   7.660  0.9326  0.8205 -0.3800
28898SOL    HW288369   6.625   9.567   7.530 -2.5028 -0.9773  0.6899
28899SOL     OW88370   8.135   2.605   1.703 -0.4985 -0.1124  0.4263
28899SOL    HW188371   8.225   2.637   1.701 -0.6071  0.7360  3.7257
28899SOL    HW288372   8.084   2.679   1.736 -2.6578 -0.2529 -2.2232
28900SOL     OW88373   6.882   8.857   4.542 -0.1384 -0.2096  0.3867
28900SOL    HW188374   6.883   8.892   4.631 -1.1759  1.0612 -0.0696
28900SOL    HW288375   6.878   8.934   4.486  2.5996 -0.8805 -0.8917
28901SOL     OW88376   2.446   8.078   2.218  0.3334 -0.0420 -0.0677
28901SOL    HW188377   2.428   8.163   2.180  0.2725 -1.0330 -2.4337
28901SOL    HW288378   2.542   8.075   2.227  0.4582 -0.1808 -1.2444
28902SOL     OW88379   0.266   9.178   6.606 -0.4580  0.6704 -0.0786
28902SOL    HW188380   0.295   9.190   6.696  1.3286 -1.3124 -0.3061
28902SOL    HW288381   0.172   9.195   6.608 -0.2359  1.9747  1.8577
28903SOL     OW88382   8.121   9.238   1.057  0.2891  0.0826  0.2566
28903SOL    HW188383   8.132   9.255   0.964 -1.2067 -0.3371 -0.0090
28903SOL    HW288384   8.165   9.154   1.072  0.2187 -0.0227 -0.1349
28904SOL     OW88385   1.683   5.778   2.373  0.2270 -0.4891  0.0726
28904SOL    HW188386   1.772   5.795   2.404  0.4442  0.6574 -1.1355
28904SOL    HW288387   1.693   5.707   2.309 -0.1276 -2.3264  1.9407
28905SOL     OW88388   6.609   5.417   8.327  0.1526  0.7302  0.0567
28905SOL    HW188389   6.631   5.324   8.333  2.3863  1.0220 -1.8703
28905SOL    HW288390   6.519   5.418   8.296 -0.1625 -0.7616  0.8070
28906SOL     OW88391   7.746   2.972   8.408  0.1771  0.0208  0.0326
28906SOL    HW188392   7.793   2.897   8.444 -0.8867 -0.5581  0.2642
28906SOL    HW288393   7.806   3.009   8.343  0.3512 -1.6158 -0.7901
28907SOL     OW88394   3.071   9.055   2.049 -0.2159  0.4531  0.2731
28907SOL    HW188395   3.048   8.975   2.097 -0.3401  1.1135  1.3593
28907SOL    HW288396   3.163   9.069   2.070 -0.2015  0.6128  0.0993
28908SOL     OW88397   6.131   8.864   4.798 -0.4793  0.0924  0.3706
28908SOL    HW188398   6.087   8.830   4.721 -1.3501  0.1079  0.8558
28908SOL    HW288399   6.102   8.955   4.805 -0.6888 -0.0117  0.9156
28909SOL     OW88400   6.297   2.188   9.161  0.1605 -0.2864 -0.5371
28909SOL    HW188401   6.306   2.226   9.074  0.5372 -0.7934 -0.7184
28909SOL    HW288402   6.374   2.133   9.172  0.9541  0.9971  0.7530
28910SOL     OW88403   6.452   5.296   6.563 -0.0266 -0.5259 -0.4465
28910SOL    HW188404   6.450   5.292   6.467 -0.5847  1.4317 -0.5663
28910SOL    HW288405   6.495   5.380   6.582 -1.5626 -0.0178  0.9846
28911SOL     OW88406   5.696   9.241   8.089  0.7963 -0.1358  0.1118
28911SOL    HW188407   5.781   9.276   8.115 -1.0338  3.4572  2.0960
28911SOL    HW288408   5.667   9.300   8.019  0.0173 -1.5037 -0.7611
28912SOL     OW88409   4.929   7.470   5.570  0.2848 -0.3703  0.2613
28912SOL    HW188410   4.984   7.462   5.648  1.6347  0.4497 -0.5677
28912SOL    HW288411   4.861   7.533   5.594  0.9690  0.2324  0.6440
28913SOL     OW88412   6.204   4.723   3.862  0.7704 -0.4633  0.3389
28913SOL    HW188413   6.210   4.692   3.953  1.2371  2.6911  1.5165
28913SOL    HW288414   6.120   4.768   3.858  0.5708 -0.9155 -0.9532
28914SOL     OW88415   0.192   8.626   7.992  0.3723 -0.2454 -0.5632
28914SOL    HW188416   0.103   8.603   8.018  0.5974 -0.9515 -0.3832
28914SOL    HW288417   0.188   8.629   7.896 -0.7340  3.5093 -0.5594
28915SOL     OW88418   7.970   7.943   5.390  0.0085  0.5513 -0.1522
28915SOL    HW188419   8.040   7.912   5.448 -0.4596 -1.1852 -0.4393
28915SOL    HW288420   7.998   8.030   5.363  1.3091  0.5088  0.9379
28916SOL     OW88421   6.984   0.363   1.020 -0.5721  0.5283 -0.3618
28916SOL    HW188422   6.964   0.321   1.104 -0.0643  2.2094  0.6555
28916SOL    HW288423   7.072   0.331   0.999 -1.0047 -0.5020 -0.6725
28917SOL     OW88424   3.483   8.410   5.136 -0.3664 -0.0981 -0.4948
28917SOL    HW188425   3.396   8.400   5.176 -0.0051 -0.3691  0.2329
28917SOL    HW288426   3.501   8.324   5.097  0.7436 -0.9560  1.7493
28918SOL     OW88427   5.384   3.995   4.338  0.0386 -0.4588  0.2606
28918SOL    HW188428   5.346   4.054   4.404 -0.9744 -0.7981 -0.0048
28918SOL    HW288429   5.406   4.052   4.265  1.6318  0.0021  1.0527
28919SOL     OW88430   8.386   7.164   4.111  0.0024 -0.3471  0.8872
28919SOL    HW188431   8.290   7.161   4.104  0.0554  0.0804 -0.0618
28919SOL    HW288432   8.410   7.249   4.076  0.8965 -1.3200 -0.9821
28920SOL     OW88433   7.782   1.530   4.326 -0.0363  0.3101  0.2121
28920SOL    HW188434   7.705   1.580   4.300  0.0627 -0.0397 -0.7960
28920SOL    HW288435   7.820   1.498   4.243 -0.7699 -2.4171  0.8135
28921SOL     OW88436   6.245   7.139   3.969 -0.7193 -0.0139 -0.2146
28921SOL    HW188437   6.312   7.208   3.972 -0.9039  0.1344  1.0897
28921SOL    HW288438   6.184   7.163   4.038 -0.6902 -1.5800  0.3751
28922SOL     OW88439   5.372   3.946   3.670  0.1572 -0.1295  0.3547
28922SOL    HW188440   5.408   3.892   3.600  1.4058 -0.9867  1.6195
28922SOL    HW288441   5.439   4.012   3.687  0.2433 -0.4565  1.3189
28923SOL     OW88442   6.238   4.829   5.835  0.4368  0.2392 -0.0240
28923SOL    HW188443   6.236   4.893   5.764  0.4267  0.1549 -0.0997
28923SOL    HW288444   6.316   4.852   5.885 -0.0310  0.8430  0.4438
28924SOL     OW88445   1.573   3.782   4.456  0.3825  0.3770  0.5924
28924SOL    HW188446   1.635   3.847   4.423  0.0990 -0.9555 -3.0635
28924SOL    HW288447   1.585   3.707   4.398 -0.8632 -2.0229  3.2415
28925SOL     OW88448   3.066   5.488   7.962  0.4965  0.3540 -0.2196
28925SOL    HW188449   3.042   5.420   7.899 -1.7723  0.7624  0.1383
28925SOL    HW288450   2.994   5.551   7.958  0.2843  0.4125  2.7338
28926SOL     OW88451   7.012   2.815   6.436 -0.3313 -0.6313  0.1489
28926SOL    HW188452   6.982   2.734   6.475  0.1771 -0.9393 -0.0868
28926SOL    HW288453   7.062   2.788   6.358  1.2006 -0.2004  0.9404
28927SOL     OW88454   3.719   4.771   1.817 -0.1450  0.3075 -0.0903
28927SOL    HW188455   3.642   4.721   1.844  0.0773 -0.3352 -0.6065
28927SOL    HW288456   3.700   4.861   1.843  0.4091 -0.3338  3.0025
28928SOL     OW88457   3.879   2.255   3.334  0.2483 -0.2610 -0.4763
28928SOL    HW188458   3.957   2.209   3.366  1.4298  1.4077 -0.8411
28928SOL    HW288459   3.806   2.215   3.382  1.3153 -1.8361 -0.1062
28929SOL     OW88460   4.314   7.616   2.273 -0.4746 -0.3311  0.2047
28929SOL    HW188461   4.407   7.594   2.285 -0.0937  0.8932 -0.2958
28929SOL    HW288462   4.303   7.697   2.323 -0.8148  0.5030 -1.1678
28930SOL     OW88463   8.986   3.557   3.395 -0.5475  1.0938 -0.4888
28930SOL    HW188464   8.971   3.615   3.320 -2.0472 -0.2320 -1.2695
28930SOL    HW288465   8.904   3.561   3.444  0.1443  1.3240  0.6700
28931SOL     OW88466   0.707   6.310   5.289  0.3345  0.2999  0.2870
28931SOL    HW188467   0.732   6.253   5.216  2.1887  0.3756  0.8097
28931SOL    HW288468   0.685   6.250   5.360  1.4347  0.2261  0.5701
28932SOL     OW88469   3.144   4.610   3.126  0.1635 -0.1453 -0.2419
28932SOL    HW188470   3.173   4.586   3.038 -1.4231 -0.0715 -0.8091
28932SOL    HW288471   3.150   4.529   3.176 -0.2636 -0.5200 -0.7888
28933SOL     OW88472   6.476   4.469   9.452 -0.4002 -0.3061  0.1745
28933SOL    HW188473   6.387   4.468   9.418 -0.5048 -0.7808  0.4622
28933SOL    HW288474   6.498   4.562   9.459 -1.7246 -0.0895  2.3126
28934SOL     OW88475   1.946   7.873   8.058  0.1535 -0.0350 -0.2685
28934SOL    HW188476   1.884   7.810   8.023 -0.3438 -0.3534  1.0897
28934SOL    HW288477   1.996   7.824   8.124 -0.1989  0.9400  0.7614
28935SOL     OW88478   0.078   8.500   6.624 -0.3900  0.2845 -0.1603
28935SOL    HW188479   0.161   8.473   6.664 -0.6425 -0.1037  0.1057
28935SOL    HW288480   0.020   8.517   6.698 -0.6716  0.1609 -0.3514
28936SOL     OW88481   5.156   2.783   0.047  0.6619 -0.0896  0.3253
28936SOL    HW188482   5.117   2.709  -0.000  1.0296  0.7011 -1.3027
28936SOL    HW288483   5.100   2.795   0.123  0.1093 -1.5106  0.1801
28937SOL     OW88484   5.220   1.744   1.409 -0.4886  0.6236 -0.1596
28937SOL    HW188485   5.302   1.696   1.396 -1.0140 -0.9224  1.7054
28937SOL    HW288486   5.160   1.708   1.343 -0.4373 -0.2567  0.2604
28938SOL     OW88487   2.724   0.694   2.695  0.5214 -0.0739 -0.4391
28938SOL    HW188488   2.746   0.678   2.787  1.1768 -0.9472 -0.7337
28938SOL    HW288489   2.635   0.729   2.697  0.2569 -0.7676  0.4833
28939SOL     OW88490   3.131   6.052   4.209  0.4000 -0.4076 -1.2197
28939SOL    HW188491   3.093   6.104   4.138 -1.2361  1.4116  0.8290
28939SOL    HW288492   3.210   6.099   4.234 -1.0779  1.2836  0.6306
28940SOL     OW88493   3.900   4.213   1.602  0.0270  0.0446  0.5087
28940SOL    HW188494   3.978   4.255   1.566 -0.0488 -0.9725 -0.9263
28940SOL    HW288495   3.934   4.140   1.653  0.1125  1.2337  2.2275
28941SOL     OW88496   5.135   8.846   8.642 -0.5861 -0.6790 -0.1781
28941SOL    HW188497   5.151   8.758   8.677  0.7724 -0.0644  0.8505
28941SOL    HW288498   5.200   8.857   8.573 -0.0334 -0.1218  0.4102
28942SOL     OW88499   6.252   9.603   3.016  0.0167  0.1685  0.3881
28942SOL    HW188500   6.288   9.552   3.089  1.7827 -0.4280 -0.8333
28942SOL    HW288501   6.308   9.681   3.011  0.6236 -0.3198 -0.9699
28943SOL     OW88502   9.261   9.358   8.527 -0.3099 -0.1104  0.4711
28943SOL    HW188503   9.188   9.412   8.557  1.0739  1.8658  0.4530
28943SOL    HW288504   9.335   9.418   8.525  1.1651 -1.8919 -0.2006
28944SOL     OW88505   4.599   8.703   0.942 -0.2941 -0.2345  0.0793
28944SOL    HW188506   4.659   8.638   0.906  0.3251  0.0451  0.5839
28944SOL    HW288507   4.626   8.786   0.904  1.2672  0.3002  2.1450
28945SOL     OW88508   0.408   4.454   5.456  0.3181  0.2286 -0.2039
28945SOL    HW188509   0.441   4.495   5.537 -0.0393  0.9662 -0.4238
28945SOL    HW288510   0.314   4.471   5.457 -0.0244 -1.4596  0.1798
28946SOL     OW88511   8.634   9.399   7.154 -0.0893 -0.1549 -0.0405
28946SOL    HW188512   8.714   9.348   7.146  0.9270  1.4831 -0.9220
28946SOL    HW288513   8.615   9.399   7.248  2.6155  1.7390  0.6486
28947SOL     OW88514   7.478   8.395   9.671  0.2190 -0.5260 -0.2123
28947SOL    HW188515   7.538   8.340   9.721 -1.3558 -0.4814  1.8608
28947SOL    HW288516   7.392   8.358   9.688 -0.6961  1.4457 -0.2960
28948SOL     OW88517   7.767   2.698   3.979  0.1601  0.5852 -0.6686
28948SOL    HW188518   7.719   2.619   4.001 -0.5426  0.7673 -1.4958
28948SOL    HW288519   7.859   2.674   3.989 -0.0694 -0.0886 -0.1231
28949SOL     OW88520   1.908   3.717   9.479 -0.5214  0.0335 -0.0501
28949SOL    HW188521   1.884   3.640   9.530 -2.6279  0.5870 -0.0813
28949SOL    HW288522   1.982   3.689   9.426  0.4167 -1.1629  1.8058
28950SOL     OW88523   8.234   2.053   0.672 -0.3870  0.2090 -0.1917
28950SOL    HW188524   8.187   2.133   0.651 -0.2524  0.5713  0.8017
28950SOL    HW288525   8.211   2.036   0.764  0.7821 -0.0398  0.0725
28951SOL     OW88526   8.878   5.316   9.073  0.2386 -0.1744 -0.0958
28951SOL    HW188527   8.972   5.320   9.053  0.4136  1.7985  0.8849
28951SOL    HW288528   8.868   5.234   9.122  1.7900  0.3515  1.2249
28952SOL     OW88529   9.056   2.237   3.853 -0.0998  0.1723  0.2074
28952SOL    HW188530   9.141   2.206   3.882  0.2099 -0.4194 -1.2588
28952SOL    HW288531   8.993   2.195   3.912  0.4834 -1.1932 -0.1168
28953SOL     OW88532   5.322   5.838   1.173 -0.0284 -0.2108  0.2451
28953SOL    HW188533   5.230   5.866   1.174  0.0648  0.2614 -1.3098
28953SOL    HW288534   5.368   5.912   1.133  1.3364  0.3608  2.7253
28954SOL     OW88535   2.172   7.970   4.990 -0.3337 -0.0401 -0.2351
28954SOL    HW188536   2.212   7.905   5.048 -1.1035 -0.6307 -0.3494
28954SOL    HW288537   2.081   7.975   5.018  0.1012  2.4495  1.0827
28955SOL     OW88538   5.860   6.861   2.529  0.1887 -0.4695 -0.3793
28955SOL    HW188539   5.835   6.771   2.508 -2.4247  0.1164 -0.0408
28955SOL    HW288540   5.856   6.907   2.445 -0.6415 -0.2063 -0.1972
28956SOL     OW88541   1.992   1.519   0.210 -0.5441  0.1345  0.5005
28956SOL    HW188542   2.036   1.587   0.263  0.4071 -1.6578  2.1523
28956SOL    HW288543   2.016   1.540   0.120  0.1149  1.7176  0.9989
28957SOL     OW88544   0.258   5.707   3.376  0.2946  0.1761 -0.0071
28957SOL    HW188545   0.254   5.632   3.317 -0.6634  0.5300 -0.4138
28957SOL    HW288546   0.350   5.734   3.375  0.2219  0.4827 -1.7429
28958SOL     OW88547   7.893   0.472   2.562  0.1640  0.3301 -0.3362
28958SOL    HW188548   7.926   0.394   2.518 -0.2222  1.4754 -2.8108
28958SOL    HW288549   7.828   0.440   2.623  1.5429 -1.4394  0.2763
28959SOL     OW88550   5.696   8.947   7.440 -0.2783 -0.2269 -0.8808
28959SOL    HW188551   5.701   9.034   7.479  1.2339 -0.2139 -1.0634
28959SOL    HW288552   5.787   8.921   7.426 -0.7420 -1.0928 -2.5116
28960SOL     OW88553   2.183   0.200   3.824 -0.2917 -0.9222  0.2220
28960SOL    HW188554   2.256   0.160   3.778  1.5301  0.6491  1.5964
28960SOL    HW288555   2.167   0.143   3.899  1.5777  0.2359  1.5745
28961SOL     OW88556   3.863   0.097   6.227  0.0846  0.9628 -0.7060
28961SOL    HW188557   3.773   0.103   6.259  0.0483  0.0090 -0.6050
28961SOL    HW288558   3.917   0.124   6.301 -0.0910  0.8381 -0.5317
28962SOL     OW88559   8.292   6.725   7.574 -0.5050 -0.4953  0.2866
28962SOL    HW188560   8.368   6.705   7.628 -1.1091 -0.9378  0.9979
28962SOL    HW288561   8.294   6.659   7.504 -0.2077 -0.4697  0.2701
28963SOL     OW88562   6.914   4.833   0.343 -0.5933 -0.5407 -0.2089
28963SOL    HW188563   6.860   4.757   0.323 -0.8393 -0.1561 -1.0551
28963SOL    HW288564   7.001   4.811   0.309 -0.5012 -0.6956  0.1206
28964SOL     OW88565   8.731   7.763   8.663  0.5953  0.3772 -0.5883
28964SOL    HW188566   8.761   7.716   8.741 -1.2537  0.9055  0.5207
28964SOL    HW288567   8.733   7.698   8.593  1.0237 -0.4935  0.2059
28965SOL     OW88568   8.140   4.608   2.573  0.4646 -0.3282 -0.1872
28965SOL    HW188569   8.048   4.635   2.573  0.4026 -0.5277 -0.5023
28965SOL    HW288570   8.141   4.529   2.518  1.2899  1.2644 -2.6095
28966SOL     OW88571   7.664   1.716   8.334  0.3657  0.2713  0.4401
28966SOL    HW188572   7.749   1.677   8.354  0.8821 -0.0485 -2.0307
28966SOL    HW288573   7.638   1.675   8.251 -1.7412  1.1054  0.6308
28967SOL     OW88574   4.511   7.862   1.143 -0.2123 -0.0192 -0.0481
28967SOL    HW188575   4.597   7.865   1.101 -0.2759 -0.2697 -0.1960
28967SOL    HW288576   4.450   7.838   1.073 -0.5281  0.9996 -0.1392
28968SOL     OW88577   0.857   8.608   0.825 -0.2131 -0.2020  0.2665
28968SOL    HW188578   0.856   8.588   0.918 -2.1401 -0.5125  0.2008
28968SOL    HW288579   0.827   8.529   0.782  0.8541 -0.1357 -0.6720
28969SOL     OW88580   2.425   4.723   8.500 -0.2746 -0.3949  0.0119
28969SOL    HW188581   2.474   4.805   8.497  0.2402 -0.7193 -0.4252
28969SOL    HW288582   2.405   4.711   8.593  0.9896 -0.5653  0.2718
28970SOL     OW88583   6.967   7.573   4.468 -0.0199  0.1015 -0.2832
28970SOL    HW188584   6.962   7.648   4.409 -1.3605 -0.3192 -0.7586
28970SOL    HW288585   7.011   7.505   4.417  2.2264  0.8526  0.5313
28971SOL     OW88586   3.201   8.442   1.221  0.2612 -0.0572  0.2692
28971SOL    HW188587   3.166   8.434   1.310 -0.7909 -2.8970 -0.2954
28971SOL    HW288588   3.286   8.398   1.225 -0.5131 -1.7138 -0.4177
28972SOL     OW88589   2.375   5.180   0.946 -0.1663  0.0523  0.3394
28972SOL    HW188590   2.439   5.167   0.875  2.4149  2.0301  2.1519
28972SOL    HW288591   2.368   5.094   0.987  0.2746 -0.5193 -0.7392
28973SOL     OW88592   3.488   8.396   5.658 -0.3053  0.3748 -0.6130
28973SOL    HW188593   3.482   8.301   5.667  0.3027  0.4177  0.3279
28973SOL    HW288594   3.420   8.418   5.594  1.0908 -0.9366 -2.6616
28974SOL     OW88595   5.489   2.179   4.163  0.3253  0.9936 -0.0189
28974SOL    HW188596   5.454   2.268   4.163 -1.6769  0.4091  3.7680
28974SOL    HW288597   5.553   2.177   4.233 -0.8623 -0.8488  1.1197
28975SOL     OW88598   1.794   7.131   7.174 -0.2904  0.1943 -0.4378
28975SOL    HW188599   1.867   7.156   7.118 -0.5828 -0.0272 -0.9179
28975SOL    HW288600   1.785   7.204   7.235 -0.2473  0.6291 -0.9499
28976SOL     OW88601   4.063   1.920   2.605 -0.4285 -0.2570  0.0756
28976SOL    HW188602   4.068   1.926   2.509  0.3150 -0.0989  0.1171
28976SOL    HW288603   3.977   1.884   2.622 -0.1995 -1.2211 -0.6984
28977SOL     OW88604   7.853   9.472   9.305 -0.0345  0.4482 -0.4962
28977SOL    HW188605   7.811   9.548   9.265  1.2343  1.2905 -0.3103
28977SOL    HW288606   7.840   9.401   9.242 -1.9656  0.5775 -0.2890
28978SOL     OW88607   0.697   6.558   8.887 -0.4452  0.3611 -0.0252
28978SOL    HW188608   0.691   6.653   8.897  0.7432  0.6224 -1.3915
28978SOL    HW288609   0.722   6.546   8.795  2.4282 -1.1005  0.8210
28979SOL     OW88610   2.740   0.353   0.731  0.2825  0.0887 -0.2690
28979SOL    HW188611   2.823   0.372   0.689  0.4474  0.7323  0.3339
28979SOL    HW288612   2.734   0.257   0.730  1.9356 -0.0908  1.3668
28980SOL     OW88613   5.149   6.260   5.600 -0.2060  0.3605 -0.5805
28980SOL    HW188614   5.149   6.317   5.523 -0.1826  1.1513 -0.0076
28980SOL    HW288615   5.059   6.230   5.609 -0.9996  2.9386  0.9949
28981SOL     OW88616   8.897   3.015   3.393  0.1878 -0.1691  0.5840
28981SOL    HW188617   8.842   2.939   3.408 -0.0025 -0.2992 -0.6883
28981SOL    HW288618   8.984   2.988   3.422  0.2732 -1.1287 -0.4821
28982SOL     OW88619   7.949   0.367   2.169  0.1559  0.1362 -0.1949
28982SOL    HW188620   7.921   0.395   2.082 -1.0617 -1.1708 -0.2686
28982SOL    HW288621   7.907   0.430   2.228 -2.1744 -1.1253 -0.3828
28983SOL     OW88622   3.105   6.331   4.552  0.6571 -0.1922 -0.0068
28983SOL    HW188623   3.102   6.417   4.595  0.5211 -0.5068  0.6089
28983SOL    HW288624   3.033   6.333   4.490  1.6798  0.7857 -1.2338
28984SOL     OW88625   8.610   5.243   6.496 -0.3435 -0.6400 -0.0540
28984SOL    HW188626   8.659   5.314   6.454  0.3296 -1.6261 -0.9733
28984SOL    HW288627   8.538   5.224   6.436  0.5728 -1.9941 -0.7954
28985SOL     OW88628   9.633   6.060   1.480  0.1837  0.7791 -0.2204
28985SOL    HW188629   9.597   6.051   1.392  1.1704 -1.1678 -0.4602
28985SOL    HW288630   9.649   5.971   1.510  0.9921  1.4358  1.4781
28986SOL     OW88631   2.752   2.037   8.273  0.1337 -0.1807 -0.1721
28986SOL    HW188632   2.837   2.019   8.314  0.0751  0.4823  0.2556
28986SOL    HW288633   2.768   2.026   8.179  0.9770  0.9464 -0.1913
28987SOL     OW88634   4.300   8.341   1.191 -0.3109  0.2171  0.2255
28987SOL    HW188635   4.365   8.406   1.165 -0.7390  0.1082 -1.1505
28987SOL    HW288636   4.220   8.367   1.145 -0.4517 -1.3467 -0.4599
28988SOL     OW88637   4.347   3.187   3.219  0.2444  0.1596  0.2396
28988SOL    HW188638   4.258   3.220   3.202  0.4571 -0.1542 -1.8308
28988SOL    HW288639   4.397   3.215   3.142  2.2844  1.3902  1.8945
28989SOL     OW88640   8.648   7.379   0.083 -0.2318  0.1811  0.3295
28989SOL    HW188641   8.691   7.406   0.002  0.6128  1.3029  1.1259
28989SOL    HW288642   8.678   7.443   0.148  0.4896 -1.6810  1.9153
28990SOL     OW88643   4.437   8.994   4.445  0.0519 -0.0724 -0.1765
28990SOL    HW188644   4.436   9.030   4.356  2.1633  1.7632  0.4227
28990SOL    HW288645   4.506   8.928   4.444  1.3629  1.2326  0.4670
28991SOL     OW88646   7.532   2.135   2.341 -0.1613  0.0669 -0.0663
28991SOL    HW188647   7.519   2.194   2.266  0.5256  0.6425  0.2523
28991SOL    HW288648   7.533   2.193   2.417  2.1940 -0.1254  0.1119
28992SOL     OW88649   1.377   3.347   5.968  0.6145 -0.5682 -0.2244
28992SOL    HW188650   1.284   3.331   5.984  0.3435  0.7167 -0.3675
28992SOL    HW288651   1.419   3.330   6.052  0.1733 -0.6780 -0.0217
28993SOL     OW88652   3.237   4.686   4.039  0.0358 -0.0306  0.3004
28993SOL    HW188653   3.317   4.732   4.063 -0.7864  1.9989 -0.6216
28993SOL    HW288654   3.248   4.665   3.946 -0.1713 -0.5138  0.3782
28994SOL     OW88655   4.360   6.641   0.753 -0.2628  0.1985 -0.0589
28994SOL    HW188656   4.421   6.657   0.826  3.1267 -2.6087 -1.9478
28994SOL    HW288657   4.390   6.700   0.684 -0.6326 -0.2191 -0.5753
28995SOL     OW88658   2.387   5.187   5.918  0.0353  0.3464  0.2105
28995SOL    HW188659   2.452   5.228   5.975 -0.7006  0.5530  0.9132
28995SOL    HW288660   2.310   5.174   5.974 -0.6152  0.3308 -0.6693
28996SOL     OW88661   5.260   2.812   3.047  0.0957  0.0543 -0.4672
28996SOL    HW188662   5.217   2.892   3.076 -2.5464 -0.4903 -2.5524
28996SOL    HW288663   5.230   2.745   3.108  0.6548  0.2318  0.0210
28997SOL     OW88664   3.248   1.650   2.910  0.0833 -0.0286 -0.1844
28997SOL    HW188665   3.331   1.686   2.880  0.9706 -0.4403  1.6511
28997SOL    HW288666   3.269   1.562   2.942 -1.3427 -0.7304 -1.0420
28998SOL     OW88667   0.043   6.051   3.978 -0.0891 -0.0892  0.0010
28998SOL    HW188668   0.024   6.065   3.885 -0.5414  0.3190  0.1568
28998SOL    HW288669   0.139   6.052   3.983 -0.0691  0.1636 -0.4180
28999SOL     OW88670   4.284   3.393   8.611 -0.3973  0.0558 -0.5330
28999SOL    HW188671   4.318   3.471   8.656 -0.4720 -0.6539  0.8065
28999SOL    HW288672   4.319   3.400   8.522  0.2770  1.1899 -0.2092
29000SOL     OW88673   0.013   3.904   8.981 -0.0165 -0.3507 -0.0458
29000SOL    HW188674   0.049   3.960   8.912  1.3445 -0.6635  0.3866
29000SOL    HW288675  -0.082   3.909   8.969  0.1832 -0.2787 -1.8487
29001SOL     OW88676   5.888   3.041   5.638  0.6897  0.7629 -0.1452
29001SOL    HW188677   5.923   2.959   5.671  0.3661  0.2384 -1.0848
29001SOL    HW288678   5.939   3.109   5.683  1.3010  0.0468  0.2488
29002SOL     OW88679   0.297   9.360   5.274 -0.1914 -0.2387 -0.2404
29002SOL    HW188680   0.252   9.378   5.356  1.1745 -0.9578  0.7072
29002SOL    HW288681   0.342   9.441   5.252 -0.4099 -0.1031 -0.1859
29003SOL     OW88682   3.544   6.238   9.393  0.3755  0.2792  0.0598
29003SOL    HW188683   3.619   6.215   9.448  0.3830 -1.1035 -0.5105
29003SOL    HW288684   3.557   6.331   9.374  0.8583  0.5689  1.6339
29004SOL     OW88685   7.860   3.002   6.565  0.3005 -0.3941 -0.1661
29004SOL    HW188686   7.914   2.931   6.532  0.3237 -0.0889 -0.8027
29004SOL    HW288687   7.913   3.043   6.633  1.0025  0.0773 -0.9741
29005SOL     OW88688   4.156   3.229   2.777 -0.0317  0.4143  0.5817
29005SOL    HW188689   4.210   3.269   2.709 -0.5133  0.4234  0.1984
29005SOL    HW288690   4.077   3.284   2.780 -0.7578 -0.5640 -0.0363
29006SOL     OW88691   8.735   6.807   9.343  0.0925  0.5172 -0.0803
29006SOL    HW188692   8.675   6.733   9.342 -0.3300  0.8504 -0.2993
29006SOL    HW288693   8.812   6.776   9.390 -0.4652  0.2443  0.6692
29007SOL     OW88694   3.243   2.609   3.264  0.3528  0.5620  0.3080
29007SOL    HW188695   3.221   2.640   3.352  0.8297 -0.1256  0.6751
29007SOL    HW288696   3.265   2.517   3.275  0.3355  0.4451 -0.5503
29008SOL     OW88697   6.381   4.205   7.246  0.4588 -0.3634 -0.5298
29008SOL    HW188698   6.395   4.177   7.337  0.3243  0.5053 -0.2289
29008SOL    HW288699   6.460   4.255   7.224 -1.3705  3.3855  0.7138
29009SOL     OW88700   5.728   9.035   1.418  0.0768  0.6971 -0.2538
29009SOL    HW188701   5.765   9.118   1.388 -0.1861  0.7424 -0.4576
29009SOL    HW288702   5.719   8.982   1.338  0.1027  0.5265 -0.1458
29010SOL     OW88703   9.414   2.330   3.644  0.1500  0.5796 -0.5301
29010SOL    HW188704   9.491   2.283   3.676 -2.5437 -2.1107  2.7780
29010SOL    HW288705   9.372   2.268   3.583  0.9592  2.4401 -3.1620
29011SOL     OW88706   7.757   9.636   7.093 -0.1812 -0.4683 -0.1001
29011SOL    HW188707   7.795   9.574   7.155 -0.2062 -0.8069 -0.4154
29011SOL    HW288708   7.709   9.699   7.147 -0.8586 -1.2137  0.1867
29012SOL     OW88709   9.490   5.827   5.664 -0.0396 -0.4063 -0.0290
29012SOL    HW188710   9.416   5.772   5.638 -1.0811  0.2687  1.3180
29012SOL    HW288711   9.454   5.916   5.666  0.8542 -0.0405  0.5041
29013SOL     OW88712   8.635   4.241   2.765 -0.0997 -0.3511  0.5367
29013SOL    HW188713   8.601   4.192   2.690  2.9991 -1.0658 -0.5648
29013SOL    HW288714   8.593   4.326   2.759 -1.3453 -1.0168 -0.9121
29014SOL     OW88715   3.494   0.095   2.289 -0.6154  0.1549  0.2802
29014SOL    HW188716   3.501   0.162   2.357 -1.1060 -0.3070  0.7934
29014SOL    HW288717   3.557   0.028   2.315  0.1978  0.6091 -0.4710
29015SOL     OW88718   5.801   1.634   7.841 -0.1609  0.0240  0.4638
29015SOL    HW188719   5.878   1.688   7.860 -1.5909  2.5165 -0.3708
29015SOL    HW288720   5.765   1.613   7.927  0.8721 -0.3535  0.8256
29016SOL     OW88721   2.758   3.232   0.309 -0.3892 -0.1705 -0.3920
29016SOL    HW188722   2.754   3.278   0.392 -3.2692  0.1170 -0.5864
29016SOL    HW288723   2.790   3.145   0.331  1.9408  0.8256  0.4649
29017SOL     OW88724   8.644   6.274   3.224 -0.2403  0.0932 -0.3238
29017SOL    HW188725   8.721   6.217   3.218  0.6296  0.9116  2.0195
29017SOL    HW288726   8.664   6.347   3.165  0.0921 -0.4310 -0.8767
29018SOL     OW88727   1.335   3.848   2.775  0.0767  0.5754 -0.3111
29018SOL    HW188728   1.285   3.831   2.695  0.0974 -0.4371 -0.1283
29018SOL    HW288729   1.335   3.764   2.821 -0.5128  1.2923  1.0807
29019SOL     OW88730   3.213   5.775   2.130 -0.3776 -0.1266 -0.1007
29019SOL    HW188731   3.169   5.735   2.055 -0.3321 -0.1824 -0.0979
29019SOL    HW288732   3.256   5.853   2.095  0.0046 -0.3900 -0.2196
29020SOL     OW88733   2.621   3.960   1.866  0.0150 -0.5766  0.2417
29020SOL    HW188734   2.546   3.985   1.920  0.3210  0.7362  0.1036
29020SOL    HW288735   2.586   3.956   1.777  0.1251  0.1350  0.1643
29021SOL     OW88736   8.654   7.573   4.706  0.2488 -0.0383  0.1629
29021SOL    HW188737   8.620   7.641   4.764  0.3211  1.1065 -1.0995
29021SOL    HW288738   8.616   7.593   4.621  3.6162  1.0124 -1.2355
29022SOL     OW88739   6.818   1.539   8.345 -0.2088  0.2177 -0.7960
29022SOL    HW188740   6.871   1.608   8.305  0.5405  0.4448  0.5122
29022SOL    HW288741   6.849   1.536   8.436 -4.0309  2.0215  0.7971
29023SOL     OW88742   0.668   2.798   6.179 -0.0711  0.6874 -0.0704
29023SOL    HW188743   0.651   2.835   6.266  0.6784  1.1881 -0.1311
29023SOL    HW288744   0.742   2.847   6.146 -0.7098  0.8863 -1.2469
29024SOL     OW88745   6.719   0.022   0.677 -0.3882  0.0347  0.2760
29024SOL    HW188746   6.807   0.045   0.707 -0.5507  1.1984 -0.0984
29024SOL    HW288747   6.666   0.099   0.695 -1.8657 -1.3392  2.4257
29025SOL     OW88748   5.372   5.334   7.543 -0.5247  0.2333 -0.1721
29025SOL    HW188749   5.337   5.263   7.490 -1.3926  0.7382 -0.2932
29025SOL    HW288750   5.322   5.411   7.516  0.6000  0.9585 -0.2526
29026SOL     OW88751   4.654   3.043   8.578  0.2166 -0.0233 -0.1380
29026SOL    HW188752   4.587   3.042   8.509 -0.4220 -0.6777  0.4724
29026SOL    HW288753   4.610   3.085   8.653  0.0291 -1.6223  0.6931
29027SOL     OW88754   5.733   0.523   9.586 -0.3032  0.2987  0.0645
29027SOL    HW188755   5.718   0.588   9.518  0.6268  1.5837  1.0585
29027SOL    HW288756   5.647   0.483   9.600 -0.5340  0.0593 -1.7749
29028SOL     OW88757   6.616   5.350   0.772  0.1252  0.2584 -0.1339
29028SOL    HW188758   6.552   5.314   0.711  1.3256 -1.6843 -0.3429
29028SOL    HW288759   6.579   5.434   0.800 -0.1670  1.6435 -4.0419
29029SOL     OW88760   0.487   3.166   6.969 -0.7719 -0.1073 -0.3917
29029SOL    HW188761   0.570   3.197   7.004 -1.1087 -0.2908  0.6302
29029SOL    HW288762   0.422   3.227   7.004 -0.9612  0.7591 -2.1695
29030SOL     OW88763   8.532   1.974   5.036 -0.1022  0.2534 -0.1746
29030SOL    HW188764   8.607   1.942   5.085 -0.4278  0.1562  0.2680
29030SOL    HW288765   8.515   2.062   5.072 -1.2296 -0.3742  0.9249
29031SOL     OW88766   9.577   0.447   4.358 -0.1542 -0.3248  0.0242
29031SOL    HW188767   9.552   0.504   4.431  0.2455 -0.0911 -0.0177
29031SOL    HW288768   9.569   0.502   4.280 -1.3051 -0.7894 -0.2035
29032SOL     OW88769   3.560   3.422   2.508 -0.4345  0.2933  0.1390
29032SOL    HW188770   3.526   3.345   2.462 -1.2680  2.2991 -2.9027
29032SOL    HW288771   3.639   3.446   2.460  0.1759  0.9787  1.4490
29033SOL     OW88772   2.802   3.822   2.334 -0.4065 -0.1205  0.2628
29033SOL    HW188773   2.878   3.817   2.392 -0.4851  0.7637  0.4506
29033SOL    HW288774   2.815   3.750   2.272  1.2699  0.8036 -0.5282
29034SOL     OW88775   9.142   9.368   8.906 -0.5184  0.1552  0.5133
29034SOL    HW188776   9.073   9.385   8.971 -0.3287 -0.7548  0.9759
29034SOL    HW288777   9.157   9.452   8.864 -2.9781  0.0947 -0.6636
29035SOL     OW88778   1.989   3.140   0.396  0.2235  0.2740 -0.6565
29035SOL    HW188779   2.019   3.206   0.334 -2.1330  1.6862 -0.4344
29035SOL    HW288780   1.984   3.059   0.344  2.5310  0.3401 -1.0920
29036SOL     OW88781   0.653   7.929   6.772  0.1220  0.4398  0.1182
29036SOL    HW188782   0.726   7.950   6.831  0.9927 -0.0733 -0.7380
29036SOL    HW288783   0.661   7.992   6.701  1.3240 -1.1831 -1.2723
29037SOL     OW88784   0.663   0.453   1.539 -0.2558  0.5637 -0.3994
29037SOL    HW188785   0.723   0.405   1.596 -0.0729  0.0251 -1.0270
29037SOL    HW288786   0.592   0.392   1.522 -0.0196  0.5028 -1.2105
29038SOL     OW88787   5.875   3.885   8.811  0.2228 -0.3505 -0.4480
29038SOL    HW188788   5.796   3.844   8.777 -0.6236  1.6744 -1.0645
29038SOL    HW288789   5.851   3.977   8.823  1.6300 -0.2423  2.1092
29039SOL     OW88790   4.180   2.591   0.660 -0.1581 -0.0170  0.1614
29039SOL    HW188791   4.113   2.631   0.604 -1.5951 -0.9825  1.1426
29039SOL    HW288792   4.183   2.500   0.632  1.6404  0.2501 -0.6716
29040SOL     OW88793   1.915   3.387   8.410  0.6062  1.0027  0.1948
29040SOL    HW188794   1.825   3.366   8.434  0.4347  0.9973 -0.4435
29040SOL    HW288795   1.950   3.306   8.372  1.0103  0.8849  0.8052
29041SOL     OW88796   3.015   5.999   8.210 -0.6615 -0.0701 -0.2795
29041SOL    HW188797   3.038   5.962   8.295 -0.6999  0.3873 -0.0700
29041SOL    HW288798   2.996   6.091   8.228 -0.1588  0.1506 -0.8645
29042SOL     OW88799   3.824   0.529   2.188 -0.2670  0.4324 -0.7766
29042SOL    HW188800   3.791   0.596   2.129 -1.9519 -0.0102 -0.3965
29042SOL    HW288801   3.766   0.454   2.176  1.8732 -1.2361 -1.5861
29043SOL     OW88802   0.640   7.652   7.348  0.3485 -0.1217 -0.4126
29043SOL    HW188803   0.685   7.719   7.297  0.7917 -0.8754 -1.0225
29043SOL    HW288804   0.710   7.597   7.384 -0.0483 -2.1592 -2.5296
29044SOL     OW88805   2.233   6.863   7.700 -0.0539 -0.4127 -0.2802
29044SOL    HW188806   2.325   6.889   7.699 -0.1426  0.0537  1.2832
29044SOL    HW288807   2.228   6.789   7.638  1.8182 -1.8366  1.1469
29045SOL     OW88808   3.385   2.522   3.014  0.0062 -0.1364  0.2541
29045SOL    HW188809   3.342   2.570   2.942 -0.9417 -1.6129 -0.2081
29045SOL    HW288810   3.314   2.504   3.076  0.2266 -1.3487  0.1779
29046SOL     OW88811   4.958   6.726   2.574  0.1297  0.4386 -0.2594
29046SOL    HW188812   4.968   6.631   2.567 -1.4936  0.2460 -0.3098
29046SOL    HW288813   5.024   6.752   2.639  0.4231 -0.7460 -0.0559
29047SOL     OW88814   5.543   1.109   0.748  0.3433 -0.7569  0.2033
29047SOL    HW188815   5.611   1.110   0.681  0.6534 -1.7784  0.4855
29047SOL    HW288816   5.461   1.118   0.699  0.6539  0.3951 -0.1425
29048SOL     OW88817   1.990   9.472   3.568  0.3520 -0.0146  0.0333
29048SOL    HW188818   2.004   9.387   3.610  0.2864 -1.1910 -2.1779
29048SOL    HW288819   1.927   9.454   3.497  0.9869  1.6906 -1.0228
29049SOL     OW88820   5.191   8.697   1.889 -0.3195  0.0344 -0.0180
29049SOL    HW188821   5.284   8.681   1.869 -0.3491 -0.3966  0.1819
29049SOL    HW288822   5.148   8.696   1.803  0.0958  1.9211 -0.2905
29050SOL     OW88823   2.658   6.628   3.201 -0.5418  0.3332 -0.1519
29050SOL    HW188824   2.626   6.676   3.124  1.0236  2.1335  0.2284
29050SOL    HW288825   2.697   6.696   3.256  1.7570 -1.3637  0.4642
29051SOL     OW88826   0.349   8.232   8.063  0.2001 -0.4274 -0.4727
29051SOL    HW188827   0.377   8.242   8.154  1.1435 -1.4267 -0.6303
29051SOL    HW288828   0.268   8.182   8.069 -0.5539  0.8034 -0.1130
29052SOL     OW88829   8.278   1.813   9.315  0.3378 -0.0580 -0.5068
29052SOL    HW188830   8.213   1.883   9.324  2.0346  1.6766 -1.1368
29052SOL    HW288831   8.319   1.809   9.401  0.7684  0.2837 -0.6931
29053SOL     OW88832   2.303   7.637   1.638  0.1044 -0.0292  0.0228
29053SOL    HW188833   2.334   7.724   1.613  1.5269 -0.7742 -0.9087
29053SOL    HW288834   2.351   7.617   1.718  0.0781 -0.1199  0.0150
29054SOL     OW88835   0.942   7.147   3.040 -0.0830 -0.0838  0.2530
29054SOL    HW188836   0.890   7.074   3.072  0.1277 -0.7260 -0.8188
29054SOL    HW288837   0.898   7.225   3.075 -0.6285 -0.6927  0.9548
29055SOL     OW88838   8.052   8.481   5.321  0.5297  0.2615  0.1755
29055SOL    HW188839   8.121   8.494   5.257  0.9651  0.6178  0.7018
29055SOL    HW288840   8.034   8.387   5.319 -0.5125  0.4547 -1.5157
29056SOL     OW88841   1.818   1.265   1.790  0.1905  0.1173  0.0501
29056SOL    HW188842   1.763   1.329   1.835 -0.6941  0.0027 -0.8203
29056SOL    HW288843   1.811   1.186   1.843 -1.8501 -0.3936 -0.8855
29057SOL     OW88844   3.609   6.419   5.023  0.2837  0.3015  0.0342
29057SOL    HW188845   3.548   6.362   5.070  1.1251  0.3541  1.2332
29057SOL    HW288846   3.569   6.506   5.029 -0.1427  0.1277 -0.2776
29058SOL     OW88847   1.968   1.115   1.604  0.2681  0.2196 -0.0266
29058SOL    HW188848   1.935   1.152   1.686  1.9284 -2.8688  2.2330
29058SOL    HW288849   2.036   1.177   1.576 -0.0549  1.1321  1.1124
29059SOL     OW88850   9.298   7.498   6.374 -0.3930  0.0170  0.8272
29059SOL    HW188851   9.258   7.415   6.348 -1.8271  0.9573 -0.1205
29059SOL    HW288852   9.304   7.493   6.469 -0.7088 -1.0696  0.8060
29060SOL     OW88853   0.917   2.152   1.964 -0.0995  0.0890  0.6401
29060SOL    HW188854   0.880   2.209   1.897 -0.4748  0.5905  1.2566
29060SOL    HW288855   0.843   2.131   2.021  0.0330 -1.0470  0.4090
29061SOL     OW88856   3.605   8.567   3.804 -0.3957 -0.4734  1.1020
29061SOL    HW188857   3.650   8.632   3.859  0.0729  0.5011 -0.3809
29061SOL    HW288858   3.567   8.619   3.733  0.1010 -1.8432 -0.2012
29062SOL     OW88859   8.668   4.842   0.802 -0.7028  0.3770  1.0093
29062SOL    HW188860   8.618   4.880   0.730  1.0368 -1.9771 -1.6809
29062SOL    HW288861   8.619   4.764   0.828 -0.0085 -0.2663  0.4477
29063SOL     OW88862   4.227   6.023   0.847  0.3972  0.4373 -0.5062
29063SOL    HW188863   4.256   5.931   0.846  2.0599  0.9012  0.3244
29063SOL    HW288864   4.132   6.018   0.843  0.4007 -1.3680  0.3735
29064SOL     OW88865   8.717   5.063   0.056 -0.5311  0.3915  0.5157
29064SOL    HW188866   8.678   4.981   0.025  0.9178 -0.2462  0.3259
29064SOL    HW288867   8.659   5.131   0.021 -0.8756 -0.4729 -0.6602
29065SOL     OW88868   5.345   5.283   0.299  0.4678 -0.4384 -0.7040
29065SOL    HW188869   5.260   5.252   0.331  0.6557 -0.5545 -0.3022
29065SOL    HW288870   5.328   5.369   0.262  0.5078  0.4745  1.2428
29066SOL     OW88871   8.689   3.099   3.783  0.5940 -0.3694 -0.3607
29066SOL    HW188872   8.717   3.042   3.712  0.6790 -3.2688  1.8272
29066SOL    HW288873   8.597   3.079   3.796  0.7649 -0.4728  0.8176
29067SOL     OW88874   9.183   5.726   3.207  0.5915 -0.1147 -0.4703
29067SOL    HW188875   9.108   5.719   3.147 -0.3818 -0.7413  0.7681
29067SOL    HW288876   9.181   5.818   3.235  1.0339  0.1762 -1.3441
29068SOL     OW88877   3.539   2.726   3.934 -0.4469  0.0773  0.3576
29068SOL    HW188878   3.480   2.696   4.004 -0.3554 -1.0939 -0.0505
29068SOL    HW288879   3.483   2.782   3.879 -1.2847 -1.2184 -0.1680
29069SOL     OW88880   4.773   7.843   1.243  0.3096  0.1657  0.6377
29069SOL    HW188881   4.766   7.933   1.209 -0.1137  0.0636  0.4433
29069SOL    HW288882   4.756   7.788   1.167 -0.8673 -0.0674  1.0559
29070SOL     OW88883   5.164   8.324   1.750  0.4913 -0.2224  0.0741
29070SOL    HW188884   5.229   8.350   1.815  0.7747 -0.5207 -0.0900
29070SOL    HW288885   5.112   8.256   1.793  0.2084  0.0998  0.2474
29071SOL     OW88886   4.860   8.249   2.900  0.8228 -0.0646 -0.2984
29071SOL    HW188887   4.939   8.300   2.883  1.0583  0.0911  1.1517
29071SOL    HW288888   4.819   8.292   2.974 -0.7841  0.0126 -1.1994
29072SOL     OW88889   1.144   0.378   1.829  0.4306 -0.2261 -0.0799
29072SOL    HW188890   1.172   0.379   1.738 -0.2907  1.4292 -0.3236
29072SOL    HW288891   1.106   0.291   1.842  1.5939 -0.8947 -1.0015
29073SOL     OW88892   5.702   1.541   5.410  0.2687  0.3163  0.7501
29073SOL    HW188893   5.606   1.536   5.417  0.1823  0.1192 -0.3139
29073SOL    HW288894   5.721   1.634   5.412 -0.0924  0.4342 -0.4734
29074SOL     OW88895   6.513   9.241   5.521 -0.2352 -0.3830  0.5511
29074SOL    HW188896   6.454   9.166   5.519  1.4793 -1.7917  0.2495
29074SOL    HW288897   6.458   9.315   5.547 -2.2646 -1.4503 -0.5211
29075SOL     OW88898   2.382   8.056   9.512 -0.2744  0.2975 -0.0574
29075SOL    HW188899   2.466   8.071   9.470 -0.7069 -0.5541 -1.2563
29075SOL    HW288900   2.372   8.131   9.571  0.8789  0.8996 -0.5852
29076SOL     OW88901   5.006   8.861   0.707  0.3028 -0.4287  0.1685
29076SOL    HW188902   4.989   8.867   0.801 -1.2292  0.2872 -0.1327
29076SOL    HW288903   5.101   8.845   0.701  0.0866 -2.8871  1.8925
29077SOL     OW88904   8.031   4.698   0.903  0.0835 -1.1660  0.0769
29077SOL    HW188905   8.104   4.754   0.929 -0.8157 -0.3560  0.9098
29077SOL    HW288906   8.037   4.622   0.961 -0.0556 -0.8322  0.5365
29078SOL     OW88907   2.621   5.101   6.374  0.0137  0.4284  0.0644
29078SOL    HW188908   2.557   5.035   6.347  0.6645 -0.4097  0.5203
29078SOL    HW288909   2.572   5.183   6.376 -0.7015  0.0447 -0.9535
29079SOL     OW88910   2.257   9.369   1.206  0.1326  0.1154 -0.0980
29079SOL    HW188911   2.186   9.429   1.181  0.0987 -0.3925 -1.3218
29079SOL    HW288912   2.227   9.283   1.176 -0.6180 -0.8950  3.1959
29080SOL     OW88913   7.393   4.248   5.008 -0.3343  0.0129  0.5356
29080SOL    HW188914   7.306   4.223   4.975 -0.0283  0.4026 -0.6228
29080SOL    HW288915   7.438   4.165   5.021 -0.1979 -0.1656 -0.8495
29081SOL     OW88916   4.116   6.678   2.337  0.0757  0.3167 -0.1509
29081SOL    HW188917   4.102   6.768   2.366 -0.8808  0.6450 -1.5086
29081SOL    HW288918   4.182   6.685   2.269 -0.9977  0.2118 -1.2382
29082SOL     OW88919   1.596   9.484   9.412  0.1340  0.7754 -0.1588
29082SOL    HW188920   1.501   9.490   9.426  0.2822  1.0172  0.8367
29082SOL    HW288921   1.611   9.392   9.390 -0.3518  0.7830 -0.5523
29083SOL     OW88922   8.749   5.829   3.745  0.7610  0.5163 -0.3606
29083SOL    HW188923   8.834   5.804   3.710  0.1237 -0.6881 -1.1367
29083SOL    HW288924   8.767   5.859   3.834  1.9842  0.2074 -0.4916
29084SOL     OW88925   0.137   8.265   4.786 -0.4386 -0.2442  0.2494
29084SOL    HW188926   0.106   8.316   4.861 -0.1423  0.5139 -0.1378
29084SOL    HW288927   0.199   8.322   4.742 -0.8795 -0.5381 -0.7824
29085SOL     OW88928   5.576   7.830   0.252 -0.6407  0.0384 -0.6403
29085SOL    HW188929   5.561   7.736   0.237  2.7880 -0.8487  0.5033
29085SOL    HW288930   5.583   7.868   0.165  0.1133 -1.2307 -1.1577
29086SOL     OW88931   6.610   7.770   0.987  0.0897  0.4771 -0.6241
29086SOL    HW188932   6.577   7.752   1.076  1.8745 -1.4716 -0.2857
29086SOL    HW288933   6.692   7.818   1.001  1.5361 -1.7374 -1.0543
29087SOL     OW88934   3.372   9.599   1.989 -0.0992 -0.0955 -0.7506
29087SOL    HW188935   3.351   9.540   2.063 -2.7978  0.6077 -0.8407
29087SOL    HW288936   3.360   9.687   2.025  0.6463  0.3114 -1.4845
29088SOL     OW88937   3.609   9.435   0.289 -0.0905  0.0907  0.5439
29088SOL    HW188938   3.527   9.482   0.274 -0.4074 -0.6672 -0.1861
29088SOL    HW288939   3.615   9.425   0.384  1.0353  3.4303  0.9621
29089SOL     OW88940   0.737   7.428   7.540  0.0038  0.5134 -0.3576
29089SOL    HW188941   0.664   7.389   7.588  0.7804 -0.6219 -0.0705
29089SOL    HW288942   0.815   7.395   7.584  0.7043  1.3590 -0.9363
29090SOL     OW88943   4.582   0.736   0.592  0.2389 -0.3131  0.2002
29090SOL    HW188944   4.605   0.699   0.677  2.0036  0.1096 -0.0361
29090SOL    HW288945   4.629   0.820   0.589 -1.1054  0.4492 -0.5428
29091SOL     OW88946   7.276   1.034   3.329  0.0513  0.0100  0.8277
29091SOL    HW188947   7.351   1.077   3.288 -1.7704 -1.0835 -4.3897
29091SOL    HW288948   7.242   1.098   3.391  2.9394  2.0803  0.4658
29092SOL     OW88949   1.180   3.714   9.073 -0.1506 -0.2558 -0.5256
29092SOL    HW188950   1.213   3.627   9.052 -1.7205 -1.0043 -0.0687
29092SOL    HW288951   1.155   3.751   8.989  0.5773 -0.2104 -0.7286
29093SOL     OW88952   9.401   8.529   5.684 -0.6111 -0.3613 -0.5126
29093SOL    HW188953   9.401   8.442   5.724 -0.1949  0.0024  0.2882
29093SOL    HW288954   9.442   8.515   5.598  2.3173 -0.4592  0.7879
29094SOL     OW88955   9.014   8.138   4.576 -0.1110 -0.2410 -0.3047
29094SOL    HW188956   8.933   8.128   4.626  0.6300 -1.4094  0.7113
29094SOL    HW288957   8.992   8.108   4.488 -0.6516 -1.0167  0.0910
29095SOL     OW88958   0.816   8.125   9.073  0.6275 -0.0798 -0.1434
29095SOL    HW188959   0.772   8.189   9.018  3.0481  1.5971 -0.3116
29095SOL    HW288960   0.818   8.045   9.021  0.3349  0.6406 -1.2916
29096SOL     OW88961   2.867   0.283   5.187  0.1414  0.4549 -0.0531
29096SOL    HW188962   2.909   0.355   5.234  0.4218  1.4182 -1.7184
29096SOL    HW288963   2.851   0.217   5.255  1.6883  1.2513  1.1650
29097SOL     OW88964   2.112   7.911   1.272  0.1053  0.1806  1.0580
29097SOL    HW188965   2.030   7.926   1.319 -1.2152  0.8632 -1.2815
29097SOL    HW288966   2.140   7.824   1.300 -0.7024  0.4701  2.9035
29098SOL     OW88967   2.041   7.295   6.302  0.2053  0.1370 -0.1139
29098SOL    HW188968   2.040   7.200   6.294 -0.3014  0.2750 -3.9038
29098SOL    HW288969   1.954   7.317   6.335 -0.2619 -0.6798 -0.7631
29099SOL     OW88970   7.679   1.830   9.411  0.1178  0.7083 -0.4261
29099SOL    HW188971   7.608   1.835   9.475 -0.3472  0.2902 -0.8977
29099SOL    HW288972   7.724   1.748   9.432  0.9702  1.3632  0.3825
29100SOL     OW88973   6.153   7.801   9.146  0.1603  0.1171  0.2393
29100SOL    HW188974   6.152   7.758   9.231  0.6309  1.9005  1.2050
29100SOL    HW288975   6.191   7.736   9.087  1.5608 -0.5539  1.7651
29101SOL     OW88976   1.666   1.815   6.086  0.2031 -0.3033 -0.2059
29101SOL    HW188977   1.678   1.799   6.180  0.7317 -2.2872 -0.5687
29101SOL    HW288978   1.631   1.733   6.052 -0.0442  0.4075 -1.7459
29102SOL     OW88979   8.093   2.918   2.537 -0.0244  0.0876  0.0147
29102SOL    HW188980   8.186   2.928   2.519 -0.0026  0.0523  0.1062
29102SOL    HW288981   8.085   2.830   2.575 -0.0985  0.0798 -0.0179
29103SOL     OW88982   2.553   9.560   7.717 -0.1288  0.1322 -0.4708
29103SOL    HW188983   2.568   9.485   7.658  1.5070  1.0440 -1.2748
29103SOL    HW288984   2.603   9.540   7.795  2.0460  1.2464 -1.4906
29104SOL     OW88985   0.054   5.688   1.410  0.2625 -0.0048 -0.0567
29104SOL    HW188986   0.014   5.641   1.337  0.9523  2.2054 -1.9881
29104SOL    HW288987  -0.005   5.761   1.427  1.2443  0.7770  0.0621
29105SOL     OW88988   4.863   4.458   0.033  0.1686  0.8002  0.5672
29105SOL    HW188989   4.874   4.492  -0.055  0.3145 -1.2856 -0.2789
29105SOL    HW288990   4.947   4.474   0.076  1.2327 -0.8874 -0.7269
29106SOL     OW88991   8.919   0.696   5.931 -0.9306 -0.4630  0.0255
29106SOL    HW188992   8.987   0.723   5.869 -2.7247 -0.2788 -2.0080
29106SOL    HW288993   8.949   0.729   6.016  1.6812 -0.7859 -0.6810
29107SOL     OW88994   4.777   2.748   5.074  0.3081  0.1871  0.2535
29107SOL    HW188995   4.792   2.815   5.141 -0.9219  2.0626 -1.2466
29107SOL    HW288996   4.685   2.724   5.084  0.4519 -0.4746  0.0350
29108SOL     OW88997   2.612   5.192   6.821  0.3046 -0.2852  0.1214
29108SOL    HW188998   2.651   5.277   6.802  0.5130  0.0335  1.8788
29108SOL    HW288999   2.644   5.169   6.908  1.9301 -3.1243 -1.0651
29109SOL     OW89000   8.394   9.471   5.545  0.1008  0.0036 -0.0857
29109SOL    HW189001   8.363   9.432   5.463 -0.7093 -0.0012  0.2129
29109SOL    HW289002   8.426   9.397   5.596  1.1836  0.0730 -0.6245
29110SOL     OW89003   7.220   9.336   9.265 -0.0086  0.0394  0.5507
29110SOL    HW189004   7.149   9.296   9.215  0.0574 -1.1729  1.3984
29110SOL    HW289005   7.182   9.352   9.351 -0.4887  3.1935 -0.1306
29111SOL     OW89006   3.395   4.633   7.416  0.1173  0.7849 -0.6301
29111SOL    HW189007   3.378   4.570   7.486  0.9975  2.0191  0.7374
29111SOL    HW289008   3.479   4.607   7.379  0.4210  1.0793 -0.1488
29112SOL     OW89009   3.892   5.543   7.476  0.0948  0.1438  0.2217
29112SOL    HW189010   3.919   5.533   7.568  0.4660 -0.8997  0.0144
29112SOL    HW289011   3.973   5.561   7.429 -0.0155  0.1208  0.0234
29113SOL     OW89012   0.675   3.101   1.230  0.8038  0.0252  0.0424
29113SOL    HW189013   0.648   3.064   1.314  0.6212 -1.4431 -0.6234
29113SOL    HW289014   0.731   3.175   1.253  0.4553 -0.1122  1.4455
29114SOL     OW89015   6.448   2.476   9.356  1.0158 -0.0327  0.1699
29114SOL    HW189016   6.367   2.439   9.391  0.9448 -0.5312 -0.5082
29114SOL    HW289017   6.424   2.508   9.269  1.4873  0.0591  0.0704
29115SOL     OW89018   4.403   5.894   7.088 -0.1806  0.2359  0.2519
29115SOL    HW189019   4.327   5.942   7.057 -0.1427  1.1307  1.5031
29115SOL    HW289020   4.478   5.945   7.057 -0.1117  0.1561  0.2853
29116SOL     OW89021   3.707   2.908   5.461 -0.3299 -0.5549 -0.0263
29116SOL    HW189022   3.723   3.002   5.455  1.4006 -0.6878  1.4640
29116SOL    HW289023   3.638   2.899   5.526 -0.7273 -0.3030 -0.4116
29117SOL     OW89024   4.838   1.550   1.828 -0.2033  0.0956 -0.1087
29117SOL    HW189025   4.884   1.583   1.751 -0.6907 -1.6407 -1.2135
29117SOL    HW289026   4.897   1.485   1.865 -0.8643 -0.6622 -0.3398
29118SOL     OW89027   2.650   4.502   2.310 -0.5491 -0.1180 -0.1904
29118SOL    HW189028   2.674   4.548   2.230 -1.4109 -0.4907 -0.6756
29118SOL    HW289029   2.673   4.562   2.380  0.1060  0.2648 -0.7138
29119SOL     OW89030   6.843   3.858   1.382 -0.3852  0.6283  0.2381
29119SOL    HW189031   6.851   3.953   1.386  0.2016  0.5845  0.2686
29119SOL    HW289032   6.758   3.839   1.422 -0.1869  1.0879  0.9070
29120SOL     OW89033   8.564   5.918   0.375 -0.3740  0.3104 -0.2838
29120SOL    HW189034   8.632   5.889   0.315 -0.8070 -1.1584 -0.0957
29120SOL    HW289035   8.484   5.874   0.345 -0.8962  0.7069  0.4847
29121SOL     OW89036   9.032   5.700   0.647 -0.1212  0.4313 -0.0342
29121SOL    HW189037   9.078   5.768   0.597 -0.3435  0.8497  0.3273
29121SOL    HW289038   8.948   5.691   0.604 -0.3986  0.9475  0.3849
29122SOL     OW89039   1.450   4.401   4.443 -0.1020 -0.2947 -0.3355
29122SOL    HW189040   1.390   4.455   4.393 -0.6998 -0.3620  0.2857
29122SOL    HW289041   1.471   4.327   4.385 -0.0254  0.1133 -0.8316
29123SOL     OW89042   5.105   9.043   1.711 -0.0497 -0.5420 -0.0140
29123SOL    HW189043   5.090   9.049   1.805  0.3676  0.2800  0.0024
29123SOL    HW289044   5.094   8.949   1.691 -0.6270 -0.6446  0.7580
29124SOL     OW89045   0.868   6.026   3.363 -0.5673  0.1520 -0.4630
29124SOL    HW189046   0.903   6.039   3.274 -0.5909  1.8960 -0.2349
29124SOL    HW289047   0.784   5.982   3.349 -0.7223  0.7039 -1.3231
29125SOL     OW89048   8.573   0.239   9.532 -0.2608 -0.4264  0.4567
29125SOL    HW189049   8.531   0.219   9.448  0.2599 -1.8435  0.4930
29125SOL    HW289050   8.507   0.289   9.580  0.0213  1.8578 -1.3676
29126SOL     OW89051   4.320   9.048   7.340 -0.3138 -0.5814  0.1287
29126SOL    HW189052   4.253   8.990   7.304 -0.4664  0.2285 -0.9665
29126SOL    HW289053   4.340   9.012   7.426  0.9735 -3.3288 -1.2345
29127SOL     OW89054   1.073   4.877   7.158  0.3866  0.2660 -0.3968
29127SOL    HW189055   1.047   4.833   7.077 -0.3826 -2.2610  1.1437
29127SOL    HW289056   1.169   4.872   7.158  0.4840  1.3952 -1.6725
29128SOL     OW89057   3.996   9.003   3.783  0.5210 -0.3061  0.3860
29128SOL    HW189058   4.008   8.914   3.815  1.5658 -0.1156  0.5381
29128SOL    HW289059   3.921   9.036   3.832  0.9803 -0.6386  1.3297
29129SOL     OW89060   9.163   7.151   0.489 -0.4352 -0.3127  0.1959
29129SOL    HW189061   9.234   7.138   0.426 -0.2225  2.2873 -0.2210
29129SOL    HW289062   9.206   7.185   0.567 -1.2006  2.5330 -0.4919
29130SOL     OW89063   2.941   4.300   3.927 -0.7343  0.1320 -0.0153
29130SOL    HW189064   2.867   4.344   3.970  0.8048  2.6237  0.2609
29130SOL    HW289065   3.002   4.371   3.906  1.4668 -1.7960 -0.4851
29131SOL     OW89066   2.938   5.142   0.896 -0.0463 -0.0936 -0.4042
29131SOL    HW189067   2.923   5.184   0.811  1.4804  1.2983 -0.0344
29131SOL    HW289068   2.898   5.202   0.959 -0.6664 -0.8349 -0.0828
29132SOL     OW89069   1.854   8.066   6.122  0.5304  0.6543  0.3368
29132SOL    HW189070   1.875   8.142   6.069  0.7849 -1.0246 -2.1476
29132SOL    HW289071   1.918   8.068   6.194  1.0028  2.3402 -0.0950
29133SOL     OW89072   9.193   2.613   2.632 -0.1699  0.2285  0.0925
29133SOL    HW189073   9.146   2.613   2.548  0.2362 -1.0568 -0.1627
29133SOL    HW289074   9.277   2.655   2.613 -0.9270  1.9626  0.4022
29134SOL     OW89075   6.968   7.244   6.667 -0.5436 -0.3946 -0.0926
29134SOL    HW189076   6.909   7.190   6.615 -0.5475 -0.3692 -0.1147
29134SOL    HW289077   7.052   7.239   6.620 -0.6191 -0.1452 -0.2577
29135SOL     OW89078   0.871   4.922   4.755 -0.3351  0.0626 -0.1619
29135SOL    HW189079   0.888   4.854   4.820 -1.0456 -0.4049 -0.4535
29135SOL    HW289080   0.947   4.980   4.761  0.8261 -1.3443 -0.6328
29136SOL     OW89081   5.945   4.017   2.434 -0.7593 -0.0813 -0.0825
29136SOL    HW189082   5.920   3.927   2.457 -0.3551  0.0398  0.8805
29136SOL    HW289083   6.002   4.007   2.357 -3.1357 -0.4012 -1.9294
29137SOL     OW89084   8.329   0.011   2.917 -0.0391  0.2427  0.3981
29137SOL    HW189085   8.301  -0.074   2.951 -0.6728  1.0492  2.0345
29137SOL    HW289086   8.419   0.022   2.951 -0.2067  0.4982  0.7732
29138SOL     OW89087   7.364   1.442   8.771  0.0328 -0.3435 -0.3214
29138SOL    HW189088   7.399   1.461   8.858 -2.5931  1.5404  0.4670
29138SOL    HW289089   7.430   1.474   8.710  1.2680 -0.3348  0.9830
29139SOL     OW89090   6.267   3.994   2.059 -0.2772  0.6429 -0.6063
29139SOL    HW189091   6.216   4.071   2.035 -0.2499  0.5021 -1.1095
29139SOL    HW289092   6.240   3.926   1.998 -0.6952  0.0875  0.1786
29140SOL     OW89093   9.194   9.388   8.250 -0.1461 -0.1002 -0.0861
29140SOL    HW189094   9.238   9.364   8.332 -0.9499  0.0023  0.3886
29140SOL    HW289095   9.106   9.415   8.277 -0.5914 -0.5432 -1.0297
29141SOL     OW89096   1.851   4.022   5.501  0.5936  0.1597  0.2409
29141SOL    HW189097   1.837   3.962   5.428 -0.5086  2.2499 -1.4105
29141SOL    HW289098   1.856   3.966   5.579 -1.7998 -1.9666 -0.9820
29142SOL     OW89099   5.794   2.819   4.365 -0.1997 -0.2847  0.0663
29142SOL    HW189100   5.781   2.910   4.391  1.0367 -0.3005  0.8309
29142SOL    HW289101   5.883   2.817   4.330  0.3376 -1.4662  1.4141
29143SOL     OW89102   6.801   7.794   2.392  0.2558 -0.2086  0.0718
29143SOL    HW189103   6.761   7.749   2.466 -1.7836  0.9001 -0.2478
29143SOL    HW289104   6.760   7.881   2.393  0.5497  0.0059 -2.0235
29144SOL     OW89105   1.280   9.088   2.283 -0.4607  0.1675  0.2337
29144SOL    HW189106   1.316   9.016   2.334 -0.0214 -0.0396 -0.3581
29144SOL    HW289107   1.193   9.103   2.320 -0.5137 -0.5983  0.4241
29145SOL     OW89108   8.999   1.011   4.489  0.0922  0.3563 -0.0533
29145SOL    HW189109   8.986   1.103   4.466 -0.2476  0.1642 -0.6601
29145SOL    HW289110   8.924   0.989   4.545 -0.8950 -0.0439 -1.4430
29146SOL     OW89111   3.194   0.192   8.424 -0.4839 -0.3606 -0.3073
29146SOL    HW189112   3.276   0.241   8.418 -0.5374 -0.3503 -1.0903
29146SOL    HW289113   3.126   0.258   8.415 -0.5623 -0.4887 -0.6966
29147SOL     OW89114   0.660   8.826   1.156 -0.6014 -0.5020  0.4810
29147SOL    HW189115   0.646   8.829   1.250 -0.8717 -0.5456  0.4434
29147SOL    HW289116   0.633   8.913   1.125 -0.1876 -0.3682  0.4845
29148SOL     OW89117   4.162   4.639   6.172  0.1586  0.2569  0.0943
29148SOL    HW189118   4.252   4.673   6.172  0.6397 -0.9209  1.1377
29148SOL    HW289119   4.121   4.683   6.246  0.0898  0.2935  0.0334
29149SOL     OW89120   4.995   4.385   6.324 -0.0513  0.4090 -0.3921
29149SOL    HW189121   4.950   4.383   6.409  1.3591  0.8926  0.4045
29149SOL    HW289122   5.074   4.437   6.340  1.3951 -1.3561 -1.4213
29150SOL     OW89123   3.908   0.596   0.288  0.3269 -0.3631 -0.4083
29150SOL    HW189124   3.947   0.512   0.267 -0.5126 -0.7455 -0.4913
29150SOL    HW289125   3.873   0.627   0.205 -3.3031 -2.0312  0.2902
29151SOL     OW89126   4.765   2.574   9.312 -0.3441 -0.2375 -1.1844
29151SOL    HW189127   4.842   2.554   9.365 -0.5717 -1.6964 -1.3546
29151SOL    HW289128   4.797   2.632   9.243 -0.5664  4.1495  2.0362
29152SOL     OW89129   0.338   3.824   6.331  0.1944 -0.4260 -0.3186
29152SOL    HW189130   0.251   3.860   6.351  0.3159 -0.6858  0.7730
29152SOL    HW289131   0.369   3.789   6.415  1.0670 -0.9559 -0.8449
29153SOL     OW89132   5.816   7.004   4.402 -0.4754  0.0703 -0.0855
29153SOL    HW189133   5.792   6.975   4.491 -1.0266 -0.6109 -0.4477
29153SOL    HW289134   5.857   6.927   4.363 -1.2132  0.0299 -0.7899
29154SOL     OW89135   9.170   8.999   5.365 -0.6832  0.3149 -0.0947
29154SOL    HW189136   9.180   8.953   5.448  0.5844  0.8613  0.0811
29154SOL    HW289137   9.226   8.951   5.304 -2.8908 -1.1295 -1.1358
29155SOL     OW89138   6.001   2.562   3.834 -0.9033 -0.0342 -0.0265
29155SOL    HW189139   5.948   2.641   3.827 -0.1641  0.5597  0.8407
29155SOL    HW289140   6.084   2.593   3.871 -0.5310 -1.1850  0.1183
29156SOL     OW89141   8.496   5.155   3.575  0.2377 -0.3037  0.5103
29156SOL    HW189142   8.535   5.155   3.663  0.7287  0.0398  0.2982
29156SOL    HW289143   8.567   5.127   3.517 -0.4325 -1.7867  0.3553
29157SOL     OW89144   0.155   2.883   9.210  0.0607 -0.1518 -0.3580
29157SOL    HW189145   0.109   2.967   9.209  1.1386  0.4592 -0.5741
29157SOL    HW289146   0.087   2.818   9.229 -0.7422  0.7929  0.0690
29158SOL     OW89147   1.511   8.011   9.520 -0.3870 -0.0532  0.4086
29158SOL    HW189148   1.445   8.056   9.571  0.0832  2.6296 -1.1467
29158SOL    HW289149   1.546   8.078   9.461  2.2159 -1.8649 -0.3107
29159SOL     OW89150   2.940   8.597   3.788  0.3283 -0.6054 -0.0843
29159SOL    HW189151   2.963   8.636   3.873 -2.8706 -0.6678  0.9149
29159SOL    HW289152   2.999   8.641   3.726  1.9440  0.3336  1.9659
29160SOL     OW89153   9.638   6.661   7.504  0.0696 -0.0699  0.4287
29160SOL    HW189154   9.553   6.639   7.544  0.5407 -2.1645  0.3934
29160SOL    HW289155   9.644   6.603   7.428  1.5395  0.0374  0.4458
29161SOL     OW89156   7.721   4.706   7.744  0.5659  0.7690  0.4759
29161SOL    HW189157   7.803   4.661   7.724 -0.1881 -0.1071 -0.7748
29161SOL    HW289158   7.675   4.710   7.661 -1.2820 -0.0470  1.4036
29162SOL     OW89159   4.211   1.841   4.621  0.2955 -0.2406  0.2444
29162SOL    HW189160   4.305   1.855   4.612  0.1398  0.8059  0.0640
29162SOL    HW289161   4.202   1.785   4.698  1.1156 -1.2182 -0.3454
29163SOL     OW89162   2.163   6.627   9.468 -0.1123  0.2554  0.4413
29163SOL    HW189163   2.192   6.539   9.491 -0.3411  0.3725  1.2006
29163SOL    HW289164   2.070   6.629   9.491 -0.7873 -0.1339 -2.0054
29164SOL     OW89165   6.239   2.875   7.855  0.1078 -0.3238  0.1025
29164SOL    HW189166   6.183   2.883   7.932 -0.0750  2.0491 -0.2097
29164SOL    HW289167   6.192   2.922   7.786  2.1000  1.0864 -0.3786
29165SOL     OW89168   5.393   0.310   4.464  0.6153  0.4931  0.4405
29165SOL    HW189169   5.383   0.342   4.375 -0.1254  0.3560  0.4693
29165SOL    HW289170   5.442   0.228   4.455  0.6196  0.5272  0.1645
29166SOL     OW89171   8.167   4.916   4.626  0.1618 -0.0721  0.4858
29166SOL    HW189172   8.091   4.903   4.568  1.1784 -0.5717 -0.7907
29166SOL    HW289173   8.135   4.976   4.693 -0.8985  1.0991 -0.9776
29167SOL     OW89174   6.854   8.016   6.276 -1.1529  0.5668 -0.3939
29167SOL    HW189175   6.869   7.956   6.203  0.9030  1.0908 -0.4768
29167SOL    HW289176   6.937   8.064   6.285 -0.5459 -0.7916  3.4717
29168SOL     OW89177   3.681   3.444   3.810 -0.1495 -0.2273 -0.2562
29168SOL    HW189178   3.741   3.406   3.746  0.3337  1.3408 -0.7711
29168SOL    HW289179   3.595   3.439   3.768 -0.2591 -1.5464  0.0657
29169SOL     OW89180   3.595   5.342   9.207  0.0575 -0.5407 -0.1415
29169SOL    HW189181   3.595   5.435   9.185 -0.3755 -0.2318  1.0527
29169SOL    HW289182   3.682   5.327   9.244 -0.7300  0.0713  2.1487
29170SOL     OW89183   2.919   0.505   6.263 -0.4410 -0.2419 -0.1896
29170SOL    HW189184   2.888   0.457   6.187  1.1658 -2.5747  0.5147
29170SOL    HW289185   2.841   0.519   6.316 -1.0138 -2.0030 -0.5027
29171SOL     OW89186   3.965   8.709   0.036  0.3638 -0.3233 -0.2736
29171SOL    HW189187   3.882   8.698   0.082  0.6475  1.4120  0.7578
29171SOL    HW289188   4.032   8.696   0.103  0.8557  0.2423 -0.6361
29172SOL     OW89189   1.181   1.121   1.504 -0.1005  0.6676  0.0552
29172SOL    HW189190   1.161   1.206   1.542  0.6568  0.7972  0.1798
29172SOL    HW289191   1.176   1.060   1.577  0.2552  0.7469  0.1473
29173SOL     OW89192   6.437   0.735   4.281 -0.4557  0.3452 -0.5291
29173SOL    HW189193   6.362   0.708   4.333 -0.6128  0.7753 -0.5287
29173SOL    HW289194   6.443   0.829   4.294  0.7250  0.1718  0.3143
29174SOL     OW89195   0.887   5.390   6.818  0.9187  0.2595  0.0140
29174SOL    HW189196   0.818   5.455   6.830  0.3779 -0.4268  0.6597
29174SOL    HW289197   0.938   5.394   6.899  0.3499 -0.7370  0.4338
29175SOL     OW89198   1.274   9.564   8.293  1.0677  0.5496  0.2513
29175SOL    HW189199   1.364   9.558   8.325  1.8789  0.8848 -1.7950
29175SOL    HW289200   1.227   9.495   8.340  2.3797  0.3400  1.3214
29176SOL     OW89201   1.894   1.714   1.650 -0.2345  0.2973 -0.2726
29176SOL    HW189202   1.953   1.740   1.721 -0.8038  0.1101  0.2741
29176SOL    HW289203   1.906   1.619   1.642 -0.4055  0.2709 -0.2156
29177SOL     OW89204   3.868   8.957   6.223 -0.0785 -0.4412 -0.0184
29177SOL    HW189205   3.890   8.914   6.140 -0.8281  0.3134 -0.6383
29177SOL    HW289206   3.789   8.912   6.252  0.3429 -0.8929  0.4426
29178SOL     OW89207   0.176   4.589   5.431  0.5567  0.1630  0.3382
29178SOL    HW189208   0.101   4.580   5.373  2.0064  1.0832 -1.8075
29178SOL    HW289209   0.160   4.672   5.478  0.2604  0.3783 -0.1363
29179SOL     OW89210   8.110   3.156   2.709 -0.2181 -0.3169  0.1464
29179SOL    HW189211   8.047   3.168   2.638  0.0503  0.6186  0.0475
29179SOL    HW289212   8.172   3.091   2.676  0.4304  0.7660 -0.8622
29180SOL     OW89213   3.006   2.657   4.657  0.5965 -0.3666 -0.4680
29180SOL    HW189214   3.089   2.642   4.612  0.5950  2.6258 -1.6893
29180SOL    HW289215   3.032   2.683   4.746  0.9156 -0.1703 -0.6171
29181SOL     OW89216   0.345   3.431   3.644 -0.4341  0.2748  0.1828
29181SOL    HW189217   0.327   3.519   3.680  0.1018  0.5081 -0.1217
29181SOL    HW289218   0.287   3.374   3.695 -0.0734  0.6729  1.0663
29182SOL     OW89219   6.694   7.314   3.927  0.6683 -0.1418 -0.0878
29182SOL    HW189220   6.761   7.263   3.972  1.8377  2.2738  1.0663
29182SOL    HW289221   6.741   7.387   3.889 -1.2386  1.4215  0.4135
29183SOL     OW89222   1.290   8.883   3.895 -0.2775 -0.2673 -0.4528
29183SOL    HW189223   1.226   8.816   3.918  0.3950 -0.3543  1.2958
29183SOL    HW289224   1.367   8.834   3.867 -0.3651 -0.1865 -0.8442
29184SOL     OW89225   0.229   2.344   1.437  0.5910 -0.4010  0.4102
29184SOL    HW189226   0.301   2.321   1.378  1.0314  0.3558  0.6461
29184SOL    HW289227   0.167   2.391   1.382  0.1284 -1.2921  0.1424
29185SOL     OW89228   7.661   8.513   1.410  0.0812 -0.2393 -1.0602
29185SOL    HW189229   7.569   8.488   1.407 -0.1912  0.3231  1.2343
29185SOL    HW289230   7.704   8.453   1.349 -1.7360 -0.7017 -1.9643
29186SOL     OW89231   0.890   1.695   9.324 -0.6593 -0.0074 -0.3451
29186SOL    HW189232   0.859   1.777   9.363  2.9505  1.2580  0.2092
29186SOL    HW289233   0.879   1.708   9.230  1.4693  2.0023 -0.4118
29187SOL     OW89234   6.385   2.840   5.819  0.1451 -0.3054 -0.1301
29187SOL    HW189235   6.329   2.868   5.892 -1.6534 -3.4009 -0.1661
29187SOL    HW289236   6.452   2.786   5.860  0.3968 -0.3343 -0.5750
29188SOL     OW89237   7.156   4.547   9.441  0.4548  0.0055 -0.6511
29188SOL    HW189238   7.188   4.517   9.356  0.0707  1.3847 -1.2976
29188SOL    HW289239   7.213   4.620   9.464 -0.1092  0.3142 -0.2170
29189SOL     OW89240   0.429   2.729   9.329 -0.1435 -0.4265 -0.1708
29189SOL    HW189241   0.373   2.671   9.381  0.4374 -0.2607  0.6444
29189SOL    HW289242   0.371   2.762   9.260 -1.5531  1.1642  1.6869
29190SOL     OW89243   5.124   7.752   5.111  0.3241  0.0746  0.0056
29190SOL    HW189244   5.121   7.663   5.146  0.1670  0.9056  2.2881
29190SOL    HW289245   5.080   7.745   5.026 -2.8015 -1.4530  1.5340
29191SOL     OW89246   1.103   6.298   5.164  0.3078 -0.7975  0.6267
29191SOL    HW189247   1.136   6.243   5.093 -1.2432 -0.6189 -0.2655
29191SOL    HW289248   1.173   6.297   5.229  0.2694 -4.0436  0.7903
29192SOL     OW89249   6.975   1.730   2.239  0.1989  0.1611 -1.0897
29192SOL    HW189250   6.932   1.647   2.262 -0.5928  0.9488  0.4133
29192SOL    HW289251   7.030   1.708   2.164 -0.4804 -1.5827 -1.1298
29193SOL     OW89252   0.900   3.052   3.233  0.1173 -0.4222 -0.5780
29193SOL    HW189253   0.986   3.083   3.205  0.7798 -1.9121 -0.2551
29193SOL    HW289254   0.860   3.129   3.274  1.7064  0.0270  0.2201
29194SOL     OW89255   6.653   9.512   7.003 -0.0061  0.2466 -0.3646
29194SOL    HW189256   6.741   9.525   6.967  0.1316 -0.7073 -0.3872
29194SOL    HW289257   6.598   9.574   6.954  0.8005  1.5494  0.3091
29195SOL     OW89258   0.260   6.905   2.064  0.8224 -0.0100  0.4182
29195SOL    HW189259   0.221   6.989   2.088 -1.2539 -1.2297  1.6216
29195SOL    HW289260   0.346   6.905   2.107  0.0581  0.7426  2.0133
29196SOL     OW89261   4.037   4.757   3.158  0.0643 -0.1031  0.4016
29196SOL    HW189262   4.058   4.851   3.160  1.3181 -0.3800  1.2232
29196SOL    HW289263   4.122   4.713   3.151 -0.5911 -1.1676 -1.5896
29197SOL     OW89264   8.274   4.117   0.985  0.1541  0.2167 -0.0816
29197SOL    HW189265   8.224   4.078   1.056 -0.3780  1.8557  0.4959
29197SOL    HW289266   8.355   4.147   1.027  0.2179  0.4218 -0.3505
29198SOL     OW89267   3.713   8.089   1.149 -0.0296  0.0298 -0.0786
29198SOL    HW189268   3.755   8.009   1.179 -1.8003 -0.4753  1.2555
29198SOL    HW289269   3.751   8.158   1.204 -0.7564 -0.4009  1.0173
29199SOL     OW89270   3.663   3.841   0.910 -0.2519 -0.2519  0.0604
29199SOL    HW189271   3.699   3.767   0.958  1.2231 -1.2764 -2.4331
29199SOL    HW289272   3.611   3.802   0.841 -0.8763  1.1097 -0.2822
29200SOL     OW89273   8.350   7.010   0.055 -0.5269  0.0825 -0.5442
29200SOL    HW189274   8.434   6.965   0.051 -0.7654 -0.3117 -4.6408
29200SOL    HW289275   8.372   7.100   0.076  0.5557 -0.5539  1.3348
29201SOL     OW89276   3.361   9.228   4.196  0.2778  0.3033  0.4772
29201SOL    HW189277   3.438   9.275   4.227 -0.1193  1.3661 -0.0996
29201SOL    HW289278   3.321   9.287   4.132  0.5720 -1.4325 -1.4058
29202SOL     OW89279   1.608   5.478   8.744  0.5453 -0.5408 -0.2827
29202SOL    HW189280   1.599   5.384   8.728 -0.8893 -0.3131 -0.8812
29202SOL    HW289281   1.531   5.502   8.795  0.4385  0.4859 -0.9053
29203SOL     OW89282   0.726   4.629   1.558 -1.0399 -0.6110  0.5677
29203SOL    HW189283   0.752   4.655   1.647  0.6735 -1.9224  0.5179
29203SOL    HW289284   0.728   4.710   1.508 -1.7301  0.1000  1.6386
29204SOL     OW89285   5.103   0.762   0.802  0.7724 -0.3245 -0.0935
29204SOL    HW189286   5.167   0.738   0.870  2.5461  2.1278 -0.7736
29204SOL    HW289287   5.030   0.800   0.851  1.3300 -0.0550  0.5529
29205SOL     OW89288   5.100   2.164   1.800 -0.3819 -0.1007  0.3334
29205SOL    HW189289   5.154   2.130   1.871 -0.6530 -1.1386  0.0662
29205SOL    HW289290   5.114   2.102   1.728 -1.3430  0.0400  0.0163
29206SOL     OW89291   9.512   9.646   0.137 -0.2834 -0.1589 -0.3631
29206SOL    HW189292   9.502   9.554   0.160 -0.4613 -0.2897 -0.9508
29206SOL    HW289293   9.424   9.683   0.145 -0.2218 -0.0526 -0.1765
29207SOL     OW89294   8.062   1.881   8.635  0.0992 -0.0337 -0.2230
29207SOL    HW189295   7.971   1.896   8.662 -0.0769 -0.2559 -0.6799
29207SOL    HW289296   8.114   1.903   8.713 -0.3739 -0.3715  0.1974
29208SOL     OW89297   6.077   7.634   8.813  0.4154  0.8449 -0.3279
29208SOL    HW189298   6.135   7.629   8.889  1.2476  0.0201 -0.9803
29208SOL    HW289299   6.098   7.717   8.771  0.5027  0.9507 -0.0716
29209SOL     OW89300   2.685   3.498   8.889 -0.1602  0.6078  0.3477
29209SOL    HW189301   2.651   3.564   8.950  0.6274  0.3826  1.0502
29209SOL    HW289302   2.626   3.423   8.900 -0.3424  0.7620  0.4337
29210SOL     OW89303   4.008   7.802   7.753 -0.3700  0.4083  0.0705
29210SOL    HW189304   3.954   7.875   7.724 -0.5063 -0.0530 -0.8747
29210SOL    HW289305   4.093   7.816   7.710 -1.1042 -1.2224 -2.0895
29211SOL     OW89306   0.660   9.311   4.346 -0.2241 -0.0999 -0.2518
29211SOL    HW189307   0.740   9.278   4.387  0.8009  1.9209 -0.4906
29211SOL    HW289308   0.690   9.378   4.284 -2.0069 -0.3542 -1.4837
29212SOL     OW89309   1.573   0.181   6.456  0.7798 -0.2094 -0.4851
29212SOL    HW189310   1.559   0.121   6.528  0.4048  0.8072  0.3093
29212SOL    HW289311   1.576   0.125   6.378 -0.0888 -1.1850  0.1657
29213SOL     OW89312   4.728   6.272   0.942  0.1062 -0.4667  0.4202
29213SOL    HW189313   4.785   6.266   0.865  0.0868  0.6923  0.2917
29213SOL    HW289314   4.766   6.210   1.004  3.6570  2.5314  1.6245
29214SOL     OW89315   7.319   3.522   5.401  0.1543 -0.9142  0.0040
29214SOL    HW189316   7.288   3.596   5.454 -0.8095  0.0059 -1.7353
29214SOL    HW289317   7.330   3.451   5.463 -3.2849 -0.6318  1.1677
29215SOL     OW89318   5.722   3.638   6.093  0.2461  0.6250  0.0365
29215SOL    HW189319   5.657   3.572   6.120  0.7736 -0.6500 -1.6600
29215SOL    HW289320   5.742   3.686   6.174  0.0118 -1.4415  1.4062
29216SOL     OW89321   5.629   3.769   6.336  0.3147 -0.4758 -0.1533
29216SOL    HW189322   5.602   3.861   6.334  1.6659 -0.0553  0.0827
29216SOL    HW289323   5.576   3.731   6.407 -1.4714 -0.3153 -1.3318
29217SOL     OW89324   5.871   6.082   7.421  0.1905  0.8893 -0.3152
29217SOL    HW189325   5.898   6.132   7.344  0.0799  0.6975 -0.4791
29217SOL    HW289326   5.947   6.086   7.479 -0.0278  1.7417 -0.0719
29218SOL     OW89327   3.645   5.950   0.355  0.0568 -0.2690 -0.0572
29218SOL    HW189328   3.733   5.985   0.368  0.6667 -1.8904  0.3604
29218SOL    HW289329   3.588   6.013   0.397  1.0127  0.8104 -0.3235
29219SOL     OW89330   2.313   0.245   1.650  0.5360 -0.5083 -0.1187
29219SOL    HW189331   2.244   0.218   1.711  0.7146  0.1611  0.3906
29219SOL    HW289332   2.270   0.246   1.564 -0.4701  1.2115  0.3635
29220SOL     OW89333   7.256   8.128   8.159 -0.5063  0.0231  0.1298
29220SOL    HW189334   7.201   8.205   8.176  0.2517  0.8498 -1.0059
29220SOL    HW289335   7.198   8.066   8.115 -0.6068  0.8024 -0.8667
29221SOL     OW89336   4.788   7.967   3.399  0.2716  0.2883 -0.6309
29221SOL    HW189337   4.808   7.916   3.320  0.6581 -1.1981  0.3791
29221SOL    HW289338   4.697   7.946   3.418  1.2262 -2.5688  1.4704
29222SOL     OW89339   1.050   7.410   3.595 -0.5711  0.0349 -0.0674
29222SOL    HW189340   1.009   7.356   3.663 -3.8582  0.5207 -1.4611
29222SOL    HW289341   1.040   7.359   3.514  0.6907  0.6830 -0.6777
29223SOL     OW89342   0.735   8.292   0.276  0.3314 -0.0954 -0.2267
29223SOL    HW189343   0.658   8.253   0.318 -0.3637  0.4194 -0.9667
29223SOL    HW289344   0.740   8.380   0.312  0.3683 -0.0150 -0.4237
29224SOL     OW89345   3.211   0.158   7.747 -0.1393 -0.2236  0.1179
29224SOL    HW189346   3.307   0.155   7.749  0.0890  2.7970 -0.5074
29224SOL    HW289347   3.190   0.177   7.655 -1.2054  0.5854  0.5044
29225SOL     OW89348   2.287   6.807   4.857  0.5697  1.0048 -0.6368
29225SOL    HW189349   2.285   6.824   4.952 -1.9344 -0.8045 -0.2446
29225SOL    HW289350   2.241   6.882   4.819 -0.4763  0.6427 -0.1330
29226SOL     OW89351   8.270   8.924   4.985  0.2297  0.0014  0.4592
29226SOL    HW189352   8.283   8.918   5.080 -1.4155 -0.1847  0.7111
29226SOL    HW289353   8.278   9.017   4.965 -1.5371  0.3506  1.1744
29227SOL     OW89354   3.352   0.058   2.815 -0.1581 -0.2659  0.0336
29227SOL    HW189355   3.295   0.103   2.753  1.7008 -0.5232 -1.9807
29227SOL    HW289356   3.399   0.129   2.859 -0.0491 -0.1266 -0.3009
29228SOL     OW89357   4.879   6.260   5.644 -0.6686  0.5346  0.6064
29228SOL    HW189358   4.820   6.245   5.571  0.4330 -0.3514 -0.1360
29228SOL    HW289359   4.873   6.354   5.661 -0.8150  0.7863 -0.7425
29229SOL     OW89360   5.340   7.352   9.244 -0.2229 -0.1093  0.4984
29229SOL    HW189361   5.332   7.443   9.216  1.7309 -0.0736 -0.0783
29229SOL    HW289362   5.300   7.351   9.332  2.4483  2.0764  1.9150
29230SOL     OW89363   7.363   0.058   6.165 -0.5111 -0.3578  0.3056
29230SOL    HW189364   7.362   0.152   6.144 -0.9842 -0.5918 -0.7650
29230SOL    HW289365   7.427   0.051   6.236 -1.1906  0.9127  1.0928
29231SOL     OW89366   5.395   7.538   1.137 -0.5456  0.4580  0.2731
29231SOL    HW189367   5.360   7.508   1.220 -0.9781  0.0450 -0.0555
29231SOL    HW289368   5.393   7.461   1.080  1.3385  0.2941  0.3740
29232SOL     OW89369   5.360   5.642   6.075  0.5075 -0.2570  0.1526
29232SOL    HW189370   5.376   5.563   6.127  1.7426 -0.8031 -0.9997
29232SOL    HW289371   5.430   5.702   6.100  1.4939 -0.7598 -1.2702
29233SOL     OW89372   5.274   2.585   8.521  0.0595  0.1495  0.1362
29233SOL    HW189373   5.335   2.521   8.559 -2.0669 -1.6972  0.6727
29233SOL    HW289374   5.265   2.558   8.429 -0.2828  0.1093  0.1786
29234SOL     OW89375   0.280   4.447   7.311  0.2413  0.0709  0.2575
29234SOL    HW189376   0.244   4.361   7.289 -2.5834  0.1766  3.5311
29234SOL    HW289377   0.223   4.509   7.265  1.3644  0.2667 -0.9259
29235SOL     OW89378   0.303   9.043   1.802  0.0551 -0.0228 -0.1338
29235SOL    HW189379   0.266   9.000   1.879 -1.3516 -0.6039 -1.0934
29235SOL    HW289380   0.232   9.094   1.765  0.4960 -0.2786 -1.4156
29236SOL     OW89381   8.270   4.079   8.630  0.4871  0.5751 -0.8026
29236SOL    HW189382   8.302   3.998   8.588 -0.9002  0.6508 -2.0774
29236SOL    HW289383   8.202   4.049   8.690  1.7016  0.5830  0.6250
29237SOL     OW89384   0.011   4.234   6.965  0.1501  0.2418  0.4943
29237SOL    HW189385   0.087   4.220   6.908  1.1240  2.2943  1.1746
29237SOL    HW289386  -0.062   4.246   6.904  0.5232 -0.8614 -0.1964
29238SOL     OW89387   9.653   6.237   1.852 -0.0089  0.4174  0.1344
29238SOL    HW189388   9.616   6.173   1.912  0.3131 -0.6636 -0.7872
29238SOL    HW289389   9.747   6.236   1.869  0.2665 -0.8969 -1.2721
29239SOL     OW89390   1.378   8.365   4.646 -0.0429  0.2570 -0.4078
29239SOL    HW189391   1.297   8.339   4.602  0.1112 -0.0836 -0.4895
29239SOL    HW289392   1.429   8.410   4.579  0.3214 -0.5260 -0.6677
29240SOL     OW89393   2.828   8.914   3.396 -0.4750 -0.0648 -0.6868
29240SOL    HW189394   2.809   9.006   3.377 -2.0883 -0.2188 -0.0230
29240SOL    HW289395   2.747   8.868   3.371  0.7387 -1.5023 -2.2173
29241SOL     OW89396   6.467   0.840   2.883 -0.5640  0.5802  0.1717
29241SOL    HW189397   6.417   0.917   2.910 -1.9359  0.3468 -1.5012
29241SOL    HW289398   6.481   0.851   2.789  1.4831 -0.0028  0.3503
29242SOL     OW89399   2.490   3.217   6.461 -0.3287  0.0754 -0.5858
29242SOL    HW189400   2.399   3.207   6.432 -0.1061 -0.0216 -1.2894
29242SOL    HW289401   2.484   3.245   6.552 -1.0544 -1.0069 -0.2843
29243SOL     OW89402   0.122   1.650   3.770  0.0844  0.5681 -0.7272
29243SOL    HW189403   0.177   1.588   3.721 -0.3131  0.8152 -1.4968
29243SOL    HW289404   0.050   1.671   3.710 -1.9237 -1.1876  0.9010
29244SOL     OW89405   0.412   3.019   7.540  0.6452 -0.6720 -0.3275
29244SOL    HW189406   0.455   3.078   7.477 -1.3089  0.7336 -0.4110
29244SOL    HW289407   0.379   3.076   7.609 -2.6205 -1.3746 -1.1384
29245SOL     OW89408   0.551   8.675   0.963  0.5738 -0.1138 -0.6499
29245SOL    HW189409   0.528   8.604   1.024  1.7248 -0.0745 -0.1498
29245SOL    HW289410   0.602   8.736   1.016 -0.8542  1.3750 -0.9419
29246SOL     OW89411   4.282   3.869   2.563 -0.1443 -0.1667 -0.3016
29246SOL    HW189412   4.288   3.918   2.481 -0.5858  0.7829  0.2119
29246SOL    HW289413   4.191   3.880   2.591 -0.4460 -1.8712 -0.5068
29247SOL     OW89414   2.980   8.250   2.517  0.1013 -0.1191 -0.1406
29247SOL    HW189415   2.892   8.236   2.483  0.1291 -2.0239  0.4094
29247SOL    HW289416   2.972   8.238   2.611  0.8506  0.2005 -0.0264
29248SOL     OW89417   1.309   1.143   0.422  0.7472 -0.3424 -0.6542
29248SOL    HW189418   1.305   1.239   0.417  0.1464 -0.4301 -2.3511
29248SOL    HW289419   1.359   1.126   0.502  1.3440  1.3994 -0.6044
29249SOL     OW89420   3.913   4.708   4.460 -0.1788 -0.5596 -0.1698
29249SOL    HW189421   3.997   4.752   4.469 -0.0829 -0.4167 -1.5840
29249SOL    HW289422   3.935   4.616   4.452 -0.0941 -0.4684 -1.1288
29250SOL     OW89423   6.315   5.936   0.163  0.3851  0.2808  0.0313
29250SOL    HW189424   6.231   5.890   0.174  0.6294 -0.1776  0.0109
29250SOL    HW289425   6.326   5.943   0.068 -0.4544  1.8889  0.0159
29251SOL     OW89426   0.973   0.914   7.132 -0.7215  0.1871 -0.4553
29251SOL    HW189427   1.030   0.987   7.110  0.3649 -0.6013 -0.3532
29251SOL    HW289428   0.993   0.895   7.224 -0.6050 -0.5656 -0.6304
29252SOL     OW89429   3.997   4.125   8.692  0.5571 -0.0975  0.0255
29252SOL    HW189430   3.922   4.183   8.683  0.8215  0.1829 -0.3774
29252SOL    HW289431   3.994   4.070   8.613  1.5204  0.7895 -0.6578
29253SOL     OW89432   9.256   0.658   4.396 -0.2100  0.2911  0.4553
29253SOL    HW189433   9.334   0.664   4.450 -1.3924 -0.8056  2.3986
29253SOL    HW289434   9.205   0.587   4.434 -2.1986  1.0104 -0.6733
29254SOL     OW89435   3.782   2.211   3.041 -0.1773  0.0825 -0.7913
29254SOL    HW189436   3.784   2.208   3.137 -2.2434 -1.4025 -0.7395
29254SOL    HW289437   3.868   2.246   3.017  0.1856  1.0513  1.6017
29255SOL     OW89438   5.838   6.793   5.228 -0.9274 -0.0799 -0.2992
29255SOL    HW189439   5.907   6.828   5.284  0.2690 -0.6286 -1.3922
29255SOL    HW289440   5.860   6.700   5.218 -2.0256 -0.3400 -0.3787
29256SOL     OW89441   0.076   3.408   1.555  0.0523  0.0449  0.2133
29256SOL    HW189442   0.151   3.415   1.613  0.7267 -0.2614 -0.6037
29256SOL    HW289443   0.054   3.498   1.533  0.3424  0.1264  0.2529
29257SOL     OW89444   1.116   1.858   0.920 -0.4308  0.2188  0.3524
29257SOL    HW189445   1.103   1.771   0.884 -0.7384 -0.4922  2.0712
29257SOL    HW289446   1.029   1.897   0.920  0.0947  1.7187 -3.0911
29258SOL     OW89447   6.500   4.191   7.589 -0.2371  0.0454 -0.3597
29258SOL    HW189448   6.581   4.194   7.537 -0.1625 -0.0420 -0.2506
29258SOL    HW289449   6.475   4.283   7.600 -0.7015  0.0338 -1.2351
29259SOL     OW89450   6.709   8.715   0.972  0.3355  0.0562  0.3227
29259SOL    HW189451   6.694   8.808   0.989  0.5371  0.1098  0.2240
29259SOL    HW289452   6.641   8.691   0.909  1.4854  0.6461 -1.2168
29260SOL     OW89453   9.536   1.958   5.593  0.5246 -0.3361 -0.2179
29260SOL    HW189454   9.538   1.875   5.641  2.9173 -0.2931 -0.1330
29260SOL    HW289455   9.532   1.932   5.501 -3.3806 -0.4182 -0.2210
29261SOL     OW89456   7.142   3.875   3.289 -0.8641 -0.1937 -0.2438
29261SOL    HW189457   7.217   3.835   3.246 -1.0418 -1.9867  1.0152
29261SOL    HW289458   7.180   3.931   3.357 -0.5776 -2.0739  1.2508
29262SOL     OW89459   7.764   4.597   1.240 -0.4930 -0.5332  0.4459
29262SOL    HW189460   7.780   4.681   1.283 -0.4101  1.6383 -3.3590
29262SOL    HW289461   7.668   4.589   1.238 -0.5228 -0.1453  0.2065
29263SOL     OW89462   6.991   6.318   1.595 -0.4200 -0.2464  0.3968
29263SOL    HW189463   6.947   6.252   1.649 -0.1122 -0.3952  0.4672
29263SOL    HW289464   7.028   6.380   1.657  0.3310 -0.6675  0.3862
29264SOL     OW89465   3.362   3.816   2.283  0.4779  0.0819 -0.3223
29264SOL    HW189466   3.279   3.798   2.240  1.1851 -0.4323 -1.5434
29264SOL    HW289467   3.361   3.763   2.362 -0.7268  0.7973  0.1671
29265SOL     OW89468   1.923   0.762   9.111  0.1462  0.0644  0.2666
29265SOL    HW189469   1.896   0.670   9.112 -3.1820  0.9096 -0.2463
29265SOL    HW289470   1.961   0.774   9.024 -1.8312 -0.2882 -0.7028
29266SOL     OW89471   2.243   3.332   4.668 -0.0559 -0.0542 -0.1117
29266SOL    HW189472   2.313   3.357   4.728  0.8983 -3.5151  0.4245
29266SOL    HW289473   2.163   3.344   4.719  0.4412  0.5428  0.5517
29267SOL     OW89474   5.920   2.309   7.581 -0.1614  0.2174  0.0379
29267SOL    HW189475   5.849   2.330   7.642  1.3103  1.0831  1.5182
29267SOL    HW289476   5.901   2.360   7.503 -1.9358 -0.6921 -0.1817
29268SOL     OW89477   3.245   9.134   4.768  0.4082  0.4030  0.0407
29268SOL    HW189478   3.176   9.079   4.733  1.3631 -0.3820 -0.6381
29268SOL    HW289479   3.210   9.164   4.852 -1.1471  0.8201 -0.7060
29269SOL     OW89480   8.761   8.783   2.330 -0.0409  0.3945 -0.4784
29269SOL    HW189481   8.697   8.849   2.358  1.4573  1.1714  1.3099
29269SOL    HW289482   8.785   8.809   2.241 -1.8722  0.3141 -1.0373
29270SOL     OW89483   3.122   8.670   3.632  0.1715  0.1652  0.0100
29270SOL    HW189484   3.149   8.753   3.672  0.4275 -0.5829  1.4551
29270SOL    HW289485   3.203   8.619   3.625 -0.2444 -0.6527  0.8571
29271SOL     OW89486   4.893   0.318   2.205  0.2070  0.3993  0.2997
29271SOL    HW189487   4.920   0.228   2.189  1.8855  0.4029  2.5406
29271SOL    HW289488   4.965   0.371   2.170  0.0897  0.7724  0.6102
29272SOL     OW89489   0.982   4.874   9.649  0.1911  0.2569 -0.1745
29272SOL    HW189490   1.032   4.836   9.576  0.3243  2.0446 -1.0819
29272SOL    HW289491   1.034   4.949   9.677 -0.2898  0.1015  1.2175
29273SOL     OW89492   0.206   2.006   3.064 -0.7066  0.1563  0.6812
29273SOL    HW189493   0.147   2.059   3.117 -0.7804 -0.8812  1.6698
29273SOL    HW289494   0.290   2.052   3.070 -0.8523  0.3647  1.2205
29274SOL     OW89495   2.701   8.780   2.993 -0.4558 -0.4991 -1.2045
29274SOL    HW189496   2.615   8.819   3.010 -0.0772  0.6036 -1.6836
29274SOL    HW289497   2.683   8.688   2.976 -1.3787 -0.5938  0.0953
29275SOL     OW89498   2.299   6.829   0.658 -0.6622 -0.0027 -0.2677
29275SOL    HW189499   2.314   6.804   0.566  2.1973 -0.9887  0.3695
29275SOL    HW289500   2.318   6.749   0.708 -3.0096  0.2723  1.1964
29276SOL     OW89501   5.356   6.693   4.088 -0.3467 -0.7174 -0.5772
29276SOL    HW189502   5.266   6.679   4.118 -0.1487  1.1960  1.1293
29276SOL    HW289503   5.348   6.729   4.001 -1.5100  2.9009  0.8619
29277SOL     OW89504   2.444   1.175   3.511 -0.2353  0.0133 -0.4470
29277SOL    HW189505   2.477   1.239   3.575  0.0295  0.6935 -1.2332
29277SOL    HW289506   2.513   1.172   3.444 -0.1008 -1.3549 -0.2642
29278SOL     OW89507   7.579   6.459   2.375 -0.2304  0.4082 -0.4762
29278SOL    HW189508   7.641   6.504   2.432  0.5660 -1.7925  0.5039
29278SOL    HW289509   7.499   6.455   2.427 -1.0700  2.6057 -1.4622
29279SOL     OW89510   1.648   8.620   9.145 -0.6632 -0.1464  0.2596
29279SOL    HW189511   1.588   8.550   9.119 -1.1561 -0.0176  1.0074
29279SOL    HW289512   1.680   8.594   9.231  1.9048 -1.1813 -0.9204
29280SOL     OW89513   3.339   0.041   9.677 -0.1114 -0.2553  0.0630
29280SOL    HW189514   3.307   0.129   9.655 -3.8144 -1.1147  1.2439
29280SOL    HW289515   3.319  -0.011   9.600  1.6053 -0.2529 -0.4308
29281SOL     OW89516   5.848   4.782   5.506  0.4038 -0.1366 -0.0501
29281SOL    HW189517   5.817   4.842   5.439 -0.1533 -0.1337  0.2009
29281SOL    HW289518   5.868   4.701   5.459  0.0724 -0.1164 -0.2294
29282SOL     OW89519   4.565   0.691   2.711  0.1064  0.5327  0.0124
29282SOL    HW189520   4.647   0.644   2.720 -1.0857 -1.8861 -0.9080
29282SOL    HW289521   4.578   0.751   2.638  1.1935  0.5641  0.2258
29283SOL     OW89522   1.848   5.545   4.510  0.1983 -0.6560 -0.2133
29283SOL    HW189523   1.842   5.486   4.435  0.1021  0.3554 -1.0256
29283SOL    HW289524   1.889   5.624   4.475 -1.3234  0.4577  0.4186
29284SOL     OW89525   1.172   3.541   2.122 -0.0339 -1.4000 -0.3226
29284SOL    HW189526   1.155   3.511   2.033  0.8126 -1.6559 -0.4100
29284SOL    HW289527   1.177   3.636   2.115  1.6217 -1.4991 -0.8606
29285SOL     OW89528   6.774   6.104   2.536 -0.2232  0.1362 -0.2142
29285SOL    HW189529   6.796   6.158   2.612  0.6022 -1.3192  0.6261
29285SOL    HW289530   6.855   6.057   2.515 -1.0950 -1.3598 -0.4061
29286SOL     OW89531   4.538   4.823   7.204 -0.4738 -0.3039 -0.0688
29286SOL    HW189532   4.515   4.901   7.255  0.3847  0.4783 -0.8549
29286SOL    HW289533   4.478   4.825   7.130 -0.3865 -0.3412 -0.1397
29287SOL     OW89534   6.116   6.321   7.889  0.1259 -0.2565 -0.1385
29287SOL    HW189535   6.164   6.379   7.829 -1.1207 -0.6194 -1.5356
29287SOL    HW289536   6.151   6.343   7.976  1.6029  0.6630 -0.9148
29288SOL     OW89537   4.234   9.282   7.186 -0.4215  0.0250 -0.5114
29288SOL    HW189538   4.250   9.375   7.170 -1.7843  0.0390 -2.0355
29288SOL    HW289539   4.279   9.264   7.269  1.6170  1.5399 -1.1939
29289SOL     OW89540   5.679   8.691   0.736 -0.0756  0.0199  0.0975
29289SOL    HW189541   5.708   8.728   0.819 -0.4773  0.5339  0.0094
29289SOL    HW289542   5.619   8.621   0.762  0.6003 -0.5192  0.2589
29290SOL     OW89543   4.784   0.477   0.218  0.0077  0.5684  0.0104
29290SOL    HW189544   4.827   0.559   0.196  1.2127 -0.1957 -0.5727
29290SOL    HW289545   4.714   0.501   0.279  1.2910  1.8237  1.0244
29291SOL     OW89546   7.063   0.379   8.427  0.7200 -0.7154  0.3537
29291SOL    HW189547   7.139   0.398   8.371  1.2722 -2.5219  0.4198
29291SOL    HW289548   7.039   0.289   8.405 -0.6709 -0.5769  1.1977
29292SOL     OW89549   3.548   9.363   7.296  0.2136 -0.1611 -0.2773
29292SOL    HW189550   3.550   9.336   7.204 -0.3046  0.3123 -0.4375
29292SOL    HW289551   3.639   9.358   7.324  0.6042  0.9723 -1.2103
29293SOL     OW89552   8.017   6.365   1.764  0.0503  0.2656  0.0182
29293SOL    HW189553   8.095   6.325   1.804  1.0633  3.3018  1.3522
29293SOL    HW289554   8.049   6.448   1.729 -2.1729  0.5365 -1.5135
29294SOL     OW89555   0.069   7.200   8.309 -0.4661  0.6678 -0.4731
29294SOL    HW189556   0.121   7.213   8.388  1.4115  0.7700 -1.6708
29294SOL    HW289557  -0.018   7.174   8.341  0.3690  0.2672  1.5954
29295SOL     OW89558   1.338   4.006   0.263 -0.0385  0.2482 -0.1777
29295SOL    HW189559   1.363   4.096   0.283 -0.1805  0.8586 -2.4419
29295SOL    HW289560   1.398   3.952   0.315  2.3701  1.6714 -1.3246
29296SOL     OW89561   4.758   8.167   7.338  0.2528  0.4360  0.4817
29296SOL    HW189562   4.754   8.159   7.243  0.5175  1.4311  0.3774
29296SOL    HW289563   4.680   8.120   7.369  0.9460 -1.2017 -0.1130
29297SOL     OW89564   3.403   3.028   0.864  0.2431 -0.0196  0.6482
29297SOL    HW189565   3.442   2.953   0.819  1.6942  1.9789 -1.6527
29297SOL    HW289566   3.442   3.026   0.952  2.6436 -0.2869 -0.3468
29298SOL     OW89567   7.915   1.005   3.624 -0.6282 -0.5816 -0.3421
29298SOL    HW189568   7.838   0.962   3.588 -1.3258 -0.2960  0.7566
29298SOL    HW289569   7.976   0.934   3.644 -0.8442 -0.8595 -0.6718
29299SOL     OW89570   7.172   0.625   1.750 -0.0600  0.0992 -0.1587
29299SOL    HW189571   7.188   0.666   1.835 -1.9881  2.6637 -0.9067
29299SOL    HW289572   7.204   0.689   1.686 -2.1701  0.0604 -1.3690
29300SOL     OW89573   2.075   7.364   4.788  0.7502 -0.1984  0.3561
29300SOL    HW189574   2.161   7.365   4.746  1.3579  1.3061  1.5234
29300SOL    HW289575   2.041   7.276   4.773  2.1540 -0.5725 -0.7988
29301SOL     OW89576   8.359   3.774   1.716 -0.6449 -0.0631 -0.2637
29301SOL    HW189577   8.419   3.790   1.789 -1.1595  0.2657  0.0997
29301SOL    HW289578   8.274   3.761   1.758 -0.6879 -1.3903 -0.7150
29302SOL     OW89579   1.422   8.636   1.520  0.1041 -0.2483  0.0316
29302SOL    HW189580   1.338   8.652   1.478  0.2845 -1.2091 -0.7266
29302SOL    HW289581   1.415   8.547   1.555  0.3867  0.0988  1.0020
29303SOL     OW89582   7.165   5.301   4.905  0.4255 -0.6713  0.5667
29303SOL    HW189583   7.208   5.378   4.866  1.1335 -1.2726  0.1436
29303SOL    HW289584   7.227   5.230   4.891 -0.6539 -1.5331  0.0890
29304SOL     OW89585   2.411   3.098   6.895  0.3587 -0.1092 -0.0218
29304SOL    HW189586   2.467   3.035   6.851  1.4649  0.5414  0.4240
29304SOL    HW289587   2.324   3.058   6.893  1.2415 -2.2434  1.3941
29305SOL     OW89588   2.207   2.741   2.339  0.0214  0.7038 -0.1817
29305SOL    HW189589   2.215   2.752   2.434 -1.5999  1.4270 -0.1014
29305SOL    HW289590   2.142   2.806   2.313  0.5936  0.6458 -1.8327
29306SOL     OW89591   0.959   5.489   2.343 -0.1978 -0.1832 -1.1840
29306SOL    HW189592   0.972   5.580   2.316  2.2107 -0.4407 -1.1104
29306SOL    HW289593   0.878   5.490   2.393 -0.7680  1.7155 -2.0766
29307SOL     OW89594   4.320   5.307   3.733 -0.6150 -0.4426 -0.5244
29307SOL    HW189595   4.312   5.212   3.725  0.4683 -0.6852  0.8876
29307SOL    HW289596   4.414   5.323   3.725 -0.7835  0.5225 -0.6842
29308SOL     OW89597   1.947   4.992   0.571 -0.0464 -0.1470 -0.0251
29308SOL    HW189598   2.003   4.922   0.540  0.1141  0.8894 -2.3282
29308SOL    HW289599   2.007   5.060   0.602  0.0783  0.8422 -2.2194
29309SOL     OW89600   6.300   9.008   3.754 -0.8691 -0.4288  0.2627
29309SOL    HW189601   6.253   9.023   3.836 -2.8889  0.5147 -0.9993
29309SOL    HW289602   6.234   9.020   3.686  0.2759 -2.9825 -1.4776
29310SOL     OW89603   8.706   5.540   5.453  0.0593  0.6009 -0.4956
29310SOL    HW189604   8.699   5.445   5.467  0.3219  0.7763  1.0319
29310SOL    HW289605   8.696   5.551   5.359 -1.6295 -0.8000 -0.5433
29311SOL     OW89606   1.040   1.843   4.254  0.1923 -0.1373 -0.3418
29311SOL    HW189607   0.981   1.910   4.219  1.1632  0.8676 -0.1160
29311SOL    HW289608   1.008   1.826   4.343  0.1456  0.2747 -0.2795
29312SOL     OW89609   7.372   1.370   9.501  0.7526 -0.4059 -0.2355
29312SOL    HW189610   7.396   1.444   9.444  0.4541 -0.2987 -0.2231
29312SOL    HW289611   7.427   1.298   9.471  1.2722 -0.0977 -0.0469
29313SOL     OW89612   7.930   9.334   7.928 -0.3330  0.5527  0.0840
29313SOL    HW189613   7.958   9.252   7.969  0.3423  1.1312  0.7939
29313SOL    HW289614   7.991   9.345   7.854 -1.3166 -0.2952 -0.8975
29314SOL     OW89615   4.977   6.184   3.573 -0.0526  0.3234 -0.3070
29314SOL    HW189616   5.012   6.175   3.661  2.9214 -1.3223 -1.4899
29314SOL    HW289617   5.003   6.272   3.545  0.5426  0.2097 -0.1254
29315SOL     OW89618   0.311   9.146   6.094  0.6608  0.1441 -0.3648
29315SOL    HW189619   0.320   9.195   6.175  2.0627  0.7450 -0.8445
29315SOL    HW289620   0.299   9.055   6.121  2.0128  0.2098  0.5143
29316SOL     OW89621   4.220   8.196   8.937  0.1662 -0.4553  0.1173
29316SOL    HW189622   4.256   8.156   8.858 -0.9155 -1.1823 -0.0356
29316SOL    HW289623   4.134   8.154   8.948 -0.7955  1.4440  0.2723
29317SOL     OW89624   2.120   9.578   5.314  0.1942  0.6851 -0.1032
29317SOL    HW189625   2.109   9.485   5.333  1.6548  0.3687 -0.6585
29317SOL    HW289626   2.031   9.610   5.299 -0.5121 -0.1776  1.9476
29318SOL     OW89627   5.349   3.873   5.631 -0.2035 -0.0877  1.0495
29318SOL    HW189628   5.270   3.927   5.639  0.9433  1.9368 -0.5275
29318SOL    HW289629   5.383   3.868   5.721 -0.9233  0.9557  1.4058
29319SOL     OW89630   0.660   6.471   6.531 -0.0724 -0.5372 -0.1238
29319SOL    HW189631   0.738   6.511   6.491 -2.6293  2.1697 -2.8532
29319SOL    HW289632   0.653   6.514   6.616  0.1237  1.0533 -0.8710
29320SOL     OW89633   2.924   2.750   0.565 -0.1554  0.3381  0.2811
29320SOL    HW189634   2.892   2.774   0.651 -1.1045  2.7875 -0.6582
29320SOL    HW289635   2.958   2.661   0.575 -0.9859  0.2543  2.9451
29321SOL     OW89636   6.715   0.246   4.651 -0.3802 -0.0927 -0.3110
29321SOL    HW189637   6.622   0.239   4.673  0.1420 -0.4226  2.0105
29321SOL    HW289638   6.756   0.282   4.729  1.6456 -1.2090 -0.7770
29322SOL     OW89639   7.797   7.041   0.786  0.0915 -0.3366 -0.4127
29322SOL    HW189640   7.828   6.971   0.728  0.1023 -1.0499  0.4194
29322SOL    HW289641   7.871   7.059   0.844 -0.5971 -1.1896  0.7897
29323SOL     OW89642   8.637   4.683   5.829  0.1988  0.4869  0.2629
29323SOL    HW189643   8.711   4.638   5.789 -0.8771 -0.8308 -0.3490
29323SOL    HW289644   8.676   4.756   5.879  1.7712  0.5862 -1.0486
29324SOL     OW89645   3.556   7.712   0.669  0.0026  0.3332  0.1786
29324SOL    HW189646   3.493   7.765   0.717 -0.2475 -0.2562  0.5088
29324SOL    HW289647   3.521   7.707   0.580  1.0442  2.3797 -0.3983
29325SOL     OW89648   6.872   4.810   3.649  0.1338 -0.3304 -0.2963
29325SOL    HW189649   6.950   4.755   3.657  1.1065  1.1332  0.6266
29325SOL    HW289650   6.900   4.897   3.676 -1.5219  0.5193 -1.1228
29326SOL     OW89651   2.720   7.360   7.515 -0.8161 -0.3614 -0.1794
29326SOL    HW189652   2.781   7.288   7.499  0.0500  0.3198 -0.0314
29326SOL    HW289653   2.676   7.338   7.597  0.9603  0.2577  1.0033
29327SOL     OW89654   9.423   3.926   7.763 -1.1244 -0.6921  0.3967
29327SOL    HW189655   9.419   3.990   7.691  0.8780  0.6242  1.3686
29327SOL    HW289656   9.459   3.847   7.722 -1.5239 -0.4972 -0.3604
29328SOL     OW89657   1.722   3.499   1.038  0.6081  0.1498 -0.4070
29328SOL    HW189658   1.705   3.415   1.080  0.1170  1.3353  1.9516
29328SOL    HW289659   1.816   3.498   1.019  0.1715 -2.0128 -3.1992
29329SOL     OW89660   4.863   3.345   3.703 -0.1004  0.0815  0.0394
29329SOL    HW189661   4.866   3.262   3.655 -1.2932 -0.0831  0.2179
29329SOL    HW289662   4.954   3.366   3.721  0.2453 -0.9070 -0.4973
29330SOL     OW89663   5.095   2.983   4.499 -0.6809  0.4531  0.4193
29330SOL    HW189664   5.179   2.941   4.483 -0.9100  0.1394 -0.0084
29330SOL    HW289665   5.036   2.944   4.434 -0.9455  1.2973  0.1325
29331SOL     OW89666   4.422   1.338   9.243  0.0206 -0.4508  0.4899
29331SOL    HW189667   4.354   1.336   9.175 -0.9123 -0.6991  1.4001
29331SOL    HW289668   4.496   1.383   9.202 -0.3096 -1.0924 -0.8669
29332SOL     OW89669   9.318   0.552   3.775 -0.2199 -0.2600  0.1355
29332SOL    HW189670   9.268   0.600   3.841 -0.0939  1.2031 -0.7950
29332SOL    HW289671   9.278   0.577   3.692  2.1337  1.1240 -0.6677
29333SOL     OW89672   5.979   0.370   7.102  0.0075  0.5994  0.1718
29333SOL    HW189673   5.931   0.287   7.094  1.4287 -0.2188 -0.2137
29333SOL    HW289674   5.939   0.427   7.036 -0.5975  0.0265  0.0285
29334SOL     OW89675   3.277   0.068   4.540  0.1001 -0.2892  0.1752
29334SOL    HW189676   3.354   0.124   4.533  0.5187 -0.8540  0.2582
29334SOL    HW289677   3.310  -0.021   4.531 -0.4276 -0.5937  1.0714
29335SOL     OW89678   2.250   4.529   3.570 -0.5193 -0.2275 -0.3999
29335SOL    HW189679   2.254   4.523   3.475 -0.9679  0.4747 -0.4687
29335SOL    HW289680   2.196   4.455   3.597  1.7080 -2.0039 -0.4623
29336SOL     OW89681   3.918   8.723   5.582 -0.2421 -1.1088  0.2484
29336SOL    HW189682   3.923   8.629   5.601 -1.4454 -0.9678  1.4125
29336SOL    HW289683   3.826   8.737   5.560 -0.1557 -0.1219  0.4999
29337SOL     OW89684   2.538   8.622   7.057  0.3789  0.3407 -0.0668
29337SOL    HW189685   2.506   8.683   7.124 -0.5174 -0.8311  0.6042
29337SOL    HW289686   2.574   8.549   7.107 -0.6457 -0.7333 -0.8473
29338SOL     OW89687   6.632   3.663   4.097 -0.2301 -0.4488  0.5894
29338SOL    HW189688   6.689   3.586   4.095  1.6414  0.8467 -2.3345
29338SOL    HW289689   6.689   3.735   4.123 -0.4745  0.8197 -2.0374
29339SOL     OW89690   3.000   8.416   0.370  0.2853 -0.1275  0.1043
29339SOL    HW189691   2.942   8.345   0.396  0.6111 -0.3263  0.2868
29339SOL    HW289692   3.043   8.444   0.452 -0.1720  0.5771  0.1153
29340SOL     OW89693   3.747   4.804   9.580  0.0173  0.0294  0.0806
29340SOL    HW189694   3.678   4.820   9.645 -2.2198 -1.0189 -1.9051
29340SOL    HW289695   3.734   4.713   9.554  2.3848 -0.2798 -0.1704
29341SOL     OW89696   3.985   8.253   2.865  0.3666  0.0965  0.5964
29341SOL    HW189697   4.035   8.180   2.902 -1.0127 -1.6993 -0.8940
29341SOL    HW289698   3.948   8.298   2.941  0.2332 -1.5217  1.5339
29342SOL     OW89699   8.601   0.022   0.503  0.0954  0.8817  0.5836
29342SOL    HW189700   8.682   0.069   0.522  0.5417  0.5661 -0.4820
29342SOL    HW289701   8.605   0.003   0.409 -0.4255 -0.6212  0.8382
29343SOL     OW89702   6.441   3.891   2.697 -0.0810 -0.3207 -0.1088
29343SOL    HW189703   6.452   3.797   2.683 -0.7475 -0.4524  0.2189
29343SOL    HW289704   6.397   3.923   2.619 -1.8408 -0.6783  0.6857
29344SOL     OW89705   4.619   7.598   1.860 -0.7305 -0.2257 -1.0384
29344SOL    HW189706   4.549   7.628   1.802 -1.8579 -0.5946  0.0944
29344SOL    HW289707   4.670   7.537   1.807 -0.6372  0.8115 -2.1945
29345SOL     OW89708   4.152   5.991   6.610  0.1785  0.4773 -0.4870
29345SOL    HW189709   4.244   5.990   6.587 -0.2817  1.3881 -2.5798
29345SOL    HW289710   4.137   6.077   6.650  0.2874  0.2021  0.1585
29346SOL     OW89711   2.038   8.068   8.471 -0.7645  0.6588  0.4293
29346SOL    HW189712   2.118   8.093   8.425 -0.3635 -0.6819  0.3391
29346SOL    HW289713   1.997   8.151   8.496 -1.5854  1.5424 -3.2872
29347SOL     OW89714   5.168   3.456   1.165 -0.2055 -0.7504 -0.0706
29347SOL    HW189715   5.233   3.504   1.217 -0.7599  1.9586 -1.6480
29347SOL    HW289716   5.089   3.511   1.169 -1.1738 -1.9751 -1.3181
29348SOL     OW89717   6.506   4.373   7.013  0.2653  0.2569  0.3364
29348SOL    HW189718   6.545   4.347   6.930 -0.9655  0.3311 -0.2857
29348SOL    HW289719   6.500   4.469   7.008 -0.5213  0.2065  0.1724
29349NA      NA89720   4.174   8.222   6.536  0.2061 -0.4648  0.5013
29350NA      NA89721   8.070   1.864   8.169 -0.4496 -0.2670  0.2258
29351NA      NA89722   5.392   9.329   8.737  0.1963 -0.5078  0.0129
29352NA      NA89723   0.258   0.901   2.184  0.4910  0.8138  0.6256
29353NA      NA89724   0.472   8.800   7.378 -0.5860 -0.6447 -0.3231
29354NA      NA89725   8.942   2.239   1.992  0.2261 -0.2941  0.7730
29355NA      NA89726   6.783   6.765   3.561 -0.0723  0.2625 -0.5132
29356NA      NA89727   1.369   2.502   0.574  0.1641  0.2102 -0.2561
29357NA      NA89728   5.802   8.261   5.288  0.1806 -0.2354 -0.2882
29358NA      NA89729   0.867   9.460   0.111 -0.3966  0.1922  0.5345
29359NA      NA89730   4.864   5.128   4.740  0.3020 -0.1335  0.2275
29360NA      NA89731   4.717   4.510   8.379 -0.2303 -0.2426 -0.6383
29361NA      NA89732   3.447   7.970   1.395 -0.0206 -0.2383 -0.3831
29362NA      NA89733   2.106   8.399   8.043 -0.8355  0.1500  0.2358
29363NA      NA89734   3.980   3.826   5.561 -0.3539  0.0324 -0.4339
29364NA      NA89735   4.731   7.617   6.916 -0.1077 -0.4441  0.3374
29365NA      NA89736   7.143   5.737   0.208  0.1885 -0.3354  0.2382
29366NA      NA89737   0.960   5.661   1.296 -0.3100  0.0341  0.0797
29367NA      NA89738   2.283   7.211   0.922 -0.0990 -0.2740  0.3561
29368NA      NA89739   4.576   9.092   3.173  0.4567  0.1363 -0.1189
29369NA      NA89740   3.885   4.309   0.244  0.8509  0.0233 -0.4894
29370NA      NA89741   9.335   6.570   8.337  0.4486  0.0738  0.2959
29371NA      NA89742   1.813   2.311   7.971 -0.3725  0.0936 -0.1279
29372NA      NA89743   6.669   2.059   7.351 -0.0304 -0.2806  0.2177
29373NA      NA89744   7.434   6.867   1.616  0.2891  0.2260 -0.3644
29374NA      NA89745   6.655   2.656   5.260  0.2949 -0.3261  0.0411
29375NA      NA89746   3.876   2.332   2.489 -0.3743  0.5466  0.0612
29376NA      NA89747   5.966   7.645   2.323 -0.2123  0.0376 -0.0643
29377NA      NA89748   5.961   3.892   9.259 -0.7670 -0.2678  0.0158
29378NA      NA89749   8.846   8.195   1.418  0.0687 -0.6635  0.0973
29379NA      NA89750   4.718   8.853   4.899  0.1138 -0.3049 -0.4950
29380NA      NA89751   9.639   6.158   5.197  0.4897 -0.8678  0.2243
29381NA      NA89752   8.277   8.615   4.632 -0.0766 -0.1880  0.6002
29382NA      NA89753   3.367   7.922   3.409  0.7492 -0.0521 -0.0614
29383NA      NA89754   2.904   0.451   9.427 -0.1670 -0.3236  0.3592
29384NA      NA89755   5.376   8.283   6.156 -0.0665  0.3202 -0.0959
29385NA      NA89756   4.497   2.500   1.485 -0.6515 -0.2206 -0.4085
29386NA      NA89757   3.627   7.867   7.255 -0.0156  0.0137  0.2469
29387NA      NA89758   6.378   5.401   3.845  0.2932 -0.1934 -0.2865
29388NA      NA89759   9.402   4.275   1.043 -0.0642 -0.1408  0.0355
29389NA      NA89760   8.339   3.586   9.166 -0.4661  0.1346 -0.0392
29390NA      NA89761   5.947   6.099   9.379  0.0417  0.4095 -0.0928
29391NA      NA89762   2.247   8.753   4.505 -0.3713 -0.3815 -0.3395
29392NA      NA89763   2.098   6.548   4.889  0.0896  0.8192 -0.0531
29393NA      NA89764   5.797   9.293   0.813 -0.0810  0.1298  0.3810
29394NA      NA89765   9.208   8.202   7.046 -0.6109  0.1228 -0.2392
29395NA      NA89766   5.703   1.885   9.544  0.1965 -0.4659 -0.4053
29396NA      NA89767   5.962   3.553   0.624 -0.5493  0.7052 -0.4103
29397NA      NA89768   9.659   9.366   4.481  0.4287  0.4202 -0.2486
29398NA      NA89769   8.728   7.011   4.371 -0.0432 -0.0294 -0.1305
29399NA      NA89770   2.788   2.679   1.564  0.6442 -0.3127 -0.1188
29400NA      NA89771   1.366   0.807   3.914 -0.1885 -0.0736 -0.3356
29401NA      NA89772   1.648   5.388   5.039  0.3735 -0.2933  0.4759
29402NA      NA89773   4.032   3.008   3.826 -0.5055 -0.2272 -0.2968
29403NA      NA89774   6.769   5.261   0.943 -0.3093 -0.3279 -0.1844
29404NA      NA89775   2.854   3.364   6.313 -0.3893  0.1117 -0.1251
29405NA      NA89776   5.121   4.224   7.565 -0.0988  0.0630 -0.1560
29406NA      NA89777   4.038   3.446   0.477 -0.2396  0.0722 -0.1602
29407NA      NA89778   0.776   6.999   5.843 -0.4611 -0.4550  0.5228
29408NA      NA89779   2.968   8.990   1.446 -0.4727 -0.1195 -0.3194
29409NA      NA89780   5.451   9.035   0.236 -0.6090  0.2106  0.3356
29410NA      NA89781   2.187   7.226   7.487 -0.1384 -0.8592  0.3623
29411NA      NA89782   5.658   3.347   1.745  0.1704 -0.2324 -0.4158
29412NA      NA89783   0.942   2.776   3.827 -0.1083  0.1697  0.5680
29413NA      NA89784   0.687   0.914   4.052 -0.2218  0.3188 -0.3350
29414NA      NA89785   0.991   1.288   9.611 -0.4945  0.4718  0.4500
29415NA      NA89786   5.979   8.319   7.140  0.5361 -0.1757 -0.0387
29416NA      NA89787   8.744   6.318   5.339  0.2550  0.9265  0.5742
29417NA      NA89788   3.730   1.793   0.729 -0.0248  0.1058 -0.0303
29418NA      NA89789   1.317   1.923   1.239 -0.0652  0.0172 -0.2165
29419NA      NA89790   3.412   1.049   7.073  0.7176 -0.5669 -0.4010
29420NA      NA89791   2.320   3.736   6.833  0.4892 -0.0882 -0.5688
29421NA      NA89792   0.013   2.462   6.889  0.2026  0.0720  0.0709
29422NA      NA89793   0.214   1.365   6.104 -0.0847  0.3249 -0.0379
29423NA      NA89794   9.030   5.111   9.618  0.0214 -0.3133 -0.2464
29424NA      NA89795   5.123   4.377   3.688 -0.1333  0.2265  0.3238
29425NA      NA89796   8.541   1.490   2.593  0.4734 -0.5583  0.4368
29426NA      NA89797   6.539   2.733   0.381  0.2526  0.4325  0.3268
29427NA      NA89798   4.224   6.696   4.030  0.2301 -0.0585  0.6583
29428NA      NA89799   8.225   4.020   3.734  0.1239 -0.2664  0.6384
29429NA      NA89800   5.054   4.480   0.935  0.0372 -0.1383 -0.2353
29430NA      NA89801   3.083   3.658   8.989  0.0050 -0.1999  0.0777
29431NA      NA89802   2.806   3.176   7.127 -0.7741  0.0365 -0.2738
29432CL      CL89803   2.233   8.419   5.399 -0.0404 -0.0653  0.2741
29433CL      CL89804   1.091   1.558   0.795  0.0553 -0.1871 -0.2035
29434CL      CL89805   6.550   0.865   3.921  0.0398 -0.1136  0.0867
29435CL      CL89806   8.932   0.822   0.981  0.4307 -0.0612 -0.2457
29436CL      CL89807   1.273   0.596   3.958 -0.0936  0.3474  0.0533
29437CL      CL89808   5.556   8.410   6.249  0.2198  0.2943 -0.1291
29438CL      CL89809   7.794   7.491   2.278  0.4446  0.0679 -0.3395
29439CL      CL89810   5.526   4.196   9.254  0.4162  0.0433  0.0077
29440CL      CL89811   0.437   1.348   6.032  0.1248  0.2569  0.0250
29441CL      CL89812   8.886   6.104   0.258  0.1562 -0.4123 -0.8642
29442CL      CL89813   2.481   0.930   6.102  0.4055  0.1141 -0.4495
29443CL      CL89814   9.222   0.787   3.112 -0.6281  0.0602 -0.2570
29444CL      CL89815   4.954   6.759   0.285  0.2222  0.0918 -0.0775
29445CL      CL89816   8.582   6.458   7.960 -0.4151  0.0736 -0.0029
29446CL      CL89817   4.174   7.143   1.801 -0.3680  0.0184  0.1354
29447CL      CL89818   5.524   6.365   7.315 -0.1969  0.0262  0.1428
29448CL      CL89819   9.391   4.263   8.047  0.0531 -0.0200  0.6991
29449CL      CL89820   2.436   1.279   6.890 -0.0885 -0.0468  0.0755
29450CL      CL89821   8.582   3.519   2.350  0.2809 -0.0466  0.0899
29451CL      CL89822   7.681   5.543   8.172  0.4054 -0.3557 -0.2397
29452CL      CL89823   9.427   3.914   9.559 -0.0061 -0.1181  0.2041
29453CL      CL89824   4.555   2.312   0.439 -0.1140  0.4930 -0.1956
29454CL      CL89825   5.950   7.819   1.866 -0.1231  0.2624  0.1548
29455CL      CL89826   0.157   5.716   2.862 -0.0197  0.2656  0.0703
29456CL      CL89827   9.012   4.633   1.039 -0.3423  0.0627 -0.6084
29457CL      CL89828   6.726   4.969   4.060 -0.2010 -0.1155 -0.2158
29458CL      CL89829   0.282   1.523   4.934 -0.2001 -0.0793  0.0421
29459CL      CL89830   5.259   0.407   1.334 -0.1405 -0.3594 -0.2573
29460CL      CL89831   6.538   2.396   5.986 -0.3993 -0.1348 -0.2985
29461CL      CL89832   2.134   7.890   7.135  0.1220  0.0413  0.1793
29462CL      CL89833   6.990   6.064   4.865 -0.1389  0.1598 -0.4577
29463CL      CL89834   0.858   8.333   3.852  0.0216  0.2202  0.1219
29464CL      CL89835   5.851   5.098   4.454 -0.2585 -0.3201  0.1862
29465CL      CL89836   9.407   5.284   5.615  0.1537  0.1485 -0.0001
29466CL      CL89837   8.348   4.263   5.288  0.2946 -0.2340 -0.0278
29467CL      CL89838   1.353   6.418   0.628 -0.0157  0.1293  0.0443
29468CL      CL89839   5.867   1.890   8.007 -0.1722  0.4865  0.0236
29469CL      CL89840   0.528   0.748   2.691 -0.1648 -0.0123 -0.0023
29470CL      CL89841   8.253   7.725   0.535 -0.1315  0.0691 -0.0065
29471CL      CL89842   3.923   1.430   1.230  0.2458  0.3037 -0.0755
29472CL      CL89843   5.137   6.682   7.346  0.0631  0.4043 -0.3856
29473CL      CL89844   2.617   5.247   4.013  0.5092 -0.0811 -0.2764
29474CL      CL89845   6.334   4.883   9.267 -0.2310  0.1184  0.1950
29475CL      CL89846   5.493   9.298   9.265  0.3219 -0.3403 -0.4284
29476CL      CL89847   5.537   9.624   4.123 -0.4137  0.1490  0.2818
29477CL      CL89848   2.045   0.760   8.825  0.0001 -0.0487  0.0827
29478CL      CL89849   1.865   1.555   8.614  0.2498 -0.1721  0.1516
29479CL      CL89850   9.550   7.359   9.103  0.0035 -0.0932  0.1533
29480CL      CL89851   8.025   5.523   1.587 -0.1046 -0.1653 -0.2773
29481CL      CL89852   4.086   3.729   1.733  0.1445 -0.0860 -0.1978
29482CL      CL89853   2.769   6.572   6.373 -0.0964 -0.3490  0.1155
29483CL      CL89854   1.136   7.078   5.295  0.1106  0.2463  0.0325
29484CL      CL89855   5.470   3.862   3.344  0.1398 -0.0037 -0.1610
29485CL      CL89856   2.811   4.358   0.247  0.2589 -0.3837 -0.2070
29486CL      CL89857   3.913   6.673   1.524 -0.0156  0.1956 -0.3194
29487CL      CL89858   6.083   8.645   1.495  0.0971  0.1122  0.3024
29488CL      CL89859   5.462   7.759   5.556  0.1198  0.2883  0.3750
29489CL      CL89860   5.309   8.024   8.620 -0.0776  0.1871  0.1148
29490CL      CL89861   4.908   3.554   5.836  0.4914 -0.0945 -0.4115
29491CL      CL89862   8.136   8.046   3.750  0.3804 -0.2320 -0.5069
29492CL      CL89863   6.138   6.445   3.867 -0.2464 -0.1136 -0.2130
29493CL      CL89864   5.398   1.679   5.427  0.0782  0.2834  0.0380
29494CL      CL89865   1.592   2.940   3.600  0.3929  0.1207  0.1779
29495CL      CL89866   3.276   1.534   3.868 -0.1508 -0.0512 -0.0407
29496CL      CL89867   5.248   6.158   4.885 -0.0286 -0.1448 -0.3398
29497CL      CL89868   0.857   3.447   7.032 -0.1947 -0.2119 -0.2590
29498CL      CL89869   9.235   4.008   6.778 -0.1027 -0.3241  0.5743
29499CL      CL89870   6.992   7.962   6.779  0.0825 -0.1890 -0.1015
29500CL      CL89871   4.506   2.105   1.187 -0.2268  0.3331  0.0247
29501CL      CL89872   0.635   0.680   4.084  0.1345 -0.2001 -0.1463
29502CL      CL89873   7.864   2.217   4.853 -0.2094 -0.1682  0.1145
29503CL      CL89874   6.473   6.645   0.535  0.0259  0.1807 -0.1688
29504CL      CL89875   7.630   0.553   1.386  0.1447  0.1919  0.2241
29505CL      CL89876   1.308   8.316   9.360 -0.0274 -0.0987 -0.3282
29506CL      CL89877   4.307   2.153   5.390  0.2017  0.1234  0.2677
29507CL      CL89878   1.827   7.230   8.258  0.1700 -0.1273 -0.1166
29508CL      CL89879   4.833   9.284   2.459  0.2434  0.2502 -0.5306
29509CL      CL89880   3.938   8.426   5.716 -0.0880  0.0657 -0.3092
29510CL      CL89881   8.530   3.736   9.203  0.0699  0.0572 -0.1231
29511CL      CL89882   5.109   3.853   9.082 -0.0741 -0.1468 -0.2098
29512CL      CL89883   6.554   2.997   1.191  0.1720 -0.4631 -0.2483
29513CL      CL89884   5.652   5.916   0.079  0.2761  0.3988  0.0281
29514CL      CL89885   3.338   8.734   8.984 -0.3259  0.1596 -0.0021
   9.67719   9.67719   9.67719
